Title
81332
    1CHL1    C3    1   3.853   0.139  10.414  0.0040  0.4296  0.3934
    1CHL1    H3    2   3.795   0.056  10.368 -0.0672 -0.2708  1.6890
    1CHL1    O3    3   3.837   0.121  10.550  0.2481  0.0655 -0.2440
    1CHL1   H3'    4   3.907   0.059  10.573 -0.8972 -0.8112  1.0113
    1CHL1    C4    5   3.998   0.136  10.371  0.3776  0.4934  1.0061
    1CHL1   H4A    6   4.051   0.201  10.444  0.2572 -0.4848  1.9868
    1CHL1   H4B    7   4.020   0.027  10.379  1.3609  0.6651  0.8018
    1CHL1    C5    8   4.027   0.180  10.228  0.7715 -0.3350  0.4670
    1CHL1    C6    9   4.091   0.104  10.140 -0.5041 -1.1531 -0.2974
    1CHL1    H6   10   4.132   0.008  10.176  0.2901  0.1994  2.6789
    1CHL1    C7   11   4.116   0.141   9.994  0.8961 -0.2998 -0.5158
    1CHL1   H7A   12   4.222   0.138   9.962  1.4643  3.0665  0.6986
    1CHL1   H7B   13   4.045   0.082   9.933 -2.0234  2.2674  0.1292
    1CHL1    C8   14   4.075   0.287   9.959 -0.1905  0.2554  0.1297
    1CHL1    H8   15   4.168   0.343   9.981  0.2263 -0.7860  1.1217
    1CHL1   C14   16   4.054   0.294   9.812  0.3805  0.5746  0.2544
    1CHL1   H14   17   3.958   0.241   9.792  1.3375 -0.8413 -0.7301
    1CHL1   C15   18   4.151   0.230   9.715  0.2883  0.3673  0.4176
    1CHL1  H15A   19   4.254   0.264   9.734 -0.3799  2.0733  1.1623
    1CHL1  H15B   20   4.136   0.120   9.708 -0.7116  0.2257  3.4273
    1CHL1   C16   21   4.100   0.290   9.573 -0.1943  0.2822 -0.1313
    1CHL1  H16A   22   4.182   0.318   9.503  0.0985  0.0170  0.0987
    1CHL1  H16B   23   4.044   0.205   9.528 -0.5674  1.3788 -1.8303
    1CHL1   C17   24   4.002   0.405   9.606 -0.1753 -0.1402  0.4043
    1CHL1   H17   25   3.898   0.369   9.590 -1.3827  3.0518  0.3488
    1CHL1   C13   26   4.024   0.432   9.759  0.1987  0.5233 -0.1841
    1CHL1   C18   27   4.152   0.527   9.772  0.6217 -0.0524 -0.1093
    1CHL1  H18A   28   4.229   0.481   9.706  0.7769  0.1354 -0.0560
    1CHL1  H18B   29   4.124   0.624   9.725 -0.2430 -0.4090 -0.3582
    1CHL1  H18C   30   4.179   0.559   9.874 -1.0386  0.2519  0.2676
    1CHL1   C12   31   3.894   0.479   9.832  0.3181  0.1595  0.0272
    1CHL1  H12A   32   3.861   0.584   9.811 -0.3092 -0.0471 -0.0384
    1CHL1  H12B   33   3.819   0.407   9.793  0.9487  0.5570 -2.0865
    1CHL1   C11   34   3.906   0.463   9.983 -0.2348  0.1779  0.7377
    1CHL1  H11A   35   3.982   0.538  10.015  1.6479  0.1440 -3.0623
    1CHL1  H11B   36   3.809   0.489  10.029  0.0941 -0.1180  1.6073
    1CHL1    C9   37   3.954   0.330  10.027  0.4805  0.0199 -0.2948
    1CHL1    H9   38   3.879   0.255   9.995  0.1516 -0.2958  1.1698
    1CHL1   C10   39   3.955   0.312  10.183 -0.3948  0.0225 -0.6681
    1CHL1   C19   40   4.040   0.424  10.252  0.0345 -0.9204  0.0996
    1CHL1  H19A   41   4.145   0.427  10.218  0.0755 -0.3823  0.2559
    1CHL1  H19B   42   3.996   0.526  10.242 -0.1797 -0.9552  0.6474
    1CHL1  H19C   43   4.053   0.409  10.362  3.9738 -0.3615 -0.1539
    1CHL1    C1   44   3.810   0.319  10.231 -0.4021  0.2002  0.3474
    1CHL1   H1A   45   3.779   0.426  10.226  0.6079  0.5326  0.9060
    1CHL1   H1B   46   3.753   0.247  10.170  0.6831  1.7537 -2.7211
    1CHL1    C2   47   3.790   0.273  10.377  0.2758 -0.7478 -0.3925
    1CHL1   H2A   48   3.684   0.288  10.409 -0.1119  0.2694 -2.0100
    1CHL1   H2B   49   3.850   0.348  10.432 -0.4920 -0.6991  0.3939
    1CHL1   C20   50   4.009   0.521   9.507 -0.5722 -0.6335 -0.0532
    1CHL1   H20   51   4.110   0.567   9.500 -1.3422  1.1038 -0.1967
    1CHL1   C21   52   3.902   0.633   9.538 -1.0877  0.4459  0.6217
    1CHL1  H21A   53   3.917   0.663   9.644  2.2760  0.1283  0.3424
    1CHL1  H21B   54   3.798   0.596   9.526 -1.4088  1.2504  0.8264
    1CHL1  H21C   55   3.916   0.717   9.467  3.1061  1.4965  2.4090
    1CHL1   C22   56   3.989   0.471   9.361  0.3811 -0.2517  0.1409
    1CHL1  H22A   57   4.052   0.382   9.343  0.1133  0.1377 -3.3567
    1CHL1  H22B   58   3.880   0.452   9.353  0.2225  1.0875 -1.3981
    1CHL1   C23   59   4.025   0.571   9.254  0.0817 -0.7164 -0.1665
    1CHL1  H23A   60   3.971   0.667   9.266 -0.5797 -1.0004 -0.8251
    1CHL1  H23B   61   4.130   0.603   9.272 -0.4164  3.0252 -2.8179
    1CHL1   C24   62   4.001   0.521   9.111  0.0443  0.0878 -0.1692
    1CHL1  H24A   63   4.014   0.411   9.107 -1.2913 -0.2582  2.6540
    1CHL1  H24B   64   3.898   0.532   9.072  0.1630 -0.8344 -0.7765
    1CHL1   C25   65   4.098   0.570   9.011 -1.3149 -0.2270 -0.2071
    1CHL1   H25   66   4.198   0.563   9.058 -2.3894  0.7810  2.4063
    1CHL1   C26   67   4.088   0.500   8.869  0.0990 -0.5065 -0.3030
    1CHL1  H26A   68   4.182   0.503   8.809  0.5359  1.6509  0.4019
    1CHL1  H26B   69   4.050   0.397   8.883 -2.0170  0.1897 -0.6859
    1CHL1  H26C   70   4.003   0.546   8.815  1.5103  3.0602  0.2168
    1CHL1   C27   71   4.077   0.722   8.986 -0.3349 -0.2463  0.4604
    1CHL1  H27A   72   4.172   0.755   8.939  0.9230 -1.0803  2.2693
    1CHL1  H27B   73   3.990   0.752   8.925 -0.1502  1.6367  1.0622
    1CHL1  H27C   74   4.050   0.784   9.074 -1.3751  0.7981 -0.5744
    2CHL1    C3   75   3.163   5.102   9.986  0.2625  0.7493 -0.4468
    2CHL1    H3   76   3.269   5.110   9.953  0.3941 -0.1258 -0.2510
    2CHL1    O3   77   3.141   5.181  10.104  0.5021  0.3445 -0.1540
    2CHL1   H3'   78   3.046   5.186  10.115  0.2096 -1.8023 -1.1471
    2CHL1    C4   79   3.065   5.141   9.872 -0.1751 -0.3199 -0.3770
    2CHL1   H4A   80   2.961   5.128   9.910 -0.8938  0.3134 -2.0293
    2CHL1   H4B   81   3.070   5.247   9.839 -1.9553 -0.0295  0.1592
    2CHL1    C5   82   3.077   5.053   9.749  0.1599 -0.4397  0.5042
    2CHL1    C6   83   3.104   5.109   9.626  0.2662 -0.0350 -0.6627
    2CHL1    H6   84   3.106   5.219   9.618 -1.0033  0.2190  1.7008
    2CHL1    C7   85   3.095   5.033   9.496 -0.2234 -0.3920  0.3208
    2CHL1   H7A   86   3.021   5.077   9.426 -0.5202 -1.0534  0.2135
    2CHL1   H7B   87   3.193   5.020   9.445 -0.8417 -1.5377 -0.6204
    2CHL1    C8   88   3.053   4.884   9.515 -0.5032 -0.6753  0.7618
    2CHL1    H8   89   2.942   4.879   9.524 -0.6013  0.6067  0.5066
    2CHL1   C14   90   3.098   4.814   9.391 -0.2574  0.3350  0.3975
    2CHL1   H14   91   3.208   4.828   9.388 -0.3708  1.2666 -2.6340
    2CHL1   C15   92   3.043   4.876   9.258 -0.4106 -0.1995 -0.1347
    2CHL1  H15A   93   2.935   4.898   9.274  0.2184  2.6811  0.7563
    2CHL1  H15B   94   3.101   4.966   9.226 -2.1576  0.5072 -1.4676
    2CHL1   C16   95   3.068   4.762   9.163  0.9908  0.1857  0.4353
    2CHL1  H16A   96   2.971   4.729   9.121  0.5960 -0.1121  1.5379
    2CHL1  H16B   97   3.136   4.778   9.077  1.6038 -0.5517  0.7756
    2CHL1   C17   98   3.115   4.641   9.242 -0.3413  0.2613 -0.2800
    2CHL1   H17   99   3.226   4.651   9.242 -0.2135  0.0785  3.7055
    2CHL1   C13  100   3.066   4.666   9.388 -0.0377 -0.1705  0.5862
    2CHL1   C18  101   2.915   4.628   9.398 -0.5113  0.0915  0.4405
    2CHL1  H18A  102   2.863   4.692   9.473 -0.4316  2.0691 -1.0993
    2CHL1  H18B  103   2.858   4.647   9.304 -2.2486 -0.9318  1.2487
    2CHL1  H18C  104   2.909   4.519   9.418  1.6227 -0.6599 -2.3711
    2CHL1   C12  105   3.146   4.606   9.510  0.5849  0.3026 -0.5498
    2CHL1  H12A  106   3.133   4.497   9.527  1.0808  0.2159 -0.6857
    2CHL1  H12B  107   3.256   4.621   9.498  1.0179 -3.0264 -1.7942
    2CHL1   C11  108   3.095   4.671   9.643  0.5082 -0.3360 -0.1129
    2CHL1  H11A  109   2.989   4.636   9.650 -0.7867  3.3588  0.9345
    2CHL1  H11B  110   3.160   4.629   9.723  1.7138 -1.2410 -1.5168
    2CHL1    C9  111   3.112   4.823   9.640  0.0161 -0.0791  0.1269
    2CHL1    H9  112   3.222   4.838   9.635  0.2425 -1.8729 -1.2645
    2CHL1   C10  113   3.067   4.894   9.771  0.3900 -0.7047 -0.0281
    2CHL1   C19  114   2.925   4.856   9.802 -0.5818  0.2248  0.7094
    2CHL1  H19A  115   2.862   4.858   9.711  0.3023 -1.5334  0.0096
    2CHL1  H19B  116   2.934   4.749   9.831  0.0454 -0.0237 -0.3261
    2CHL1  H19C  117   2.885   4.914   9.888  0.9531  3.5901 -0.6438
    2CHL1    C1  118   3.162   4.860   9.896  0.6237 -0.1137 -0.0528
    2CHL1   H1A  119   3.152   4.754   9.927  0.1811 -0.4319 -1.2547
    2CHL1   H1B  120   3.264   4.877   9.855  0.1702  0.6783 -0.8830
    2CHL1    C2  121   3.146   4.949  10.023 -0.1402  0.2204  0.5473
    2CHL1   H2A  122   3.210   4.917  10.108  1.6658 -0.9651 -1.1634
    2CHL1   H2B  123   3.042   4.929  10.055 -1.3573  0.6130 -2.7221
    2CHL1   C20  124   3.087   4.502   9.176  0.2230 -0.3698  0.4617
    2CHL1   H20  125   2.977   4.487   9.173  0.4330 -2.3978  1.7028
    2CHL1   C21  126   3.145   4.394   9.261  0.6892  0.7053  0.1464
    2CHL1  H21A  127   3.120   4.305   9.199  0.3647  1.5679 -1.0111
    2CHL1  H21B  128   3.091   4.402   9.358 -0.2336 -1.7323 -0.1018
    2CHL1  H21C  129   3.254   4.400   9.280  0.5861  0.2549  0.9298
    2CHL1   C22  130   3.136   4.496   9.030  0.1663 -0.2063  0.0377
    2CHL1  H22A  131   3.081   4.574   8.974 -0.4139 -2.1809 -2.3293
    2CHL1  H22B  132   3.244   4.516   9.015  0.0469  1.0937  0.7524
    2CHL1   C23  133   3.106   4.370   8.945 -0.3823  0.8127  0.1952
    2CHL1  H23A  134   3.152   4.279   8.989 -0.5922 -0.4423 -2.0734
    2CHL1  H23B  135   2.997   4.351   8.937 -0.0510 -0.7794 -0.9376
    2CHL1   C24  136   3.159   4.370   8.803 -0.0267 -0.8179 -0.1957
    2CHL1  H24A  137   3.118   4.461   8.755 -0.1421 -1.7540 -1.9689
    2CHL1  H24B  138   3.269   4.387   8.801 -0.1895  0.2078 -0.6180
    2CHL1   C25  139   3.113   4.248   8.728  0.3635 -0.3430 -0.5734
    2CHL1   H25  140   3.104   4.164   8.799 -0.1966  0.4612  0.3272
    2CHL1   C26  141   2.980   4.284   8.664 -0.1819 -0.4218  0.1248
    2CHL1  H26A  142   2.936   4.191   8.622  1.5019 -1.6706  1.0110
    2CHL1  H26B  143   2.907   4.328   8.735 -0.4587  0.0752 -0.4514
    2CHL1  H26C  144   2.999   4.362   8.587 -1.0799 -0.8209 -0.5210
    2CHL1   C27  145   3.213   4.209   8.620 -0.2442  0.0108  0.5913
    2CHL1  H27A  146   3.215   4.296   8.551 -0.4530  2.3065  3.2874
    2CHL1  H27B  147   3.316   4.191   8.657  0.3006  0.7200 -0.5070
    2CHL1  H27C  148   3.185   4.118   8.562  3.2149 -0.4579 -0.6433
    3CHL1    C3  149   4.443   4.363  10.303  0.2452 -0.2372  0.5673
    3CHL1    H3  150   4.455   4.468  10.267  1.4352 -0.0304  1.4874
    3CHL1    O3  151   4.386   4.364  10.430 -0.1611 -0.4549 -0.3677
    3CHL1   H3'  152   4.385   4.272  10.457 -0.2507 -0.2330  0.3977
    3CHL1    C4  153   4.341   4.302  10.204 -0.6556 -0.0171  0.1160
    3CHL1   H4A  154   4.324   4.204  10.253  0.6151 -1.2607 -1.7918
    3CHL1   H4B  155   4.254   4.371  10.211  0.2576  1.1659  0.1205
    3CHL1    C5  156   4.384   4.283  10.059  0.1185  0.5026  0.4644
    3CHL1    C6  157   4.305   4.328   9.958  0.0395  0.2880 -0.1465
    3CHL1    H6  158   4.213   4.383   9.984  0.9345  1.5033  0.5767
    3CHL1    C7  159   4.344   4.310   9.816 -0.8930 -0.0161  0.6687
    3CHL1   H7A  160   4.254   4.284   9.757 -0.5982  1.7412 -0.6052
    3CHL1   H7B  161   4.364   4.413   9.781  3.2799 -0.8660  0.0970
    3CHL1    C8  162   4.462   4.212   9.793  0.3961 -0.0397 -0.1080
    3CHL1    H8  163   4.412   4.114   9.810 -2.1144  1.2886  0.6462
    3CHL1   C14  164   4.522   4.228   9.658 -0.2208 -0.4655 -0.6591
    3CHL1   H14  165   4.565   4.330   9.662 -1.6493  0.1923 -1.2605
    3CHL1   C15  166   4.423   4.239   9.542  0.2209 -0.1477 -0.6547
    3CHL1  H15A  167   4.327   4.185   9.552  0.2729 -0.3074 -0.9976
    3CHL1  H15B  168   4.408   4.347   9.518 -0.9219 -0.1594 -0.0513
    3CHL1   C16  169   4.502   4.179   9.423 -0.5472  0.3712 -0.2582
    3CHL1  H16A  170   4.445   4.084   9.416  0.8515 -0.4572 -0.8966
    3CHL1  H16B  171   4.482   4.236   9.331 -0.7953 -1.8503 -1.6526
    3CHL1   C17  172   4.652   4.160   9.474  0.3526 -0.1672  0.0204
    3CHL1   H17  173   4.699   4.260   9.477  2.6556 -1.1911  1.5878
    3CHL1   C13  174   4.630   4.123   9.624  1.5599 -0.5676 -0.7756
    3CHL1   C18  175   4.567   3.979   9.641 -0.1836 -0.0844  0.2369
    3CHL1  H18A  176   4.473   3.961   9.585 -0.5365 -1.9769  1.3686
    3CHL1  H18B  177   4.646   3.906   9.612  2.0383  1.8177  1.1963
    3CHL1  H18C  178   4.545   3.956   9.747 -0.3005  0.6103  0.3669
    3CHL1   C12  179   4.747   4.151   9.718 -0.0294 -0.7344  0.0865
    3CHL1  H12A  180   4.835   4.083   9.718 -1.1245 -2.2101 -0.3141
    3CHL1  H12B  181   4.785   4.253   9.700 -0.6168 -0.6542 -0.7312
    3CHL1   C11  182   4.701   4.155   9.869 -0.3288  0.1724  0.4574
    3CHL1  H11A  183   4.695   4.047   9.894  0.3899 -0.3437 -1.4044
    3CHL1  H11B  184   4.784   4.193   9.931  0.1597 -1.7852  1.0546
    3CHL1    C9  185   4.573   4.241   9.892  0.0428  0.6685  0.2841
    3CHL1    H9  186   4.608   4.345   9.872  2.3151  0.4574  2.5635
    3CHL1   C10  187   4.521   4.229  10.038 -0.0385 -0.1305 -0.4371
    3CHL1   C19  188   4.492   4.078  10.066 -0.6301 -0.5339 -0.4709
    3CHL1  H19A  189   4.456   4.066  10.170 -0.0654 -1.2984 -0.3523
    3CHL1  H19B  190   4.421   4.020  10.002 -1.3980  1.5636 -1.6317
    3CHL1  H19C  191   4.589   4.024  10.066 -1.7894 -2.7951  1.7218
    3CHL1    C1  192   4.626   4.278  10.147 -0.3488 -0.0502 -0.2825
    3CHL1   H1A  193   4.716   4.212  10.144 -0.1604  0.0985  1.2548
    3CHL1   H1B  194   4.660   4.380  10.120 -0.3270 -0.0446 -0.2346
    3CHL1    C2  195   4.571   4.283  10.291  0.3815 -0.0675 -0.2286
    3CHL1   H2A  196   4.643   4.333  10.359 -0.3370  0.1801  0.3589
    3CHL1   H2B  197   4.545   4.188  10.344  1.6685  0.0097  0.5916
    3CHL1   C20  198   4.728   4.060   9.385 -0.1555 -0.3411 -0.9903
    3CHL1   H20  199   4.700   3.956   9.413 -0.2247 -0.6952 -2.3211
    3CHL1   C21  200   4.882   4.060   9.419 -0.0701  0.4177 -0.1136
    3CHL1  H21A  201   4.926   4.155   9.381  1.2883 -0.9127 -2.0062
    3CHL1  H21B  202   4.928   3.969   9.375 -2.7638 -3.0192  3.4376
    3CHL1  H21C  203   4.908   4.061   9.527  0.7078  0.3478 -0.2959
    3CHL1   C22  204   4.702   4.060   9.236 -0.0401  0.7185  0.0471
    3CHL1  H22A  205   4.597   4.032   9.213  0.5345  0.0867 -2.0489
    3CHL1  H22B  206   4.717   4.163   9.197 -0.4982  0.8985  0.3402
    3CHL1   C23  207   4.800   3.971   9.150 -0.5739  0.0288 -0.9826
    3CHL1  H23A  208   4.899   4.021   9.143 -0.5500  0.1381 -0.0484
    3CHL1  H23B  209   4.814   3.878   9.209  1.2180 -1.2115 -3.1751
    3CHL1   C24  210   4.748   3.945   9.010 -0.0589 -0.3337 -0.3638
    3CHL1  H24A  211   4.643   3.908   9.012 -1.7006  3.7492 -0.2286
    3CHL1  H24B  212   4.759   4.044   8.961 -0.1734  0.9272  2.0172
    3CHL1   C25  213   4.823   3.834   8.922  0.2702 -0.4920 -0.3473
    3CHL1   H25  214   4.814   3.737   8.975 -0.1768 -0.7299 -0.8408
    3CHL1   C26  215   4.754   3.820   8.787  0.3261 -0.0829 -0.1121
    3CHL1  H26A  216   4.647   3.790   8.796 -0.2408  2.0171  0.9086
    3CHL1  H26B  217   4.761   3.911   8.723 -0.0235  0.2703  0.3426
    3CHL1  H26C  218   4.809   3.737   8.738  1.2590 -0.0355  0.8219
    3CHL1   C27  219   4.974   3.853   8.914 -1.1456 -0.4144 -0.4159
    3CHL1  H27A  220   5.000   3.902   8.818  1.4668 -1.4529 -0.3048
    3CHL1  H27B  221   5.016   3.933   8.979  0.8243 -2.9036  1.6045
    3CHL1  H27C  222   5.040   3.764   8.923  0.0973  0.5214 -0.1327
    4CHL1    C3  223   4.434   5.910  10.384 -0.2303 -0.6199  0.3158
    4CHL1    H3  224   4.519   5.980  10.372  0.3693 -1.4480 -0.3212
    4CHL1    O3  225   4.402   5.902  10.521 -0.3833  0.0745 -0.0648
    4CHL1   H3'  226   4.344   5.827  10.529  0.4981 -0.7101 -0.7271
    4CHL1    C4  227   4.299   5.948  10.317  0.4139 -0.6071 -0.5688
    4CHL1   H4A  228   4.218   5.877  10.345  0.9912 -0.7497  0.8253
    4CHL1   H4B  229   4.253   6.039  10.360  1.5147 -1.8519  3.6569
    4CHL1    C5  230   4.323   5.954  10.170 -0.0726 -0.2648  0.2259
    4CHL1    C6  231   4.302   6.069  10.104  0.3371  0.3203 -0.1050
    4CHL1    H6  232   4.267   6.148  10.172  1.3822 -1.5077  2.7517
    4CHL1    C7  233   4.309   6.093   9.958 -0.0134 -0.3792 -0.2277
    4CHL1   H7A  234   4.222   6.145   9.913 -0.4788 -0.2536  0.8096
    4CHL1   H7B  235   4.400   6.156   9.942 -0.2937  0.3888  1.0896
    4CHL1    C8  236   4.333   5.965   9.879  0.1870  0.9249 -0.8064
    4CHL1    H8  237   4.234   5.913   9.873  1.1732 -0.9077 -1.9984
    4CHL1   C14  238   4.382   5.981   9.736 -0.0303 -0.2288  0.7990
    4CHL1   H14  239   4.476   6.037   9.755  0.1459 -0.3773  0.3794
    4CHL1   C15  240   4.303   6.077   9.648 -0.5537  0.6298 -0.0662
    4CHL1  H15A  241   4.194   6.063   9.659 -0.4389  0.2671  0.6293
    4CHL1  H15B  242   4.328   6.183   9.669  0.6599  0.1272  1.1506
    4CHL1   C16  243   4.349   6.041   9.503 -0.3445  0.3533 -0.1646
    4CHL1  H16A  244   4.256   5.998   9.459  0.0019 -1.6542  0.9689
    4CHL1  H16B  245   4.383   6.126   9.441  0.9949 -0.2356 -0.2637
    4CHL1   C17  246   4.448   5.919   9.519  0.1654 -0.0037 -0.4425
    4CHL1   H17  247   4.548   5.967   9.531  0.3109 -0.4038 -0.0453
    4CHL1   C13  248   4.407   5.851   9.655  0.5216  0.2804 -0.4451
    4CHL1   C18  249   4.274   5.772   9.638  0.8633  0.6526 -0.4954
    4CHL1  H18A  250   4.301   5.671   9.600  1.2561  0.9836 -1.0983
    4CHL1  H18B  251   4.233   5.757   9.740 -2.5628 -0.4965 -1.9117
    4CHL1  H18C  252   4.200   5.825   9.576  1.0206  3.6239  1.6264
    4CHL1   C12  253   4.500   5.767   9.737 -0.2454 -0.0089  0.0035
    4CHL1  H12A  254   4.507   5.664   9.698 -1.6432  0.5753 -1.9538
    4CHL1  H12B  255   4.602   5.811   9.744 -0.4406  0.1832  3.8105
    4CHL1   C11  256   4.461   5.739   9.878 -0.6782  0.7556  0.4814
    4CHL1  H11A  257   4.380   5.664   9.869  0.7538 -1.2932  2.9688
    4CHL1  H11B  258   4.537   5.673   9.926 -2.5072 -2.2107 -0.4217
    4CHL1    C9  259   4.422   5.860   9.964 -0.0520 -0.5652  0.5935
    4CHL1    H9  260   4.516   5.917   9.977  0.7208 -1.6713  0.0956
    4CHL1   C10  261   4.374   5.831  10.105 -0.8056  0.4792 -0.1096
    4CHL1   C19  262   4.269   5.725  10.093 -0.3190  0.5411 -0.1043
    4CHL1  H19A  263   4.223   5.689  10.188  2.5567 -1.5171  0.6432
    4CHL1  H19B  264   4.190   5.755  10.021 -0.9909  0.3661  0.5440
    4CHL1  H19C  265   4.322   5.636  10.053 -0.3592  1.0524 -1.3484
    4CHL1    C1  266   4.502   5.779  10.182  0.6850  0.7088  0.3948
    4CHL1   H1A  267   4.531   5.678  10.146  2.7937  0.8945  1.4192
    4CHL1   H1B  268   4.576   5.855  10.150 -0.1796  2.0712  1.5314
    4CHL1    C2  269   4.479   5.770  10.339  0.2793  0.0231 -0.0065
    4CHL1   H2A  270   4.565   5.732  10.398 -0.2298 -0.7872  0.2244
    4CHL1   H2B  271   4.393   5.701  10.352  0.6306 -0.4214 -0.0345
    4CHL1   C20  272   4.463   5.828   9.394 -0.6276 -0.3480  0.0018
    4CHL1   H20  273   4.378   5.758   9.379 -1.3902  0.2173  1.5138
    4CHL1   C21  274   4.577   5.734   9.418  0.6512  0.0549 -0.6090
    4CHL1  H21A  275   4.664   5.785   9.464 -0.8138 -0.7209  3.4990
    4CHL1  H21B  276   4.600   5.677   9.325  0.1887  1.0433 -1.3444
    4CHL1  H21C  277   4.544   5.670   9.503  0.7283  2.2430  1.1534
    4CHL1   C22  278   4.499   5.900   9.257 -0.2196  0.0532 -0.2450
    4CHL1  H22A  279   4.420   5.978   9.244  0.9523  1.1372 -1.0981
    4CHL1  H22B  280   4.593   5.959   9.250  1.6952 -2.2823  2.8981
    4CHL1   C23  281   4.502   5.815   9.131  0.6907 -0.1143 -0.0683
    4CHL1  H23A  282   4.595   5.755   9.127 -0.0745 -1.3196 -0.4691
    4CHL1  H23B  283   4.412   5.750   9.124  0.7828 -0.4167  1.3272
    4CHL1   C24  284   4.501   5.905   9.003  0.3543 -0.7480  0.6733
    4CHL1  H24A  285   4.404   5.960   9.012  0.0018 -1.2438 -0.0248
    4CHL1  H24B  286   4.588   5.974   8.997 -1.6292  1.9561  1.0978
    4CHL1   C25  287   4.491   5.816   8.874 -0.2527 -0.0248 -0.0891
    4CHL1   H25  288   4.399   5.757   8.896 -0.7744  0.7919 -0.0204
    4CHL1   C26  289   4.471   5.902   8.747 -0.7677 -0.6450 -0.5014
    4CHL1  H26A  290   4.469   5.852   8.647  0.2190 -0.7093 -0.5016
    4CHL1  H26B  291   4.371   5.948   8.759  0.3215  1.8900 -0.3918
    4CHL1  H26C  292   4.555   5.975   8.755  0.1812 -1.6508 -0.9588
    4CHL1   C27  293   4.612   5.717   8.857 -0.2106  0.0096  0.2963
    4CHL1  H27A  294   4.708   5.771   8.846 -1.8341  2.7314 -1.6223
    4CHL1  H27B  295   4.630   5.661   8.951  3.2818  2.7568  1.4649
    4CHL1  H27C  296   4.595   5.649   8.770 -0.2010 -0.9153  0.9933
    5CHL1    C3  297   5.101   2.990  10.138 -0.5790 -0.3353 -0.1624
    5CHL1    H3  298   5.187   2.930  10.101  0.5157  0.8105  0.4234
    5CHL1    O3  299   5.106   3.013  10.279 -0.2045 -0.1320  0.5374
    5CHL1   H3'  300   5.025   3.063  10.293  0.1684  0.4156  0.7798
    5CHL1    C4  301   5.127   3.125  10.068 -0.6685  0.5937 -0.4836
    5CHL1   H4A  302   5.055   3.193  10.119 -1.0775 -0.7815  0.8754
    5CHL1   H4B  303   5.230   3.157  10.092 -0.6934 -0.5707  1.4004
    5CHL1    C5  304   5.105   3.117   9.923  0.1944  0.1572  0.0629
    5CHL1    C6  305   5.201   3.163   9.844  0.4973  0.5550 -0.6243
    5CHL1    H6  306   5.287   3.214   9.888  0.1164 -2.3774  4.2609
    5CHL1    C7  307   5.201   3.159   9.694 -0.2238 -0.8098  0.2448
    5CHL1   H7A  308   5.223   3.261   9.657  0.5279 -0.4352  1.6768
    5CHL1   H7B  309   5.286   3.094   9.664  3.0811  2.8116  0.9631
    5CHL1    C8  310   5.064   3.116   9.636 -0.5254 -0.2055 -1.0638
    5CHL1    H8  311   4.993   3.201   9.642 -0.0308  0.4291 -3.0908
    5CHL1   C14  312   5.083   3.075   9.497  0.0087  0.9259 -0.3510
    5CHL1   H14  313   5.139   2.979   9.501 -0.5429  0.6575  2.1095
    5CHL1   C15  314   5.160   3.167   9.404  0.4027 -0.4280  0.6554
    5CHL1  H15A  315   5.121   3.270   9.417  0.8476  0.0920 -1.7100
    5CHL1  H15B  316   5.268   3.169   9.428  0.6123  0.8220 -0.2747
    5CHL1   C16  317   5.120   3.125   9.261 -0.2112 -0.7413 -0.5513
    5CHL1  H16A  318   5.081   3.217   9.212  0.9736 -0.0971 -0.3135
    5CHL1  H16B  319   5.208   3.086   9.206  1.2469  0.1471  1.0735
    5CHL1   C17  320   5.016   3.011   9.278 -0.0433  0.2883  0.1644
    5CHL1   H17  321   5.067   2.913   9.291 -0.4696  0.0549  0.0978
    5CHL1   C13  322   4.955   3.035   9.419 -0.7235 -1.3725  0.3751
    5CHL1   C18  323   4.856   3.155   9.408 -0.1374  0.1982  0.4827
    5CHL1  H18A  324   4.769   3.129   9.344  0.5733 -0.9131 -0.0690
    5CHL1  H18B  325   4.824   3.195   9.507 -2.7450 -1.4609  0.3984
    5CHL1  H18C  326   4.895   3.235   9.342 -2.3749  0.8140 -0.1522
    5CHL1   C12  327   4.893   2.912   9.489 -0.0287  0.5595  0.2422
    5CHL1  H12A  328   4.799   2.875   9.442 -0.1175  1.1620 -0.0706
    5CHL1  H12B  329   4.983   2.848   9.481  0.8687  1.8218 -0.0123
    5CHL1   C11  330   4.872   2.943   9.639  0.3213 -0.5007 -0.6240
    5CHL1  H11A  331   4.786   3.014   9.645  1.5517  1.1037 -1.2843
    5CHL1  H11B  332   4.855   2.847   9.693 -3.9548  0.7993  0.7941
    5CHL1    C9  333   5.000   3.000   9.716 -0.6197  0.6372 -0.0312
    5CHL1    H9  334   5.080   2.925   9.696  3.3115  3.4154  3.4549
    5CHL1   C10  335   4.988   3.030   9.874  0.5395  0.4541  0.0890
    5CHL1   C19  336   4.863   3.120   9.884 -0.1907  0.2306 -0.7814
    5CHL1  H19A  337   4.874   3.208   9.818 -0.0603  2.4870  2.0482
    5CHL1  H19B  338   4.772   3.068   9.847  0.8696 -1.7370 -0.7632
    5CHL1  H19C  339   4.852   3.154   9.989 -3.0037  0.4813 -1.0783
    5CHL1    C1  340   4.962   2.897   9.953 -0.5287 -0.1352  0.0948
    5CHL1   H1A  341   4.856   2.868   9.933 -0.5237 -0.1961  0.1565
    5CHL1   H1B  342   5.021   2.807   9.926 -0.8853  0.2144 -2.0386
    5CHL1    C2  343   4.967   2.922  10.103 -0.0775  0.3756 -0.6407
    5CHL1   H2A  344   4.971   2.819  10.145  0.6808  0.6423 -0.0459
    5CHL1   H2B  345   4.876   2.973  10.142  1.7823  2.0939  1.7011
    5CHL1   C20  346   4.928   3.001   9.157 -0.6075  0.1147 -0.8816
    5CHL1   H20  347   4.877   3.097   9.132 -0.8940  0.3631  0.5730
    5CHL1   C21  348   4.815   2.900   9.179  0.2352  0.2118  0.1148
    5CHL1  H21A  349   4.838   2.798   9.215 -1.0672 -0.1185  0.0517
    5CHL1  H21B  350   4.767   2.902   9.078 -1.3054  1.2333  0.8439
    5CHL1  H21C  351   4.734   2.946   9.239  0.5597  1.0779 -0.0929
    5CHL1   C22  352   5.009   2.947   9.038  0.2820 -0.0597  0.2511
    5CHL1  H22A  353   5.098   3.014   9.032 -0.3217  0.9326  1.7699
    5CHL1  H22B  354   5.051   2.845   9.047  0.3572 -0.1981 -1.2944
    5CHL1   C23  355   4.947   2.961   8.904  0.4064 -0.5658  0.3620
    5CHL1  H23A  356   4.893   2.867   8.882 -0.8283  0.3398 -0.6647
    5CHL1  H23B  357   4.861   3.030   8.915 -2.0261 -2.9122 -2.2571
    5CHL1   C24  358   5.041   2.994   8.789  0.0424  0.6422  1.0976
    5CHL1  H24A  359   5.089   3.091   8.816  0.7381  1.4999 -2.6814
    5CHL1  H24B  360   5.119   2.915   8.781  2.5108  3.0946 -0.9360
    5CHL1   C25  361   4.980   3.009   8.651 -0.0380  0.0630 -0.0521
    5CHL1   H25  362   4.881   3.055   8.667 -1.3314 -2.1568 -1.1412
    5CHL1   C26  363   5.060   3.109   8.558 -0.2598  0.2661 -0.1097
    5CHL1  H26A  364   5.163   3.068   8.550 -0.9578 -1.9016  1.1737
    5CHL1  H26B  365   5.015   3.118   8.457 -1.3230  1.0350  0.4184
    5CHL1  H26C  366   5.055   3.213   8.597 -0.0702  0.6707 -1.1190
    5CHL1   C27  367   4.943   2.873   8.590  0.2289 -0.0797  0.7310
    5CHL1  H27A  368   4.884   2.814   8.664 -1.0728  1.1761  0.7376
    5CHL1  H27B  369   4.893   2.885   8.492  1.8555  0.3227 -0.0875
    5CHL1  H27C  370   5.033   2.815   8.560 -0.9352 -1.0693 -1.0831
    6CHL1    C3  371   3.740   2.066  10.211 -0.4942  0.2823  0.1957
    6CHL1    H3  372   3.816   2.003  10.159  0.4078  1.5548 -0.0730
    6CHL1    O3  373   3.764   2.069  10.350 -0.2909 -0.1251  0.3213
    6CHL1   H3'  374   3.677   2.078  10.390 -0.9966 -1.9241 -0.6846
    6CHL1    C4  375   3.746   2.199  10.139 -0.2857  0.1601  0.2304
    6CHL1   H4A  376   3.680   2.267  10.197  1.8573  1.0018  1.8033
    6CHL1   H4B  377   3.848   2.240  10.156  0.5001 -0.7039 -2.0330
    6CHL1    C5  378   3.721   2.201   9.989  0.6518  0.2541  0.0195
    6CHL1    C6  379   3.804   2.265   9.909  0.0088 -0.7223 -0.0968
    6CHL1    H6  380   3.889   2.319   9.952 -0.2060  0.5523 -1.1886
    6CHL1    C7  381   3.778   2.285   9.764 -0.3976  0.6034 -0.1133
    6CHL1   H7A  382   3.769   2.392   9.737  0.4434  0.0884 -2.6635
    6CHL1   H7B  383   3.853   2.240   9.697 -1.4502 -1.1862 -0.1546
    6CHL1    C8  384   3.638   2.230   9.713 -0.3556  0.8875  0.4813
    6CHL1    H8  385   3.562   2.308   9.736  0.3326  1.2513  1.6125
    6CHL1   C14  386   3.652   2.191   9.565 -0.4536  0.1063 -0.1281
    6CHL1   H14  387   3.721   2.105   9.560 -1.7830 -0.8964 -2.6798
    6CHL1   C15  388   3.723   2.285   9.463  0.2075  0.3279 -0.4445
    6CHL1  H15A  389   3.677   2.384   9.484 -2.0314 -0.7155 -0.1017
    6CHL1  H15B  390   3.832   2.269   9.476 -0.2400 -2.8963  0.1587
    6CHL1   C16  391   3.676   2.241   9.326  0.3453 -0.0317 -0.1965
    6CHL1  H16A  392   3.613   2.321   9.283  1.5757  2.1148  1.7840
    6CHL1  H16B  393   3.763   2.219   9.259  0.6690 -0.4305  0.3426
    6CHL1   C17  394   3.580   2.116   9.358  1.4607  0.5166 -0.3819
    6CHL1   H17  395   3.642   2.023   9.355 -0.2129 -0.6060 -1.8896
    6CHL1   C13  396   3.531   2.136   9.502  0.6298  0.3188  0.1976
    6CHL1   C18  397   3.414   2.239   9.509  0.4277 -0.1902  0.4791
    6CHL1  H18A  398   3.438   2.335   9.458 -1.0732 -0.0995 -0.0844
    6CHL1  H18B  399   3.326   2.205   9.451  0.7776 -0.5166  0.1397
    6CHL1  H18C  400   3.386   2.258   9.615 -0.8843 -1.6804  0.4224
    6CHL1   C12  401   3.483   2.009   9.590  0.7152 -0.1729  0.4113
    6CHL1  H12A  402   3.379   1.988   9.559  0.7970 -0.7534  0.5213
    6CHL1  H12B  403   3.548   1.923   9.565 -0.9031 -1.0063 -1.0329
    6CHL1   C11  404   3.477   2.038   9.741  0.6724  0.4000  0.4178
    6CHL1  H11A  405   3.390   2.106   9.752  0.3697 -0.1744  1.6959
    6CHL1  H11B  406   3.445   1.944   9.790 -0.9847  0.1375 -1.0881
    6CHL1    C9  407   3.600   2.102   9.794  0.6134 -0.4050 -0.3796
    6CHL1    H9  408   3.684   2.034   9.771  0.4569 -0.5171 -0.6097
    6CHL1   C10  409   3.593   2.130   9.948 -0.6986  0.0047  0.1370
    6CHL1   C19  410   3.474   2.220   9.984  0.3361  1.1578 -0.3399
    6CHL1  H19A  411   3.379   2.167   9.960  1.3516 -1.1131  0.3534
    6CHL1  H19B  412   3.476   2.242  10.093 -0.8425  1.7655 -0.4259
    6CHL1  H19C  413   3.478   2.318   9.932  0.2007  3.2048  3.1718
    6CHL1    C1  414   3.584   1.999  10.030 -0.4677  0.9206  0.2390
    6CHL1   H1A  415   3.491   1.945  10.004 -0.2205  0.4971  0.2218
    6CHL1   H1B  416   3.655   1.926   9.986 -2.5261 -0.6664 -0.6011
    6CHL1    C2  417   3.600   1.995  10.178 -0.4679 -0.0146  0.3902
    6CHL1   H2A  418   3.607   1.888  10.207  0.0576  0.3228  1.5377
    6CHL1   H2B  419   3.515   2.042  10.232 -0.9970  0.4797 -0.8364
    6CHL1   C20  420   3.488   2.089   9.235 -0.5873 -0.4198  0.5499
    6CHL1   H20  421   3.412   2.168   9.221 -0.7338 -0.4856  0.9680
    6CHL1   C21  422   3.415   1.956   9.262 -0.0281  0.3515  0.2386
    6CHL1  H21A  423   3.480   1.890   9.323 -0.7099  0.0620  0.6586
    6CHL1  H21B  424   3.377   1.918   9.165  0.3186 -0.0474  0.2559
    6CHL1  H21C  425   3.331   1.984   9.328 -1.7693  1.3021 -2.2235
    6CHL1   C22  426   3.575   2.063   9.112 -0.8305  0.0812 -0.4538
    6CHL1  H22A  427   3.640   2.151   9.092 -0.4697  0.2909  1.4086
    6CHL1  H22B  428   3.636   1.969   9.111  0.0903  0.6601 -0.2786
    6CHL1   C23  429   3.486   2.064   8.982 -0.2042  0.1134  0.8445
    6CHL1  H23A  430   3.427   1.971   8.993  1.1415 -0.5421  3.1329
    6CHL1  H23B  431   3.425   2.157   8.983 -0.4673 -0.0428  2.5822
    6CHL1   C24  432   3.563   2.059   8.850 -0.3585  0.3387 -1.0379
    6CHL1  H24A  433   3.597   2.164   8.834  1.6891 -0.0475  0.3691
    6CHL1  H24B  434   3.656   2.000   8.856  0.1835  1.2164 -0.4840
    6CHL1   C25  435   3.490   2.011   8.720  0.0967  1.0405  0.2909
    6CHL1   H25  436   3.460   1.906   8.738 -1.4365  1.7603  2.4139
    6CHL1   C26  437   3.364   2.088   8.691 -0.4076 -0.2475  0.5402
    6CHL1  H26A  438   3.297   2.107   8.778 -0.9924 -0.2822  0.1028
    6CHL1  H26B  439   3.392   2.192   8.665  1.6675 -0.6318  1.0559
    6CHL1  H26C  440   3.310   2.038   8.608  0.6748 -1.1755  0.3695
    6CHL1   C27  441   3.584   2.014   8.592 -0.6636 -0.1187  0.1500
    6CHL1  H27A  442   3.612   2.119   8.568 -1.3465 -0.1238 -0.7327
    6CHL1  H27B  443   3.675   1.952   8.597  0.1547  1.0699  0.3579
    6CHL1  H27C  444   3.518   1.970   8.514  0.7012 -1.2929 -0.3737
    7CHL1    C3  445   5.024   4.396  10.520 -0.2175  0.1635 -0.1624
    7CHL1    H3  446   5.012   4.285  10.515  0.4639  0.0780 -0.0952
    7CHL1    O3  447   5.011   4.436  10.654 -0.0651  0.0297  0.0962
    7CHL1   H3'  448   5.098   4.414  10.689 -0.4938 -4.0011 -0.8831
    7CHL1    C4  449   5.157   4.450  10.464  0.0396  0.1662 -0.2506
    7CHL1   H4A  450   5.174   4.557  10.487  3.1050 -0.3309  0.1646
    7CHL1   H4B  451   5.243   4.406  10.518 -0.7594 -0.3792  0.6179
    7CHL1    C5  452   5.173   4.432  10.313 -0.3474 -0.5197  0.9910
    7CHL1    C6  453   5.275   4.366  10.258  0.6243 -0.6683  0.2046
    7CHL1    H6  454   5.365   4.352  10.319  1.0996 -1.8127 -0.7013
    7CHL1    C7  455   5.298   4.362  10.105 -0.2201 -0.0592 -0.0127
    7CHL1   H7A  456   5.402   4.390  10.078 -0.1464 -0.0958  0.2279
    7CHL1   H7B  457   5.295   4.256  10.071  0.8249  0.7253 -2.7770
    7CHL1    C8  458   5.198   4.448  10.026  0.6674  0.6492  0.4352
    7CHL1    H8  459   5.241   4.551  10.024  1.8772  0.1860  1.3385
    7CHL1   C14  460   5.196   4.393   9.885  0.6556 -0.7296  0.4145
    7CHL1   H14  461   5.153   4.291   9.897 -2.1658  0.3667  0.3024
    7CHL1   C15  462   5.325   4.393   9.810 -0.0339 -0.4198 -0.3232
    7CHL1  H15A  463   5.383   4.486   9.831 -0.5788 -0.3507  0.9818
    7CHL1  H15B  464   5.379   4.308   9.855 -2.1025 -1.0438  1.1556
    7CHL1   C16  465   5.283   4.368   9.665  0.2054 -1.1037  0.2444
    7CHL1  H16A  466   5.350   4.437   9.609  1.0266 -0.6351  1.7277
    7CHL1  H16B  467   5.310   4.267   9.628  3.0346 -0.1810 -0.4997
    7CHL1   C17  468   5.135   4.399   9.657 -0.0435 -0.7360 -0.6202
    7CHL1   H17  469   5.086   4.299   9.655  0.1019 -0.8034 -1.0316
    7CHL1   C13  470   5.104   4.473   9.785 -0.6725  0.2676 -0.1615
    7CHL1   C18  471   5.143   4.618   9.780 -0.5469  0.0953 -0.3958
    7CHL1  H18A  472   5.064   4.679   9.731 -0.7139  0.5219  0.3816
    7CHL1  H18B  473   5.143   4.666   9.881 -0.0942 -1.2423  0.2552
    7CHL1  H18C  474   5.240   4.636   9.730 -0.7282  0.9634 -0.4554
    7CHL1   C12  475   4.962   4.455   9.841  1.1653  0.6052 -0.1234
    7CHL1  H12A  476   4.889   4.516   9.784  1.2560  2.1716  1.3591
    7CHL1  H12B  477   4.931   4.349   9.833 -2.3869  1.4952  0.0609
    7CHL1   C11  478   4.956   4.505   9.986  0.2111  0.0392 -0.1692
    7CHL1  H11A  479   4.964   4.616   9.994 -1.8276  0.1903  0.3692
    7CHL1  H11B  480   4.850   4.483  10.010  1.2455 -3.7130  1.6564
    7CHL1    C9  481   5.058   4.441  10.085  0.4162  0.0007  0.2781
    7CHL1    H9  482   5.033   4.333  10.090 -0.3999  0.0368 -1.9326
    7CHL1   C10  483   5.051   4.491  10.231  0.1166  0.0946  0.0901
    7CHL1   C19  484   5.063   4.652  10.234 -0.6536 -0.2298  0.1298
    7CHL1  H19A  485   5.091   4.680  10.337 -0.7456 -2.0417  0.6750
    7CHL1  H19B  486   5.146   4.686  10.168 -1.1302  1.5882  0.3983
    7CHL1  H19C  487   4.971   4.703  10.196 -0.0730 -0.8220 -2.2506
    7CHL1    C1  488   4.928   4.433  10.298  0.4524 -0.3256  0.3977
    7CHL1   H1A  489   4.845   4.488  10.250  0.8073  1.4904  1.7590
    7CHL1   H1B  490   4.906   4.325  10.283 -1.2347 -0.9691  5.5579
    7CHL1    C2  491   4.912   4.462  10.444  0.0233 -0.2340  0.4357
    7CHL1   H2A  492   4.816   4.441  10.497  0.8532  1.2654  2.6598
    7CHL1   H2B  493   4.932   4.570  10.456  0.1248  0.0356 -1.7711
    7CHL1   C20  494   5.099   4.469   9.520 -0.0685 -0.3225  0.0544
    7CHL1   H20  495   5.150   4.568   9.512 -0.6567  0.0382  0.5942
    7CHL1   C21  496   4.942   4.483   9.517 -0.8712 -0.3030  0.0570
    7CHL1  H21A  497   4.900   4.550   9.595 -0.6477 -1.8352  1.5488
    7CHL1  H21B  498   4.902   4.379   9.518  1.4304 -1.2789 -1.0446
    7CHL1  H21C  499   4.908   4.527   9.421 -3.1594  1.0999  1.4082
    7CHL1   C22  500   5.147   4.390   9.400  0.8267  0.3119 -0.1948
    7CHL1  H22A  501   5.252   4.355   9.410  0.2248 -1.7823 -0.7036
    7CHL1  H22B  502   5.080   4.301   9.398  0.8953  0.2709 -1.0874
    7CHL1   C23  503   5.131   4.463   9.267  0.3981 -0.1623 -0.0215
    7CHL1  H23A  504   5.026   4.493   9.245  0.8942  0.7560 -1.2510
    7CHL1  H23B  505   5.195   4.554   9.272 -0.3927  0.5481 -1.8962
    7CHL1   C24  506   5.181   4.361   9.160  0.2056 -0.4653  0.5046
    7CHL1  H24A  507   5.279   4.316   9.189  1.4332  2.0333  0.4929
    7CHL1  H24B  508   5.103   4.284   9.143  2.8220 -2.8176 -2.1872
    7CHL1   C25  509   5.219   4.428   9.027  0.3102  0.4141  0.4911
    7CHL1   H25  510   5.144   4.501   8.991 -1.0157 -1.2247 -0.1660
    7CHL1   C26  511   5.355   4.501   9.020 -0.2087  0.2153  0.1031
    7CHL1  H26A  512   5.384   4.564   9.107  0.9517 -0.1934  0.0349
    7CHL1  H26B  513   5.435   4.423   9.015 -0.7167 -0.2457 -1.3461
    7CHL1  H26C  514   5.376   4.574   8.939  1.3287  0.9455  1.0989
    7CHL1   C27  515   5.221   4.323   8.912  0.2032 -0.0454  0.2432
    7CHL1  H27A  516   5.285   4.242   8.952 -0.7967 -0.6551  0.6564
    7CHL1  H27B  517   5.120   4.289   8.881 -0.4089  2.4137 -0.7053
    7CHL1  H27C  518   5.268   4.366   8.822  0.0979  2.2463  1.1995
    8CHL1    C3  519   6.274   6.044  10.397 -0.2807  1.1635  0.7421
    8CHL1    H3  520   6.379   6.049  10.362 -0.3721  2.6200  0.6056
    8CHL1    O3  521   6.285   6.039  10.541  0.9996 -0.3447  0.0310
    8CHL1   H3'  522   6.195   6.044  10.573  0.9025 -1.9014  0.0636
    8CHL1    C4  523   6.197   6.169  10.351  0.2202  1.0829  0.2785
    8CHL1   H4A  524   6.098   6.158  10.398  0.0604  0.2826 -0.2195
    8CHL1   H4B  525   6.247   6.260  10.391  2.0348 -0.3330  1.4021
    8CHL1    C5  526   6.177   6.174  10.199  0.1117 -0.8063  0.6985
    8CHL1    C6  527   6.221   6.277  10.123  0.0443 -0.8747  0.1359
    8CHL1    H6  528   6.252   6.368  10.177  0.8690  0.3754 -2.2988
    8CHL1    C7  529   6.205   6.290   9.973  0.0160 -0.1153  0.0105
    8CHL1   H7A  530   6.155   6.386   9.948 -0.2585 -0.3773 -0.4609
    8CHL1   H7B  531   6.300   6.283   9.915 -1.0822 -0.1553 -1.8813
    8CHL1    C8  532   6.115   6.176   9.914  0.6581  0.2643  0.2230
    8CHL1    H8  533   6.015   6.223   9.930  0.0747 -1.0549  0.5757
    8CHL1   C14  534   6.136   6.160   9.772  0.5211  0.3158  0.3517
    8CHL1   H14  535   6.236   6.112   9.772 -0.5765 -2.1589 -0.9541
    8CHL1   C15  536   6.140   6.295   9.686 -0.7771 -0.0049 -0.0486
    8CHL1  H15A  537   6.055   6.363   9.707 -1.7065 -0.9749 -0.5427
    8CHL1  H15B  538   6.237   6.344   9.705 -0.5214 -1.2599  2.1592
    8CHL1   C16  539   6.144   6.236   9.544  0.2629  1.0850 -0.4228
    8CHL1  H16A  540   6.070   6.284   9.476  0.7367  1.1890 -0.8654
    8CHL1  H16B  541   6.251   6.254   9.520  0.1816 -0.5062 -2.2107
    8CHL1   C17  542   6.112   6.083   9.545 -0.5730 -0.2152 -0.4788
    8CHL1   H17  543   6.212   6.034   9.548 -1.4954 -2.1481  0.1033
    8CHL1   C13  544   6.053   6.061   9.690  0.2119 -0.2377  0.1169
    8CHL1   C18  545   5.899   6.109   9.694 -0.1153 -0.6484 -0.2915
    8CHL1  H18A  546   5.831   6.043   9.635 -1.9043  1.0521 -0.2205
    8CHL1  H18B  547   5.865   6.079   9.795 -0.2092 -1.8344 -0.6644
    8CHL1  H18C  548   5.874   6.216   9.683  1.0758 -0.3120  0.0662
    8CHL1   C12  549   6.063   5.922   9.763  0.0828  0.0299 -0.2517
    8CHL1  H12A  550   5.988   5.847   9.728 -0.1556  0.3379 -0.4045
    8CHL1  H12B  551   6.167   5.883   9.751 -0.3726 -1.7084  1.0255
    8CHL1   C11  552   6.033   5.934   9.918  0.2199 -0.2241  0.4176
    8CHL1  H11A  553   5.923   5.941   9.934  0.0013 -0.9806 -0.6481
    8CHL1  H11B  554   6.061   5.839   9.969  0.8466  0.5616  1.5928
    8CHL1    C9  555   6.121   6.046   9.983 -0.4461 -0.1624 -0.7032
    8CHL1    H9  556   6.221   6.007   9.952 -0.4946 -0.5941 -0.3322
    8CHL1   C10  557   6.114   6.048  10.138 -0.0323  0.0723 -0.5733
    8CHL1   C19  558   5.967   6.043  10.190 -0.3032  1.1684  0.1026
    8CHL1  H19A  559   5.952   6.048  10.300 -0.5537  0.5361  0.0962
    8CHL1  H19B  560   5.902   6.119  10.141 -1.2860  0.9988  1.1172
    8CHL1  H19C  561   5.937   5.942  10.155 -0.3857  1.6034 -1.1444
    8CHL1    C1  562   6.189   5.929  10.192  0.6514 -0.1040 -0.1442
    8CHL1   H1A  563   6.132   5.841  10.156 -0.7294  0.6631  0.1187
    8CHL1   H1B  564   6.291   5.931  10.148  1.4301 -0.3797  1.5517
    8CHL1    C2  565   6.202   5.925  10.346 -0.2768 -0.3928 -0.1629
    8CHL1   H2A  566   6.261   5.842  10.391  1.8392  0.2885 -1.5538
    8CHL1   H2B  567   6.098   5.927  10.384  0.0768  0.7744  0.8002
    8CHL1   C20  568   6.036   6.028   9.420  0.7255 -0.4195 -0.1069
    8CHL1   H20  569   5.937   6.078   9.409  1.0957  1.0132  2.3672
    8CHL1   C21  570   5.998   5.874   9.441  0.0916 -0.1510  0.0563
    8CHL1  H21A  571   5.929   5.865   9.527  0.8782 -0.1760  0.6979
    8CHL1  H21B  572   6.092   5.816   9.455  1.0198  1.3211  0.2207
    8CHL1  H21C  573   5.935   5.853   9.352 -0.8581  1.9076  0.1801
    8CHL1   C22  574   6.111   6.052   9.290  0.2602 -0.5219 -0.4398
    8CHL1  H22A  575   6.125   6.160   9.269 -1.4307 -0.3052 -0.6142
    8CHL1  H22B  576   6.211   6.004   9.285  2.3699  3.4939 -2.2258
    8CHL1   C23  577   6.027   5.995   9.168 -0.4448  0.7875  0.8481
    8CHL1  H23A  578   6.036   5.884   9.166  1.2381  0.9092  0.0067
    8CHL1  H23B  579   5.923   6.031   9.155 -0.9673 -0.6130  0.9267
    8CHL1   C24  580   6.089   6.031   9.030  0.0838  0.6397  0.5845
    8CHL1  H24A  581   6.095   6.142   9.024  1.4458  0.5583 -0.0762
    8CHL1  H24B  582   6.190   5.985   9.022 -0.8084 -1.2410 -0.5250
    8CHL1   C25  583   6.006   6.006   8.904  0.3267  0.6206 -0.0379
    8CHL1   H25  584   5.920   6.075   8.902 -0.9795 -0.9573 -1.8952
    8CHL1   C26  585   6.102   6.023   8.785 -0.5683  0.2705 -0.3788
    8CHL1  H26A  586   6.119   6.132   8.773 -1.2510  0.4324  0.0621
    8CHL1  H26B  587   6.198   5.969   8.802 -1.7297 -1.9824 -0.5896
    8CHL1  H26C  588   6.069   5.983   8.687  2.0051 -2.2077 -0.3620
    8CHL1   C27  589   5.939   5.859   8.891  0.3416  0.6181  0.4138
    8CHL1  H27A  590   5.900   5.837   8.789 -0.6236 -0.2223  0.9382
    8CHL1  H27B  591   6.012   5.780   8.920  0.5107  1.4403  2.3692
    8CHL1  H27C  592   5.860   5.852   8.969  0.4899 -0.0449  0.5137
    9CHL1    C3  593   2.303   2.368  10.243  0.3014 -0.9126  0.2538
    9CHL1    H3  594   2.326   2.259  10.239  4.3394 -0.2005 -0.9654
    9CHL1    O3  595   2.255   2.404  10.373  0.0916  0.1509  0.0230
    9CHL1   H3'  596   2.278   2.330  10.429  2.2878 -0.5378 -1.6758
    9CHL1    C4  597   2.432   2.445  10.204  0.2673  0.1207  0.6013
    9CHL1   H4A  598   2.404   2.550  10.224  1.0541 -0.0511  2.8693
    9CHL1   H4B  599   2.510   2.425  10.281  0.0395 -2.1025  0.3439
    9CHL1    C5  600   2.481   2.404  10.066 -0.5823 -0.4325 -0.4015
    9CHL1    C6  601   2.605   2.352  10.035  0.7870 -0.1797  0.4037
    9CHL1    H6  602   2.673   2.342  10.121 -0.8688 -0.2707  1.7576
    9CHL1    C7  603   2.660   2.315   9.903  0.4660  0.2229  0.7350
    9CHL1   H7A  604   2.748   2.383   9.897 -0.1021  0.8471 -0.8838
    9CHL1   H7B  605   2.683   2.207   9.896 -1.4267 -0.1111 -1.7172
    9CHL1    C8  606   2.566   2.362   9.787  0.3447 -0.1330 -0.7515
    9CHL1    H8  607   2.589   2.468   9.768 -1.0096 -0.2824 -3.6302
    9CHL1   C14  608   2.593   2.297   9.654 -0.1795  0.6632 -0.6380
    9CHL1   H14  609   2.567   2.194   9.687  0.3567  0.9713  0.8234
    9CHL1   C15  610   2.743   2.294   9.602 -0.1642  0.0585 -0.1061
    9CHL1  H15A  611   2.792   2.392   9.619 -1.1485  0.4556  0.4690
    9CHL1  H15B  612   2.799   2.213   9.653 -1.7564 -1.3390 -0.4888
    9CHL1   C16  613   2.726   2.276   9.450 -0.8611  0.5835 -0.1674
    9CHL1  H16A  614   2.777   2.362   9.401 -0.4831 -1.3509 -3.4779
    9CHL1  H16B  615   2.784   2.183   9.428 -0.1063  0.9585  0.1646
    9CHL1   C17  616   2.575   2.262   9.420 -0.4810 -0.1086 -0.1793
    9CHL1   H17  617   2.552   2.155   9.439 -1.8113  0.5268  2.1568
    9CHL1   C13  618   2.506   2.338   9.535  0.5478  0.0217 -1.0483
    9CHL1   C18  619   2.526   2.498   9.515 -0.3960 -0.5946 -0.3106
    9CHL1  H18A  620   2.456   2.532   9.436 -0.7563  2.4770  1.1814
    9CHL1  H18B  621   2.494   2.563   9.599  0.6121  0.4119 -0.6859
    9CHL1  H18C  622   2.628   2.516   9.475 -0.5411 -0.9583 -0.8675
    9CHL1   C12  623   2.361   2.300   9.572 -0.0345  0.0727  0.2146
    9CHL1  H12A  624   2.281   2.325   9.499 -1.6130  3.1461  2.7412
    9CHL1  H12B  625   2.358   2.189   9.573 -0.8971  0.0655 -0.8096
    9CHL1   C11  626   2.316   2.370   9.706 -0.0148 -0.5762  0.1632
    9CHL1  H11A  627   2.298   2.477   9.682  0.6473 -0.1112  1.6332
    9CHL1  H11B  628   2.215   2.331   9.731 -0.4057  1.3810  1.9060
    9CHL1    C9  629   2.413   2.354   9.829  0.0566 -1.0640 -0.7965
    9CHL1    H9  630   2.402   2.245   9.848  0.0347 -0.4927  3.3928
    9CHL1   C10  631   2.367   2.424   9.957 -0.0859 -0.2884  0.1918
    9CHL1   C19  632   2.354   2.575   9.933  0.6091 -0.2929  0.5034
    9CHL1  H19A  633   2.305   2.619  10.023 -3.2351 -3.5479  0.3297
    9CHL1  H19B  634   2.439   2.625   9.883 -1.0507  0.6675 -1.5155
    9CHL1  H19C  635   2.264   2.594   9.870  0.6889  0.3364  0.5773
    9CHL1    C1  636   2.232   2.368  10.011 -0.5512  0.3894  0.1157
    9CHL1   H1A  637   2.161   2.417   9.942  0.3883  1.1293 -0.3598
    9CHL1   H1B  638   2.223   2.258   9.999 -0.5564  0.3036  0.8696
    9CHL1    C2  639   2.189   2.404  10.148  0.0738 -0.3378 -0.2692
    9CHL1   H2A  640   2.094   2.347  10.160  1.5536 -3.0785 -0.8406
    9CHL1   H2B  641   2.173   2.511  10.172  3.3891  0.0031  0.9136
    9CHL1   C20  642   2.548   2.299   9.270 -0.0459 -0.2687  0.4346
    9CHL1   H20  643   2.511   2.403   9.265  0.2085 -0.2451 -1.5029
    9CHL1   C21  644   2.427   2.211   9.236  0.1190 -0.2637 -0.0968
    9CHL1  H21A  645   2.347   2.226   9.311  1.3436 -1.3932  1.5256
    9CHL1  H21B  646   2.467   2.108   9.222 -0.8570 -0.5519 -0.9257
    9CHL1  H21C  647   2.389   2.241   9.136  1.3277 -0.2099 -0.5610
    9CHL1   C22  648   2.659   2.272   9.156 -0.0209  0.4326 -0.4201
    9CHL1  H22A  649   2.747   2.333   9.187 -2.3889  3.7482  0.2955
    9CHL1  H22B  650   2.676   2.162   9.158  0.2282  0.4811  0.4163
    9CHL1   C23  651   2.620   2.310   9.013 -0.0208  0.2987 -0.2009
    9CHL1  H23A  652   2.701   2.280   8.943  0.5948  0.5866  0.3903
    9CHL1  H23B  653   2.526   2.259   8.981  0.5568 -1.1517  0.3566
    9CHL1   C24  654   2.591   2.453   8.987  0.0829 -0.5524  0.2577
    9CHL1  H24A  655   2.497   2.483   9.039  1.9090  3.1596  1.7954
    9CHL1  H24B  656   2.677   2.507   9.032  0.2103  1.9540 -2.7410
    9CHL1   C25  657   2.587   2.496   8.836  0.2170 -0.1050 -0.3867
    9CHL1   H25  658   2.520   2.585   8.833  1.3551  0.8616  1.5860
    9CHL1   C26  659   2.720   2.563   8.782  0.9353  0.8467  0.1493
    9CHL1  H26A  660   2.809   2.497   8.797  0.2646 -1.5145 -4.3772
    9CHL1  H26B  661   2.718   2.568   8.671 -0.5130 -0.8057  0.0523
    9CHL1  H26C  662   2.725   2.664   8.828 -0.4897  1.4864 -1.0348
    9CHL1   C27  663   2.544   2.387   8.733 -0.3327  0.0812 -0.7230
    9CHL1  H27A  664   2.521   2.434   8.635  1.2714  1.0359 -0.6828
    9CHL1  H27B  665   2.624   2.312   8.715 -1.1960 -1.0876  0.1525
    9CHL1  H27C  666   2.450   2.337   8.765 -0.6877 -0.0101 -1.8786
   10CHL1    C3  667   1.672   5.743  10.133 -0.3386  0.7658  0.1809
   10CHL1    H3  668   1.693   5.634  10.132 -0.7178  0.5743 -3.7871
   10CHL1    O3  669   1.640   5.786  10.266  0.2716 -0.3090 -0.0569
   10CHL1   H3'  670   1.654   5.881  10.266  2.6865 -0.5859  1.2528
   10CHL1    C4  671   1.802   5.808  10.080 -0.5926 -0.7098  0.1767
   10CHL1   H4A  672   1.803   5.919  10.090  0.3420 -0.8550  2.3945
   10CHL1   H4B  673   1.878   5.763  10.147 -0.8013 -0.2779  0.7181
   10CHL1    C5  674   1.832   5.773   9.935 -0.0760 -0.2604  0.1188
   10CHL1    C6  675   1.944   5.708   9.889 -0.1269 -0.5022  0.1975
   10CHL1    H6  676   2.025   5.678   9.957 -2.2545 -0.1242  3.1240
   10CHL1    C7  677   1.975   5.689   9.743 -0.0682  0.4205  0.1017
   10CHL1   H7A  678   2.083   5.687   9.718 -0.1256  1.4372 -0.2927
   10CHL1   H7B  679   1.947   5.584   9.722 -0.0779  0.3520  0.4452
   10CHL1    C8  680   1.890   5.774   9.650  0.7666 -0.2935  0.2141
   10CHL1    H8  681   1.931   5.876   9.665  0.8291 -0.2860 -0.0026
   10CHL1   C14  682   1.901   5.718   9.510 -0.1794  0.0166  0.3404
   10CHL1   H14  683   1.861   5.615   9.498 -1.2740  0.3657  0.8406
   10CHL1   C15  684   2.041   5.727   9.448  0.1575  0.5248 -0.8107
   10CHL1  H15A  685   2.077   5.829   9.476 -0.8747  1.3321 -2.2682
   10CHL1  H15B  686   2.112   5.651   9.485 -0.4554  0.9944  1.4742
   10CHL1   C16  687   2.023   5.728   9.300  0.3154 -0.3089  0.4213
   10CHL1  H16A  688   2.090   5.805   9.256 -1.1414 -0.2603 -1.9206
   10CHL1  H16B  689   2.051   5.631   9.253 -1.2881 -0.4529 -0.3362
   10CHL1   C17  690   1.870   5.742   9.277 -0.3284 -0.2218 -0.0102
   10CHL1   H17  691   1.823   5.643   9.264 -0.5199 -0.3018  1.1862
   10CHL1   C13  692   1.810   5.796   9.407  0.2351 -0.2097  0.0385
   10CHL1   C18  693   1.846   5.952   9.417 -0.2273 -0.2535  0.1143
   10CHL1  H18A  694   1.795   6.007   9.335  1.0789  1.6616  0.5076
   10CHL1  H18B  695   1.813   5.995   9.514 -0.3861 -0.5217  0.1775
   10CHL1  H18C  696   1.956   5.967   9.406 -0.4881  1.2380 -0.9012
   10CHL1   C12  697   1.666   5.771   9.441 -0.3671 -0.3874 -1.0576
   10CHL1  H12A  698   1.597   5.828   9.375  1.9721  0.6214 -2.7800
   10CHL1  H12B  699   1.643   5.662   9.435 -2.0919 -0.1784  0.8928
   10CHL1   C11  700   1.637   5.814   9.587 -0.3999 -0.0561 -0.7466
   10CHL1  H11A  701   1.623   5.924   9.596  0.3269  0.2229 -2.5731
   10CHL1  H11B  702   1.536   5.771   9.604 -0.3513  0.2212  0.2965
   10CHL1    C9  703   1.743   5.761   9.694 -0.5023  0.0820 -0.0092
   10CHL1    H9  704   1.727   5.651   9.704 -0.0117  0.0717  0.7260
   10CHL1   C10  705   1.724   5.814   9.837  0.1701  0.1283 -0.7691
   10CHL1   C19  706   1.713   5.967   9.834 -0.7916  0.0498 -0.7095
   10CHL1  H19A  707   1.698   6.015   9.933  2.3145  0.6154 -0.3950
   10CHL1  H19B  708   1.792   6.021   9.777  0.6761  1.2919  2.2830
   10CHL1  H19C  709   1.614   5.995   9.792 -1.5936  1.5583  1.9774
   10CHL1    C1  710   1.586   5.752   9.885 -0.1324 -0.1490  0.0062
   10CHL1   H1A  711   1.500   5.784   9.823 -0.1026  2.3879  1.1531
   10CHL1   H1B  712   1.582   5.641   9.880 -1.4739 -0.0792 -1.3051
   10CHL1    C2  713   1.562   5.787  10.034 -0.1369  0.4538  0.3646
   10CHL1   H2A  714   1.478   5.727  10.076 -0.0183  0.7314  1.0174
   10CHL1   H2B  715   1.544   5.896  10.047  0.6933  0.6479 -0.0142
   10CHL1   C20  716   1.845   5.829   9.150 -0.1427 -0.3597  0.3830
   10CHL1   H20  717   1.879   5.932   9.168  0.0831 -0.6216  1.5135
   10CHL1   C21  718   1.690   5.826   9.122  0.3708  0.4989 -0.1295
   10CHL1  H21A  719   1.650   5.723   9.134 -2.7248  1.5521 -0.3329
   10CHL1  H21B  720   1.649   5.877   9.032 -1.2733  1.3568  1.0471
   10CHL1  H21C  721   1.632   5.880   9.201 -3.7194 -1.2490 -1.6627
   10CHL1   C22  722   1.921   5.783   9.024 -0.6034  0.0457 -0.3251
   10CHL1  H22A  723   2.031   5.787   9.041 -0.7203  1.1062  0.2711
   10CHL1  H22B  724   1.894   5.679   8.997  1.0497 -0.2795 -0.8627
   10CHL1   C23  725   1.889   5.866   8.899  0.2186 -0.1196  0.0788
   10CHL1  H23A  726   1.784   5.834   8.880  0.2926 -0.4293  0.1780
   10CHL1  H23B  727   1.882   5.972   8.930  1.6442  0.4357 -1.3586
   10CHL1   C24  728   1.983   5.838   8.786  0.4140  0.0091 -0.0106
   10CHL1  H24A  729   2.075   5.890   8.817  0.7001  1.0076 -2.3523
   10CHL1  H24B  730   2.006   5.729   8.789 -0.2945 -0.1324  0.8436
   10CHL1   C25  731   1.941   5.868   8.646 -0.0251 -0.1014  0.0634
   10CHL1   H25  732   1.851   5.807   8.621  0.4006 -0.9962  0.6656
   10CHL1   C26  733   1.909   6.016   8.612 -0.0171 -0.5509  0.5496
   10CHL1  H26A  734   1.904   6.036   8.503 -0.5762  1.3812  0.8852
   10CHL1  H26B  735   1.810   6.055   8.643 -1.1974 -0.6121 -2.8351
   10CHL1  H26C  736   1.981   6.089   8.656 -1.8885  1.4827  0.4234
   10CHL1   C27  737   2.042   5.808   8.544  0.4110 -0.5950  0.1712
   10CHL1  H27A  738   2.138   5.863   8.534  0.4301 -0.7333 -0.4294
   10CHL1  H27B  739   2.055   5.697   8.546 -0.8507 -0.7583  0.1794
   10CHL1  H27C  740   1.992   5.817   8.445 -0.4057  0.4247  0.6677
   11CHL1    C3  741   3.754   3.780  10.163 -0.8546 -0.4141 -0.3454
   11CHL1    H3  742   3.857   3.742  10.179  0.6434  3.9718  1.9519
   11CHL1    O3  743   3.691   3.798  10.289  0.2872 -0.1869  0.4417
   11CHL1   H3'  744   3.702   3.891  10.310  2.6163 -0.3939  0.4374
   11CHL1    C4  745   3.777   3.921  10.098 -0.3437 -0.4102  0.7274
   11CHL1   H4A  746   3.679   3.973  10.104 -0.5548 -0.6245 -0.6296
   11CHL1   H4B  747   3.844   3.984  10.160  0.9176 -0.6172 -0.3761
   11CHL1    C5  748   3.823   3.912   9.956  0.2555 -0.2467 -0.7314
   11CHL1    C6  749   3.932   3.977   9.918 -0.0631  0.4061 -0.3354
   11CHL1    H6  750   3.980   4.042   9.993 -2.4466  1.0028  0.7940
   11CHL1    C7  751   3.987   3.984   9.781 -0.8039  0.1811  0.4447
   11CHL1   H7A  752   3.998   4.093   9.760  0.6849 -0.0379 -0.0800
   11CHL1   H7B  753   4.089   3.939   9.772 -0.5445  0.7419  0.5044
   11CHL1    C8  754   3.883   3.934   9.678  0.6758  0.1317  0.6974
   11CHL1    H8  755   3.804   4.012   9.673  0.7363  0.1962  0.7386
   11CHL1   C14  756   3.933   3.909   9.535  0.8624  0.9076  0.9685
   11CHL1   H14  757   4.007   3.828   9.552  0.7384  0.3654 -0.8688
   11CHL1   C15  758   4.011   4.020   9.456 -0.5262 -1.1587  0.9840
   11CHL1  H15A  759   3.952   4.114   9.458  0.0505 -0.7195 -0.9197
   11CHL1  H15B  760   4.113   4.027   9.498 -0.4763 -0.5107  0.7713
   11CHL1   C16  761   4.006   3.983   9.308  0.6367  0.5270  0.8871
   11CHL1  H16A  762   3.966   4.062   9.241 -0.5458 -0.5636  0.2643
   11CHL1  H16B  763   4.104   3.966   9.258 -0.8256  0.6891 -2.3135
   11CHL1   C17  764   3.922   3.850   9.297 -0.1740  0.2278  0.3454
   11CHL1   H17  765   3.992   3.766   9.319 -0.9473 -0.3326  0.6731
   11CHL1   C13  766   3.835   3.854   9.426 -0.3696  1.1699 -0.3417
   11CHL1   C18  767   3.714   3.948   9.399 -0.4791 -0.7287 -0.2256
   11CHL1  H18A  768   3.643   3.909   9.322  0.8516  0.6921 -2.2524
   11CHL1  H18B  769   3.661   3.968   9.495 -0.5846  0.2398 -0.4683
   11CHL1  H18C  770   3.742   4.046   9.356 -0.1821 -0.2895  0.9141
   11CHL1   C12  771   3.791   3.715   9.480 -0.0102 -0.5040  0.5810
   11CHL1  H12A  772   3.715   3.670   9.413 -0.3749  0.3764  0.3826
   11CHL1  H12B  773   3.865   3.634   9.495 -1.0257 -1.4387  0.6623
   11CHL1   C11  774   3.724   3.732   9.618 -0.2793  1.0740 -0.3433
   11CHL1  H11A  775   3.625   3.778   9.598 -0.4841  1.0530  0.5863
   11CHL1  H11B  776   3.701   3.631   9.657  0.5842  0.3348 -1.6641
   11CHL1    C9  777   3.816   3.806   9.730 -0.0453 -0.1138 -0.0592
   11CHL1    H9  778   3.903   3.739   9.746 -0.8408 -1.1191  0.1581
   11CHL1   C10  779   3.743   3.818   9.863  0.9232 -1.3118  0.6980
   11CHL1   C19  780   3.604   3.890   9.836  0.2588 -0.1761 -0.1513
   11CHL1  H19A  781   3.630   3.988   9.791  3.0182  0.4033  2.3912
   11CHL1  H19B  782   3.535   3.829   9.773 -0.0914 -0.7557  0.7789
   11CHL1  H19C  783   3.546   3.904   9.929 -1.1460  0.8490 -1.1369
   11CHL1    C1  784   3.728   3.680   9.924 -0.5939  0.1013  0.4087
   11CHL1   H1A  785   3.663   3.607   9.871  2.6854 -2.3294 -0.5905
   11CHL1   H1B  786   3.831   3.637   9.929  1.1920  2.8777 -4.8039
   11CHL1    C2  787   3.673   3.687  10.067 -0.3607  0.2170 -0.7072
   11CHL1   H2A  788   3.674   3.586  10.112  1.5036  0.8768  0.8336
   11CHL1   H2B  789   3.570   3.726  10.056 -0.3587 -0.2719 -3.1004
   11CHL1   C20  790   3.859   3.828   9.161 -0.5938 -0.0907  0.1711
   11CHL1   H20  791   3.760   3.878   9.155 -1.1362 -0.8853  1.8484
   11CHL1   C21  792   3.834   3.673   9.135  0.2313 -0.6897 -0.1682
   11CHL1  H21A  793   3.755   3.663   9.057 -0.9820  0.4805  0.8646
   11CHL1  H21B  794   3.782   3.621   9.219  0.8661 -1.1009 -0.0274
   11CHL1  H21C  795   3.927   3.619   9.109  1.1052  0.2603  0.8944
   11CHL1   C22  796   3.937   3.876   9.037 -0.1025  0.0128 -0.1955
   11CHL1  H22A  797   3.995   3.967   9.061 -1.7246  1.0107  0.0830
   11CHL1  H22B  798   4.020   3.804   9.019  1.8321  1.9402  0.5694
   11CHL1   C23  799   3.846   3.910   8.919  0.7171 -0.5379 -0.6386
   11CHL1  H23A  800   3.777   3.833   8.878 -2.1859  2.2506 -1.3812
   11CHL1  H23B  801   3.783   3.990   8.964  0.7490 -0.8314 -0.0643
   11CHL1   C24  802   3.907   3.973   8.797 -0.4553 -0.6049 -0.1725
   11CHL1  H24A  803   3.826   4.017   8.734 -0.8869 -0.6657  0.3382
   11CHL1  H24B  804   3.968   4.062   8.825 -2.6166  0.4574  1.4717
   11CHL1   C25  805   3.999   3.886   8.702 -0.3436 -0.1231 -0.0422
   11CHL1   H25  806   4.091   3.868   8.762 -0.8445  0.8175  1.0515
   11CHL1   C26  807   3.941   3.754   8.647 -0.2571 -0.4168 -0.4662
   11CHL1  H26A  808   4.021   3.693   8.600 -1.1139 -2.3055  0.4218
   11CHL1  H26B  809   3.899   3.686   8.723 -0.4138  0.7572  0.5312
   11CHL1  H26C  810   3.872   3.768   8.561  0.3410 -0.0387 -0.8933
   11CHL1   C27  811   4.042   3.965   8.577  0.3347 -0.3856  0.0884
   11CHL1  H27A  812   4.085   4.064   8.601  2.2818 -1.5307  1.7359
   11CHL1  H27B  813   4.115   3.910   8.514  1.3310  1.4846 -0.4663
   11CHL1  H27C  814   3.952   3.987   8.518 -0.5235  0.7070  1.7256
   12CHL1    C3  815   0.482   5.353  10.276 -0.1736 -0.4022 -0.3728
   12CHL1    H3  816   0.416   5.264  10.280 -1.2569  0.1560 -3.3715
   12CHL1    O3  817   0.464   5.432  10.386  0.5411 -0.3036 -0.0010
   12CHL1   H3'  818   0.546   5.480  10.403  0.9535 -1.4584  1.4778
   12CHL1    C4  819   0.630   5.297  10.267 -0.2696 -0.1646 -0.1572
   12CHL1   H4A  820   0.694   5.387  10.276  1.0784 -1.0299 -0.7322
   12CHL1   H4B  821   0.646   5.230  10.354  0.2430 -0.9852 -0.8697
   12CHL1    C5  822   0.661   5.235  10.136 -0.5228  0.0268  0.4975
   12CHL1    C6  823   0.702   5.113  10.120 -0.0926 -0.1597  0.6685
   12CHL1    H6  824   0.712   5.052  10.211 -0.2195  0.6855  1.2576
   12CHL1    C7  825   0.732   5.036   9.992  0.4253 -0.5715 -0.5949
   12CHL1   H7A  826   0.819   4.968  10.000  0.6481 -0.1723  0.5827
   12CHL1   H7B  827   0.642   4.974   9.974  0.1441 -0.6308  0.8772
   12CHL1    C8  828   0.751   5.127   9.872  0.2299  0.5556  0.3875
   12CHL1    H8  829   0.851   5.171   9.890  0.3333 -0.1818  1.8240
   12CHL1   C14  830   0.735   5.053   9.744 -0.0314  0.5203  0.6191
   12CHL1   H14  831   0.628   5.023   9.743  0.0693 -0.0144  2.2794
   12CHL1   C15  832   0.818   4.923   9.728 -0.3249  0.5323  0.0534
   12CHL1  H15A  833   0.926   4.920   9.755 -0.6261 -2.0358  1.2510
   12CHL1  H15B  834   0.762   4.849   9.788 -1.7196  1.3041 -0.2581
   12CHL1   C16  835   0.810   4.901   9.574 -0.0677  0.4765  0.0987
   12CHL1  H16A  836   0.912   4.887   9.531 -0.2398 -1.4614  0.2217
   12CHL1  H16B  837   0.753   4.810   9.545  0.9586 -0.8739  2.0420
   12CHL1   C17  838   0.747   5.028   9.512 -0.0842  0.5132  0.3658
   12CHL1   H17  839   0.640   5.007   9.496 -0.1941  0.8507  0.6471
   12CHL1   C13  840   0.754   5.133   9.625 -0.5855 -0.0612  0.3447
   12CHL1   C18  841   0.896   5.204   9.618  1.0682  0.1263  0.0859
   12CHL1  H18A  842   0.906   5.290   9.688 -2.0035 -0.0747  0.9264
   12CHL1  H18B  843   0.973   5.127   9.643  2.3859  0.8721 -1.5299
   12CHL1  H18C  844   0.909   5.238   9.514  0.4970 -0.4353 -0.1819
   12CHL1   C12  845   0.639   5.230   9.614 -0.5245 -0.2913  0.0477
   12CHL1  H12A  846   0.651   5.291   9.521 -2.6315 -0.6335 -0.5212
   12CHL1  H12B  847   0.544   5.176   9.596  0.0731 -1.2406 -0.3015
   12CHL1   C11  848   0.643   5.317   9.746  0.2725  0.1174 -0.1127
   12CHL1  H11A  849   0.719   5.398   9.734 -1.6674  1.9479 -0.6825
   12CHL1  H11B  850   0.542   5.363   9.740  1.1149  1.9521 -0.9938
   12CHL1    C9  851   0.642   5.242   9.877  0.0036  1.2228  0.2909
   12CHL1    H9  852   0.543   5.193   9.875  0.8849 -0.6629 -0.6071
   12CHL1   C10  853   0.642   5.325  10.008 -0.3347 -0.0822 -0.1149
   12CHL1   C19  854   0.750   5.440  10.007  0.5079 -0.6353 -0.0816
   12CHL1  H19A  855   0.722   5.514   9.928 -1.3983 -0.6487  0.5208
   12CHL1  H19B  856   0.745   5.484  10.108  3.6141 -1.9527  0.7518
   12CHL1  H19C  857   0.856   5.407   9.998  2.3158  3.6776  2.6024
   12CHL1    C1  858   0.497   5.383  10.016  0.1639  0.4925  0.1789
   12CHL1   H1A  859   0.495   5.465   9.940  1.6627  0.3840 -0.0073
   12CHL1   H1B  860   0.429   5.300   9.988  3.1067 -2.1031  0.1765
   12CHL1    C2  861   0.445   5.439  10.148 -0.2346 -0.3707 -0.7320
   12CHL1   H2A  862   0.334   5.452  10.155 -0.4537 -2.6404  2.2638
   12CHL1   H2B  863   0.495   5.538  10.160  1.3359 -0.9895 -1.9998
   12CHL1   C20  864   0.808   5.046   9.376 -0.6984  0.4411 -0.0620
   12CHL1   H20  865   0.916   5.073   9.375 -0.6149  0.2215 -2.0835
   12CHL1   C21  866   0.749   5.163   9.302  0.3520 -0.7889 -0.4079
   12CHL1  H21A  867   0.789   5.169   9.198 -1.3397  1.0604 -1.0134
   12CHL1  H21B  868   0.773   5.261   9.346 -1.2785 -0.3916 -0.3677
   12CHL1  H21C  869   0.641   5.141   9.292  0.4611 -2.4129  1.4352
   12CHL1   C22  870   0.799   4.920   9.284 -0.9463 -0.6397 -0.6699
   12CHL1  H22A  871   0.829   4.960   9.184  1.9382 -1.0112 -0.0408
   12CHL1  H22B  872   0.877   4.844   9.309 -0.9516 -0.4715 -0.1272
   12CHL1   C23  873   0.659   4.856   9.269 -0.2752 -0.2163  0.5893
   12CHL1  H23A  874   0.624   4.824   9.370  0.2850  2.1509  1.6125
   12CHL1  H23B  875   0.593   4.925   9.212  1.7813  1.4541  0.0895
   12CHL1   C24  876   0.670   4.724   9.180 -0.0828  0.8074 -0.0668
   12CHL1  H24A  877   0.699   4.741   9.074 -0.4948 -1.3463 -0.5749
   12CHL1  H24B  878   0.751   4.665   9.228 -0.5716 -0.2685 -0.5261
   12CHL1   C25  879   0.551   4.631   9.176 -0.7062  1.0989 -0.2888
   12CHL1   H25  880   0.519   4.625   9.282 -0.0032  1.6979 -0.0355
   12CHL1   C26  881   0.434   4.672   9.084  0.0634 -1.0989 -0.1094
   12CHL1  H26A  882   0.395   4.771   9.116 -1.1446 -1.9914  1.2921
   12CHL1  H26B  883   0.470   4.690   8.981  0.0047  2.2721  0.3408
   12CHL1  H26C  884   0.359   4.591   9.075  1.4926 -2.4089 -0.5698
   12CHL1   C27  885   0.595   4.488   9.135 -0.0215 -0.3698 -0.4867
   12CHL1  H27A  886   0.692   4.459   9.182 -0.5599 -0.7572  0.4187
   12CHL1  H27B  887   0.522   4.413   9.172 -1.8224  2.8745  3.3155
   12CHL1  H27C  888   0.601   4.484   9.024 -2.2938  1.1659 -0.7176
   13CHL1    C3  889   6.785   0.910   9.907  0.0620  0.0657 -0.8213
   13CHL1    H3  890   6.675   0.927   9.905  0.0184  0.0652  0.5892
   13CHL1    O3  891   6.813   0.931  10.042  0.2683  0.2422 -0.1722
   13CHL1   H3'  892   6.829   0.843  10.078 -0.9678 -0.3851 -1.0687
   13CHL1    C4  893   6.806   0.765   9.855  0.4240 -0.6045  0.4206
   13CHL1   H4A  894   6.909   0.725   9.867  0.2014 -0.8478  1.6912
   13CHL1   H4B  895   6.748   0.701   9.926 -1.4034  1.2298  0.6750
   13CHL1    C5  896   6.761   0.746   9.709 -0.2262 -0.0417 -0.3782
   13CHL1    C6  897   6.667   0.663   9.670 -0.5781 -0.6487  0.3985
   13CHL1    H6  898   6.617   0.602   9.747  0.0099 -0.1481  1.2006
   13CHL1    C7  899   6.631   0.652   9.523  0.1729 -0.2938  0.4057
   13CHL1   H7A  900   6.607   0.545   9.506  0.5879 -0.3816  0.3659
   13CHL1   H7B  901   6.541   0.713   9.500 -0.2317 -0.0625  2.3966
   13CHL1    C8  902   6.740   0.699   9.427 -0.0013  0.5273  0.5981
   13CHL1    H8  903   6.830   0.636   9.444 -0.3556  0.1872  1.2509
   13CHL1   C14  904   6.700   0.708   9.283 -0.3207 -0.3725 -0.8304
   13CHL1   H14  905   6.621   0.785   9.280  0.4496  0.4910  0.1989
   13CHL1   C15  906   6.624   0.597   9.223 -0.0677  0.0975 -0.9739
   13CHL1  H15A  907   6.662   0.506   9.273 -0.8371  0.3148  0.0494
   13CHL1  H15B  908   6.522   0.608   9.267 -0.2905  0.0380 -1.4639
   13CHL1   C16  909   6.638   0.613   9.076 -0.2639  0.0284 -0.4457
   13CHL1  H16A  910   6.695   0.528   9.034  1.5078  0.1228  1.6172
   13CHL1  H16B  911   6.538   0.625   9.029 -1.4797 -1.9716  1.4516
   13CHL1   C17  912   6.732   0.740   9.053  0.2901 -0.1327  0.8064
   13CHL1   H17  913   6.651   0.816   9.048 -3.2201 -3.6271 -2.3112
   13CHL1   C13  914   6.806   0.758   9.178  0.2387  0.0053  0.7846
   13CHL1   C18  915   6.929   0.662   9.176  0.0053 -0.7034  0.0355
   13CHL1  H18A  916   6.976   0.668   9.277  0.0330  0.9766 -0.0577
   13CHL1  H18B  917   6.888   0.559   9.164 -1.5645 -0.2877  1.3713
   13CHL1  H18C  918   6.997   0.686   9.092 -0.1240  0.4771  0.2583
   13CHL1   C12  919   6.845   0.904   9.217  0.1899 -1.4944  0.4980
   13CHL1  H12A  920   6.929   0.950   9.160 -2.5552  1.4606 -1.4949
   13CHL1  H12B  921   6.758   0.972   9.206 -0.4447 -2.0230  1.9498
   13CHL1   C11  922   6.895   0.913   9.357  0.5634  0.9604 -0.4943
   13CHL1  H11A  923   6.985   0.848   9.360 -0.7432 -0.9144  1.8405
   13CHL1  H11B  924   6.914   1.014   9.399 -0.1770  1.3193 -1.0120
   13CHL1    C9  925   6.794   0.844   9.465  0.7724  0.1340 -0.6031
   13CHL1    H9  926   6.701   0.904   9.458  0.1165 -1.0605 -2.8728
   13CHL1   C10  927   6.838   0.844   9.612  0.4584  0.0739  0.1526
   13CHL1   C19  928   6.984   0.798   9.610 -0.8323 -0.4413  0.0859
   13CHL1  H19A  929   7.031   0.786   9.710 -0.1735 -2.7188 -0.4504
   13CHL1  H19B  930   6.987   0.705   9.550 -1.6269  1.0270 -2.3926
   13CHL1  H19C  931   7.047   0.876   9.563 -0.4317 -1.0194 -0.3509
   13CHL1    C1  932   6.813   0.990   9.671 -0.2172 -0.3716  0.3897
   13CHL1   H1A  933   6.868   1.050   9.595  0.1450 -1.0408  0.1123
   13CHL1   H1B  934   6.704   1.011   9.661  0.0033  1.0041  0.6814
   13CHL1    C2  935   6.864   1.004   9.817 -0.0568  0.0295  0.2886
   13CHL1   H2A  936   6.858   1.110   9.851  2.3807  0.4628 -0.4206
   13CHL1   H2B  937   6.973   0.981   9.810 -0.1920 -0.2998 -0.8864
   13CHL1   C20  938   6.798   0.755   8.918 -0.0413 -0.1038 -0.0058
   13CHL1   H20  939   6.873   0.674   8.907  0.3012  0.3622 -1.1858
   13CHL1   C21  940   6.858   0.894   8.902 -0.5582 -0.2322  0.4002
   13CHL1  H21A  941   6.783   0.973   8.920  0.0937  0.6132 -0.4906
   13CHL1  H21B  942   6.892   0.896   8.796 -0.4739  0.3827  0.4370
   13CHL1  H21C  943   6.945   0.911   8.968  0.4737  2.4915 -1.4641
   13CHL1   C22  944   6.701   0.728   8.798 -0.0904  0.5562  0.3120
   13CHL1  H22A  945   6.627   0.653   8.834  0.6747  0.2989  1.3710
   13CHL1  H22B  946   6.650   0.821   8.764 -0.0248  0.1763 -0.8734
   13CHL1   C23  947   6.766   0.645   8.680 -0.2735  0.0211 -1.0213
   13CHL1  H23A  948   6.826   0.706   8.610  0.1977  1.0075  0.2195
   13CHL1  H23B  949   6.838   0.576   8.729 -0.8001  1.0867  1.3774
   13CHL1   C24  950   6.663   0.571   8.604  0.1886  1.3157 -0.1734
   13CHL1  H24A  951   6.602   0.517   8.680  1.8806  2.7155  2.3379
   13CHL1  H24B  952   6.587   0.643   8.567 -1.5455 -0.7460 -0.8288
   13CHL1   C25  953   6.718   0.462   8.507 -0.8107 -0.2169 -0.2012
   13CHL1   H25  954   6.810   0.426   8.560 -1.0836  1.3723  1.4704
   13CHL1   C26  955   6.622   0.341   8.494 -0.3468  0.3662  0.9407
   13CHL1  H26A  956   6.605   0.299   8.595 -1.1051  0.9264  1.0528
   13CHL1  H26B  957   6.525   0.376   8.453 -0.5799 -1.0677  0.2120
   13CHL1  H26C  958   6.668   0.268   8.424 -3.2140 -1.1053  0.4601
   13CHL1   C27  959   6.747   0.520   8.371  0.3956 -0.3692 -0.0236
   13CHL1  H27A  960   6.834   0.588   8.377  0.6798 -0.8572  2.0489
   13CHL1  H27B  961   6.769   0.439   8.298  2.5757 -0.1015  0.2854
   13CHL1  H27C  962   6.648   0.563   8.344  0.6780  0.3726  0.0957
   14CHL1    C3  963   4.656   4.907  10.317  0.0696  0.4552 -0.3913
   14CHL1    H3  964   4.735   4.982  10.292 -0.2609  1.2999  0.9994
   14CHL1    O3  965   4.628   4.919  10.456  0.0987 -0.2521  0.4421
   14CHL1   H3'  966   4.667   4.844  10.500  0.0486  0.4899  1.7891
   14CHL1    C4  967   4.528   4.957  10.242 -0.5333  0.6049  0.0531
   14CHL1   H4A  968   4.451   4.885  10.278  0.5203  0.5660  2.4090
   14CHL1   H4B  969   4.501   5.056  10.285 -0.4702  0.0799  1.3364
   14CHL1    C5  970   4.530   4.939  10.096 -0.4043 -0.0543 -0.4532
   14CHL1    C6  971   4.500   5.035  10.002  0.2460  0.3904 -0.4044
   14CHL1    H6  972   4.469   5.135  10.036  2.2737  0.9844 -0.1600
   14CHL1    C7  973   4.498   5.017   9.854 -0.0832 -0.1348 -0.5368
   14CHL1   H7A  974   4.408   5.066   9.810 -0.5671 -1.8519 -1.5270
   14CHL1   H7B  975   4.583   5.067   9.804  0.1314  1.4505  1.2923
   14CHL1    C8  976   4.499   4.879   9.812  0.4016 -0.5669  0.0230
   14CHL1    H8  977   4.398   4.837   9.833 -0.3699  1.7207  1.3789
   14CHL1   C14  978   4.538   4.873   9.665 -0.6162 -0.4663  0.3894
   14CHL1   H14  979   4.642   4.912   9.658 -0.8893  0.0172 -1.8419
   14CHL1   C15  980   4.463   4.957   9.565  0.0227 -0.1729 -0.0992
   14CHL1  H15A  981   4.353   4.947   9.583  0.3435 -1.0181  1.6096
   14CHL1  H15B  982   4.488   5.065   9.568 -1.0957  0.2021 -2.1263
   14CHL1   C16  983   4.503   4.901   9.434  0.4916  0.7241 -0.3411
   14CHL1  H16A  984   4.413   4.898   9.369 -0.3230 -1.0827  0.7898
   14CHL1  H16B  985   4.582   4.974   9.404  1.5462  0.1567  0.9622
   14CHL1   C17  986   4.565   4.761   9.450 -0.4080  0.0383  0.9533
   14CHL1   H17  987   4.672   4.787   9.438 -0.3311 -0.3007  0.9105
   14CHL1   C13  988   4.541   4.733   9.600  0.4178  0.1831 -0.4408
   14CHL1   C18  989   4.400   4.660   9.599 -0.0930 -0.1558  0.1796
   14CHL1  H18A  990   4.331   4.708   9.526 -1.5427 -1.1814  0.8241
   14CHL1  H18B  991   4.403   4.550   9.583 -4.3784 -0.4255  0.0239
   14CHL1  H18C  992   4.356   4.681   9.699  1.1723 -1.9312  1.1647
   14CHL1   C12  993   4.641   4.645   9.672  0.4856 -0.0079 -0.2957
   14CHL1  H12A  994   4.623   4.545   9.628 -3.4947  1.1034 -1.7005
   14CHL1  H12B  995   4.742   4.685   9.649  1.3224 -0.6930  1.9096
   14CHL1   C11  996   4.622   4.651   9.827 -0.0140  0.0791 -0.4530
   14CHL1  H11A  997   4.536   4.583   9.841  0.7604 -0.9660 -0.6736
   14CHL1  H11B  998   4.713   4.603   9.869  0.0129  0.3099 -0.2429
   14CHL1    C9  999   4.594   4.790   9.891 -0.5381  0.2647 -0.2536
   14CHL1    H9 1000   4.694   4.839   9.886  0.2461 -0.9237  2.1742
   14CHL1   C10 1001   4.571   4.797  10.045  0.5287  0.4936  0.7786
   14CHL1   C19 1002   4.462   4.691  10.068 -0.6687 -0.1679  0.1616
   14CHL1  H19A 1003   4.500   4.586  10.068 -1.0683 -0.3678 -2.1119
   14CHL1  H19B 1004   4.412   4.710  10.166 -2.0510  2.2420 -0.9397
   14CHL1  H19C 1005   4.380   4.696   9.993  0.7769 -0.3065 -1.4827
   14CHL1    C1 1006   4.692   4.743  10.121 -0.8482  0.0810  0.1612
   14CHL1   H1A 1007   4.693   4.633  10.110  0.5896  0.0668  0.2176
   14CHL1   H1B 1008   4.786   4.788  10.083 -0.3764  1.0244  2.2494
   14CHL1    C2 1009   4.686   4.763  10.276  0.4214 -0.0698 -0.3038
   14CHL1   H2A 1010   4.775   4.726  10.330 -0.4518 -0.5897  0.8195
   14CHL1   H2B 1011   4.598   4.702  10.306 -0.2843  0.7738 -0.6071
   14CHL1   C20 1012   4.529   4.661   9.334 -0.1492 -1.1104 -0.2138
   14CHL1   H20 1013   4.420   4.646   9.343 -0.5747  2.2216  2.4118
   14CHL1   C21 1014   4.608   4.522   9.343 -0.0950  0.2007 -0.5460
   14CHL1  H21A 1015   4.569   4.457   9.262  1.3531 -2.0304  0.4311
   14CHL1  H21B 1016   4.574   4.477   9.440 -0.9730  2.7354  0.4004
   14CHL1  H21C 1017   4.718   4.538   9.340 -0.3203  2.5690  1.0314
   14CHL1   C22 1018   4.564   4.732   9.195 -0.2147 -0.0015 -0.2846
   14CHL1  H22A 1019   4.553   4.657   9.115 -0.3605  0.7113 -0.9511
   14CHL1  H22B 1020   4.483   4.807   9.178  1.2265  1.7309  0.0979
   14CHL1   C23 1021   4.699   4.796   9.174 -0.3401  0.3801 -0.5509
   14CHL1  H23A 1022   4.724   4.882   9.240  0.5937 -1.2557  1.3651
   14CHL1  H23B 1023   4.781   4.723   9.191 -1.8167 -0.6806  2.9609
   14CHL1   C24 1024   4.711   4.840   9.030 -0.0723 -0.2147  1.0776
   14CHL1  H24A 1025   4.655   4.771   8.963 -0.0662  1.6939 -1.0220
   14CHL1  H24B 1026   4.660   4.938   9.017 -0.8155 -0.8482 -1.2551
   14CHL1   C25 1027   4.862   4.859   8.983 -0.5824  0.3589 -0.0551
   14CHL1   H25 1028   4.907   4.763   9.016 -0.8097  0.6501  1.1603
   14CHL1   C26 1029   4.884   4.878   8.841  0.0789  0.0380  0.0949
   14CHL1  H26A 1030   4.992   4.896   8.822  0.1936 -1.3535 -0.7595
   14CHL1  H26B 1031   4.847   4.792   8.781  2.0569 -1.6695  1.2195
   14CHL1  H26C 1032   4.829   4.969   8.807  0.6446 -0.0236 -1.0522
   14CHL1   C27 1033   4.931   4.972   9.060 -0.2422 -0.1895  1.1439
   14CHL1  H27A 1034   4.912   4.971   9.170 -1.6215  0.5699  0.9387
   14CHL1  H27B 1035   5.041   4.966   9.046  0.1518 -0.1328  3.7205
   14CHL1  H27C 1036   4.896   5.073   9.028  0.8298 -0.1210  0.1445
   15CHL1    C3 1037   5.351   1.657  10.108  0.3750  0.1730  0.6820
   15CHL1    H3 1038   5.433   1.731  10.097 -0.2164  0.7680  0.2463
   15CHL1    O3 1039   5.341   1.597  10.235 -0.4359  0.7326  0.2979
   15CHL1   H3' 1040   5.263   1.544  10.220  0.0193  0.3597 -0.8540
   15CHL1    C4 1041   5.222   1.739  10.078  0.8512 -0.3738 -0.5537
   15CHL1   H4A 1042   5.132   1.682  10.110  0.2478  1.4035  1.1109
   15CHL1   H4B 1043   5.240   1.827  10.144 -1.7937  2.1036 -2.8455
   15CHL1    C5 1044   5.204   1.787   9.936 -0.5103 -0.0894 -0.1621
   15CHL1    C6 1045   5.181   1.916   9.899  0.2155 -0.0458 -0.0169
   15CHL1    H6 1046   5.184   1.995   9.975  0.6143  1.7204 -1.8047
   15CHL1    C7 1047   5.146   1.960   9.761  0.3583  0.0419 -0.0754
   15CHL1   H7A 1048   5.048   2.013   9.767 -0.5888 -1.5231 -0.9191
   15CHL1   H7B 1049   5.226   2.028   9.726  0.6011  0.1897  0.7638
   15CHL1    C8 1050   5.130   1.848   9.651 -0.7656 -1.1817  0.3470
   15CHL1    H8 1051   5.028   1.804   9.661 -1.4659 -0.0947 -1.5384
   15CHL1   C14 1052   5.157   1.903   9.514  0.1579 -0.4333 -0.4095
   15CHL1   H14 1053   5.261   1.944   9.507  1.1797 -3.0152 -1.5314
   15CHL1   C15 1054   5.067   2.024   9.488 -0.2672  0.1030 -0.1233
   15CHL1  H15A 1055   4.964   1.991   9.516 -0.7377  0.5190 -1.3180
   15CHL1  H15B 1056   5.096   2.115   9.544 -0.2089  0.0585 -0.0811
   15CHL1   C16 1057   5.072   2.038   9.334  0.0709 -0.1443 -0.3887
   15CHL1  H16A 1058   4.968   2.061   9.302 -0.3635  1.2233  1.8070
   15CHL1  H16B 1059   5.146   2.113   9.300  1.5811 -0.9572  0.9374
   15CHL1   C17 1060   5.118   1.895   9.280  0.0225 -0.2420  0.8549
   15CHL1   H17 1061   5.225   1.915   9.256  0.1356  1.2860  2.4273
   15CHL1   C13 1062   5.124   1.801   9.401 -0.3152  0.2717 -0.7829
   15CHL1   C18 1063   4.987   1.730   9.414  0.5972 -0.0882 -0.2103
   15CHL1  H18A 1064   4.964   1.677   9.509  2.7394 -3.0611 -1.1964
   15CHL1  H18B 1065   4.902   1.802   9.408 -1.0506 -1.4069  3.8770
   15CHL1  H18C 1066   4.970   1.654   9.335  1.8394  1.4024 -1.9861
   15CHL1   C12 1067   5.243   1.701   9.412  0.7290  0.6841 -0.1559
   15CHL1  H12A 1068   5.237   1.617   9.340 -2.6487 -0.1305  0.8625
   15CHL1  H12B 1069   5.335   1.763   9.404  2.1140 -1.3675 -0.9912
   15CHL1   C11 1070   5.248   1.640   9.568  0.3451  0.6353 -0.0892
   15CHL1  H11A 1071   5.157   1.578   9.583  1.2507 -0.2846  1.9778
   15CHL1  H11B 1072   5.337   1.574   9.576  0.8165  1.4652  2.4398
   15CHL1    C9 1073   5.237   1.745   9.679  0.3191 -0.3134 -0.5148
   15CHL1    H9 1074   5.337   1.793   9.682  0.5971 -0.9215  1.0469
   15CHL1   C10 1075   5.228   1.687   9.824 -0.4828 -0.0327  0.1859
   15CHL1   C19 1076   5.110   1.583   9.826  0.4744  0.0149  0.4369
   15CHL1  H19A 1077   5.088   1.559   9.932 -0.5677  0.9294  0.4435
   15CHL1  H19B 1078   5.023   1.634   9.780  1.0269  0.8979  0.3417
   15CHL1  H19C 1079   5.141   1.489   9.776 -2.6919 -0.0772 -1.5916
   15CHL1    C1 1080   5.376   1.622   9.866  0.2491  0.8241  0.0010
   15CHL1   H1A 1081   5.403   1.553   9.784 -0.1077  0.2647  0.3482
   15CHL1   H1B 1082   5.448   1.706   9.874  1.6742 -0.4777  1.7762
   15CHL1    C2 1083   5.369   1.551  10.007  0.2336 -0.2464  0.8035
   15CHL1   H2A 1084   5.473   1.520  10.029  0.3663 -0.2568  0.1946
   15CHL1   H2B 1085   5.296   1.467   9.999 -0.5699  0.5370 -0.5526
   15CHL1   C20 1086   5.047   1.856   9.145 -0.0077 -0.5240  0.2125
   15CHL1   H20 1087   4.938   1.840   9.161 -0.5723  0.7530 -1.8994
   15CHL1   C21 1088   5.115   1.719   9.106  0.3094 -0.4107  0.1700
   15CHL1  H21A 1089   5.104   1.642   9.186  1.6663 -1.4851 -0.6385
   15CHL1  H21B 1090   5.224   1.736   9.091  0.6809 -1.4361  1.4564
   15CHL1  H21C 1091   5.091   1.683   9.004  1.3477  0.3543 -0.3667
   15CHL1   C22 1092   5.053   1.952   9.031  0.2458  0.5088  0.5515
   15CHL1  H22A 1093   4.992   2.043   9.048 -1.9399 -0.9943  1.1969
   15CHL1  H22B 1094   5.157   1.987   9.016  0.5562 -1.5743 -3.1085
   15CHL1   C23 1095   5.010   1.906   8.887  0.3042 -0.3003  0.3610
   15CHL1  H23A 1096   5.062   1.816   8.848  0.4549 -0.0713  0.0300
   15CHL1  H23B 1097   4.903   1.875   8.887  0.8156 -2.2876 -1.2727
   15CHL1   C24 1098   5.034   2.018   8.786  0.3030  0.0531  0.4236
   15CHL1  H24A 1099   5.009   2.113   8.836 -0.3829  0.1832 -0.1464
   15CHL1  H24B 1100   5.138   2.026   8.749  0.9777  4.3921  2.7010
   15CHL1   C25 1101   4.957   1.995   8.653  0.4389 -0.3279 -0.7209
   15CHL1   H25 1102   4.984   2.079   8.585 -2.4241 -0.0672 -1.6689
   15CHL1   C26 1103   4.983   1.863   8.583 -0.2129 -0.1906  0.2410
   15CHL1  H26A 1104   4.933   1.858   8.484  1.0223 -0.4026 -0.3882
   15CHL1  H26B 1105   5.090   1.846   8.561  0.2710  1.8855  0.7390
   15CHL1  H26C 1106   4.947   1.783   8.650 -0.4061  1.7168  2.5287
   15CHL1   C27 1107   4.803   2.012   8.671  0.3051  0.2668 -0.0434
   15CHL1  H27A 1108   4.759   1.929   8.730 -0.6814  2.0725  1.9253
   15CHL1  H27B 1109   4.797   2.108   8.727 -2.3666 -0.6141  1.3760
   15CHL1  H27C 1110   4.757   2.023   8.571  2.0060  0.2241 -0.8654
   16CHL1    C3 1111   5.525   2.860  10.250 -0.4552  0.0862 -0.1670
   16CHL1    H3 1112   5.444   2.937  10.250  1.5644  2.4209 -2.9909
   16CHL1    O3 1113   5.590   2.831  10.380  0.2785 -0.3023  0.2081
   16CHL1   H3' 1114   5.666   2.778  10.353  0.2219  0.2434 -1.1226
   16CHL1    C4 1115   5.479   2.738  10.166 -0.1855  0.3443  0.3087
   16CHL1   H4A 1116   5.557   2.659  10.181 -0.9459 -0.5273 -0.2511
   16CHL1   H4B 1117   5.391   2.694  10.216 -0.1153 -0.0749  0.0705
   16CHL1    C5 1118   5.455   2.754  10.019  0.3124  0.0196  0.2002
   16CHL1    C6 1119   5.339   2.706   9.962 -0.6684 -0.4214  0.2559
   16CHL1    H6 1120   5.271   2.642  10.020 -1.9232  1.1140  0.5602
   16CHL1    C7 1121   5.320   2.717   9.816  0.4979 -0.2586  0.3120
   16CHL1   H7A 1122   5.279   2.623   9.773  2.3714 -0.4499 -1.1539
   16CHL1   H7B 1123   5.238   2.793   9.814  1.6633  1.0377 -1.1690
   16CHL1    C8 1124   5.440   2.759   9.731 -0.2845  1.1895  0.5906
   16CHL1    H8 1125   5.515   2.678   9.722  1.2965  2.7604 -1.6964
   16CHL1   C14 1126   5.388   2.786   9.592  0.3081 -0.1453  0.3373
   16CHL1   H14 1127   5.320   2.874   9.596 -0.6482 -0.7977 -0.9044
   16CHL1   C15 1128   5.301   2.684   9.511 -0.3593  0.0881  0.3445
   16CHL1  H15A 1129   5.355   2.587   9.514  0.2679  0.3789 -0.6484
   16CHL1  H15B 1130   5.202   2.685   9.560 -0.3200  1.5402  0.4467
   16CHL1   C16 1131   5.304   2.735   9.366  0.0399 -0.5668  0.0314
   16CHL1  H16A 1132   5.294   2.657   9.286 -1.6769  0.4770 -0.8172
   16CHL1  H16B 1133   5.206   2.784   9.350  0.6351  0.0311 -2.2047
   16CHL1   C17 1134   5.408   2.852   9.364 -0.0862 -0.2018  0.2873
   16CHL1   H17 1135   5.347   2.945   9.368  0.3112  0.1945 -1.6307
   16CHL1   C13 1136   5.493   2.845   9.497 -0.0524 -0.1758  0.1853
   16CHL1   C18 1137   5.616   2.753   9.471  0.3593 -0.3556  0.3301
   16CHL1  H18A 1138   5.678   2.748   9.562 -0.5711  1.7384  1.1408
   16CHL1  H18B 1139   5.579   2.651   9.445 -2.1345  0.9632 -1.7928
   16CHL1  H18C 1140   5.681   2.789   9.388  0.7955 -1.6708  0.0736
   16CHL1   C12 1141   5.544   2.970   9.564  0.5093 -0.0218  0.1189
   16CHL1  H12A 1142   5.615   3.031   9.505  1.0471 -0.7592 -0.0090
   16CHL1  H12B 1143   5.453   3.033   9.579 -1.5385 -2.5105 -1.1229
   16CHL1   C11 1144   5.602   2.956   9.710  0.4899 -0.5326  0.4348
   16CHL1  H11A 1145   5.701   2.906   9.700 -0.0127 -1.1065 -2.7600
   16CHL1  H11B 1146   5.610   3.057   9.754 -0.0819  0.5000 -1.6939
   16CHL1    C9 1147   5.503   2.876   9.795 -0.0571 -0.4168  0.0104
   16CHL1    H9 1148   5.426   2.955   9.808 -0.0476 -0.4747  0.4226
   16CHL1   C10 1149   5.551   2.839   9.932  0.2291  0.2285  0.3390
   16CHL1   C19 1150   5.685   2.752   9.910  0.0756  0.3084 -0.5583
   16CHL1  H19A 1151   5.672   2.663   9.845 -1.8380  2.1243 -2.8012
   16CHL1  H19B 1152   5.773   2.806   9.869  0.0576  0.1174 -0.8522
   16CHL1  H19C 1153   5.719   2.716  10.010 -2.8132 -0.8765  0.0898
   16CHL1    C1 1154   5.568   2.969  10.020 -0.0413 -0.4602  0.1610
   16CHL1   H1A 1155   5.647   3.027   9.968  0.7373 -0.2716  1.4834
   16CHL1   H1B 1156   5.476   3.031  10.015  0.7801  0.6879 -2.1997
   16CHL1    C2 1157   5.627   2.943  10.164 -0.8721  0.4828 -0.4785
   16CHL1   H2A 1158   5.652   3.035  10.221 -0.3072 -0.0115  0.0762
   16CHL1   H2B 1159   5.718   2.882  10.145 -0.3003  0.9600  0.6824
   16CHL1   C20 1160   5.481   2.864   9.224  0.0810 -0.6035 -1.0613
   16CHL1   H20 1161   5.561   2.788   9.209  0.2398 -0.2466 -2.0575
   16CHL1   C21 1162   5.552   3.003   9.224  0.0480 -0.2206  0.1528
   16CHL1  H21A 1163   5.613   3.017   9.315 -0.4646 -1.3720  0.7008
   16CHL1  H21B 1164   5.487   3.089   9.195 -0.8702 -0.9804 -0.0952
   16CHL1  H21C 1165   5.629   3.002   9.144 -0.6339  0.0334 -0.5213
   16CHL1   C22 1166   5.381   2.841   9.110  0.1841  0.1341  0.5366
   16CHL1  H22A 1167   5.347   2.736   9.120  0.3703  0.0154 -0.0386
   16CHL1  H22B 1168   5.299   2.916   9.102 -1.8491 -1.9638  0.8257
   16CHL1   C23 1169   5.452   2.866   8.975 -0.3322 -0.1262  1.0004
   16CHL1  H23A 1170   5.468   2.974   8.955 -1.3479 -0.0236  0.7017
   16CHL1  H23B 1171   5.548   2.810   8.977 -1.0626 -1.4734  0.0242
   16CHL1   C24 1172   5.371   2.807   8.855 -0.0155  0.1885  0.4618
   16CHL1  H24A 1173   5.368   2.697   8.871  0.2597  0.3594  1.8920
   16CHL1  H24B 1174   5.266   2.844   8.865  0.0854  0.1612  1.8044
   16CHL1   C25 1175   5.424   2.837   8.718 -0.7179 -0.4938 -0.5122
   16CHL1   H25 1176   5.413   2.947   8.705  1.8705 -0.2302 -0.9467
   16CHL1   C26 1177   5.574   2.801   8.712 -0.1492 -0.7977  0.8471
   16CHL1  H26A 1178   5.634   2.872   8.772  1.7430 -1.8724  0.2991
   16CHL1  H26B 1179   5.608   2.700   8.742  1.5785 -1.0776 -1.7399
   16CHL1  H26C 1180   5.610   2.812   8.607 -3.2216  1.4693 -0.1247
   16CHL1   C27 1181   5.361   2.755   8.605  0.9086 -0.3246  0.4521
   16CHL1  H27A 1182   5.256   2.789   8.599  1.5541  1.8535  0.7277
   16CHL1  H27B 1183   5.410   2.771   8.507  0.2136 -1.4960 -0.1128
   16CHL1  H27C 1184   5.368   2.645   8.619 -0.7814 -0.4650  0.3297
   17CHL1    C3 1185   2.461   1.269  10.331  0.1449 -0.1412 -0.1463
   17CHL1    H3 1186   2.427   1.374  10.330  2.0971  0.5341 -0.8904
   17CHL1    O3 1187   2.509   1.234  10.458  0.0149 -0.1438 -0.2267
   17CHL1   H3' 1188   2.534   1.142  10.448 -0.7162 -0.3182 -0.5228
   17CHL1    C4 1189   2.348   1.179  10.293  0.3975 -0.2764 -1.1156
   17CHL1   H4A 1190   2.375   1.073  10.310 -2.5706 -0.9946 -0.2243
   17CHL1   H4B 1191   2.265   1.209  10.360  0.7404  2.9044 -1.9748
   17CHL1    C5 1192   2.299   1.194  10.152 -0.6420 -0.1776  0.5446
   17CHL1    C6 1193   2.167   1.222  10.121 -0.0123  0.0208  0.0308
   17CHL1    H6 1194   2.087   1.233  10.195 -0.6901  1.5080 -0.8784
   17CHL1    C7 1195   2.114   1.223   9.979  0.2333  0.5468  0.1572
   17CHL1   H7A 1196   2.019   1.169   9.960  0.8307 -0.9663  1.2982
   17CHL1   H7B 1197   2.091   1.329   9.953  1.2866  0.2793 -2.1396
   17CHL1    C8 1198   2.216   1.182   9.871  0.2176 -0.1137  0.1304
   17CHL1    H8 1199   2.220   1.072   9.884  2.0897  0.0512  1.3096
   17CHL1   C14 1200   2.175   1.227   9.732 -0.3393 -0.5235 -0.6109
   17CHL1   H14 1201   2.185   1.338   9.727  1.4829 -0.6582 -0.6106
   17CHL1   C15 1202   2.034   1.201   9.690  0.2090 -0.3171 -0.3424
   17CHL1  H15A 1203   1.997   1.099   9.711 -0.0101 -0.0608  0.5606
   17CHL1  H15B 1204   1.974   1.269   9.754  0.3106 -0.2423 -0.3250
   17CHL1   C16 1205   2.036   1.239   9.547 -0.9234 -0.1094  0.8421
   17CHL1  H16A 1206   1.993   1.161   9.480 -0.9349 -0.7773  1.6074
   17CHL1  H16B 1207   1.985   1.335   9.529 -1.4336 -0.8934 -2.6139
   17CHL1   C17 1208   2.186   1.259   9.505 -0.2561 -0.3697  0.8768
   17CHL1   H17 1209   2.204   1.368   9.506 -1.4391 -0.1535  2.7699
   17CHL1   C13 1210   2.268   1.188   9.618 -0.0158 -0.6508 -0.3558
   17CHL1   C18 1211   2.270   1.031   9.589 -0.0708 -0.2069  0.3453
   17CHL1  H18A 1212   2.321   1.010   9.493 -2.0476 -1.5579 -0.4821
   17CHL1  H18B 1213   2.328   0.988   9.673 -1.3423 -0.4997  1.1058
   17CHL1  H18C 1214   2.170   0.983   9.588  0.4096 -1.2196 -0.5379
   17CHL1   C12 1215   2.409   1.248   9.648  0.1526  0.5282  0.1674
   17CHL1  H12A 1216   2.489   1.195   9.591 -3.1933 -3.7887 -1.1441
   17CHL1  H12B 1217   2.411   1.359   9.651 -2.6996  0.6344  0.6233
   17CHL1   C11 1218   2.457   1.210   9.790 -0.6606  0.4244  0.3143
   17CHL1  H11A 1219   2.469   1.099   9.787  2.1741  0.5819  1.8525
   17CHL1  H11B 1220   2.555   1.258   9.814 -1.3956  1.2915  1.6678
   17CHL1    C9 1221   2.359   1.231   9.907 -0.5825 -0.1160 -1.0344
   17CHL1    H9 1222   2.349   1.340   9.923  0.6291 -0.4184  2.7330
   17CHL1   C10 1223   2.411   1.180  10.042 -0.0889  0.4923 -0.8169
   17CHL1   C19 1224   2.464   1.036  10.040 -0.2156 -0.5440  0.0487
   17CHL1  H19A 1225   2.567   1.036   9.999 -0.7842  0.6752 -1.4979
   17CHL1  H19B 1226   2.475   0.981  10.135 -0.3146  0.6273  0.7592
   17CHL1  H19C 1227   2.396   0.980   9.971 -0.7967  1.0688 -0.7459
   17CHL1    C1 1228   2.529   1.267  10.094  0.6470  0.1067 -0.0586
   17CHL1   H1A 1229   2.615   1.265  10.023  1.3803 -2.4050  0.7932
   17CHL1   H1B 1230   2.491   1.371  10.093  2.3137  0.8089  2.0274
   17CHL1    C2 1231   2.575   1.240  10.236  0.3552 -0.4194  0.2163
   17CHL1   H2A 1232   2.662   1.307  10.250  1.1186 -1.6907  2.0583
   17CHL1   H2B 1233   2.621   1.138  10.242  0.2346 -0.6484 -1.9569
   17CHL1   C20 1234   2.204   1.209   9.359  0.0076  0.1104 -0.0400
   17CHL1   H20 1235   2.162   1.106   9.369  0.3546  0.0528  0.9524
   17CHL1   C21 1236   2.353   1.209   9.309  0.8373  0.4421  0.1340
   17CHL1  H21A 1237   2.385   1.313   9.286 -1.5809  0.8608 -1.8670
   17CHL1  H21B 1238   2.370   1.128   9.235 -2.5119  0.7474 -1.1809
   17CHL1  H21C 1239   2.420   1.175   9.390  0.2425 -0.6434  0.1784
   17CHL1   C22 1240   2.115   1.288   9.256 -0.2262  0.5548 -0.7095
   17CHL1  H22A 1241   2.048   1.357   9.312 -0.0479 -1.1806  1.8494
   17CHL1  H22B 1242   2.168   1.366   9.197 -0.9570  1.5949 -0.0220
   17CHL1   C23 1243   2.045   1.201   9.158  0.2399  0.0177  0.0880
   17CHL1  H23A 1244   1.987   1.125   9.214  0.5901 -0.0814  0.3189
   17CHL1  H23B 1245   1.978   1.260   9.092 -0.0491  1.0465  1.2548
   17CHL1   C24 1246   2.132   1.131   9.055  0.0123 -0.8312  0.3650
   17CHL1  H24A 1247   2.173   1.216   8.996 -0.1251 -1.0427 -0.0437
   17CHL1  H24B 1248   2.214   1.063   9.086  0.6391 -0.6054 -0.7293
   17CHL1   C25 1249   2.059   1.037   8.953  0.2672 -0.4158 -0.2392
   17CHL1   H25 1250   1.999   0.972   9.020  2.2942 -0.6133  1.5152
   17CHL1   C26 1251   1.984   1.117   8.851 -0.5698 -0.2777 -0.3237
   17CHL1  H26A 1252   2.056   1.170   8.785  0.4822 -1.8598 -0.5177
   17CHL1  H26B 1253   1.934   1.037   8.792 -3.2600 -1.0582  2.7122
   17CHL1  H26C 1254   1.903   1.178   8.897 -0.4595  0.5153 -1.1575
   17CHL1   C27 1255   2.169   0.940   8.884  1.0148  0.2346  0.0371
   17CHL1  H27A 1256   2.235   0.997   8.815  1.2228 -0.1427 -0.0752
   17CHL1  H27B 1257   2.221   0.883   8.964 -1.0197  1.1711  2.1528
   17CHL1  H27C 1258   2.113   0.869   8.821  0.4317  0.6863  0.0388
   18CHL1    C3 1259   1.048   6.440  10.259 -1.0679  0.5058 -0.2788
   18CHL1    H3 1260   0.947   6.452  10.215 -1.8040 -2.5692  0.3674
   18CHL1    O3 1261   1.041   6.484  10.397  0.1686 -0.4506  0.2417
   18CHL1   H3' 1262   1.131   6.467  10.425 -0.5061 -2.2995  1.5370
   18CHL1    C4 1263   1.084   6.293  10.267 -0.7646  0.0957  0.5962
   18CHL1   H4A 1264   1.181   6.279  10.319 -0.3165  0.5049 -0.1109
   18CHL1   H4B 1265   1.009   6.236  10.326 -2.2709 -0.5484 -1.7753
   18CHL1    C5 1266   1.101   6.234  10.126  0.0025  0.2428  0.4447
   18CHL1    C6 1267   1.025   6.128  10.087 -0.4581  0.1461  0.2374
   18CHL1    H6 1268   0.951   6.091  10.160 -1.4384  0.1187 -0.7416
   18CHL1    C7 1269   1.030   6.067   9.946 -0.1556 -0.0971 -0.5676
   18CHL1   H7A 1270   1.035   5.957   9.941  1.0487 -0.1225  0.5981
   18CHL1   H7B 1271   0.933   6.097   9.900  0.1616 -0.9642 -1.8413
   18CHL1    C8 1272   1.153   6.120   9.868 -0.2492 -0.1813  0.7664
   18CHL1    H8 1273   1.237   6.055   9.900 -0.3231 -0.9359 -0.4860
   18CHL1   C14 1274   1.113   6.097   9.719  0.3643  0.0523  0.5844
   18CHL1   H14 1275   1.028   6.160   9.685  1.0646  0.8253  0.2248
   18CHL1   C15 1276   1.072   5.957   9.683 -0.4827  0.1137  0.7861
   18CHL1  H15A 1277   1.143   5.891   9.738  1.2336  1.0507 -0.1967
   18CHL1  H15B 1278   0.972   5.926   9.720 -0.2545 -1.0270  0.5046
   18CHL1   C16 1279   1.094   5.940   9.528 -0.1864  0.1500 -0.2396
   18CHL1  H16A 1280   1.156   5.849   9.518  1.3625  1.0090  0.9370
   18CHL1  H16B 1281   0.995   5.924   9.480  0.7300 -0.7546 -1.9063
   18CHL1   C17 1282   1.175   6.075   9.488  0.5809  0.3399  0.6362
   18CHL1   H17 1283   1.097   6.144   9.449  0.2814 -1.0027 -1.3106
   18CHL1   C13 1284   1.228   6.126   9.623 -0.6724 -0.5489  0.6397
   18CHL1   C18 1285   1.364   6.061   9.665  0.4971  0.1720 -0.3901
   18CHL1  H18A 1286   1.384   6.089   9.771  1.4952 -0.5329 -0.3766
   18CHL1  H18B 1287   1.355   5.950   9.661  2.2739  0.0215 -1.7619
   18CHL1  H18C 1288   1.447   6.094   9.599  0.1771  0.9892 -0.3967
   18CHL1   C12 1289   1.254   6.282   9.630 -0.1411  0.2716 -0.0954
   18CHL1  H12A 1290   1.343   6.296   9.566 -0.1001 -2.4728 -0.8063
   18CHL1  H12B 1291   1.165   6.334   9.588 -0.7000 -0.3769  0.2537
   18CHL1   C11 1292   1.275   6.324   9.778  0.6071 -0.8755 -0.0979
   18CHL1  H11A 1293   1.378   6.295   9.808  0.2001 -2.7586 -0.4559
   18CHL1  H11B 1294   1.269   6.435   9.770  2.3140 -0.7300  0.1248
   18CHL1    C9 1295   1.178   6.268   9.886 -0.2327  0.1741 -0.3760
   18CHL1    H9 1296   1.077   6.306   9.859 -0.3504 -0.7963 -1.3928
   18CHL1   C10 1297   1.212   6.303  10.036  0.4632  0.1314 -1.3682
   18CHL1   C19 1298   1.343   6.238  10.086  0.4897 -0.0597 -0.0480
   18CHL1  H19A 1299   1.342   6.127  10.085 -0.0710 -0.0690 -1.6784
   18CHL1  H19B 1300   1.432   6.264  10.024 -0.6470 -0.1173 -1.7519
   18CHL1  H19C 1301   1.361   6.277  10.189  0.5280  0.1413 -0.1311
   18CHL1    C1 1302   1.193   6.462  10.048  0.1186  0.4716  0.5651
   18CHL1   H1A 1303   1.285   6.506  10.004 -0.6993 -0.1211 -1.8971
   18CHL1   H1B 1304   1.105   6.489   9.986 -0.1722  3.1037  1.9875
   18CHL1    C2 1305   1.163   6.521  10.183  0.3015 -0.5552  0.2310
   18CHL1   H2A 1306   1.132   6.627  10.168  0.7513 -0.7923 -3.2430
   18CHL1   H2B 1307   1.258   6.513  10.241 -0.0266 -0.1531  0.8371
   18CHL1   C20 1308   1.271   6.049   9.373 -0.0187 -0.0513  0.6966
   18CHL1   H20 1309   1.375   6.035   9.409  0.7784  2.8792 -0.1964
   18CHL1   C21 1310   1.281   6.184   9.298  0.3782  0.6603  0.4495
   18CHL1  H21A 1311   1.181   6.218   9.264  0.2617  0.5300  0.6618
   18CHL1  H21B 1312   1.340   6.174   9.204 -1.2634 -0.7608 -0.4775
   18CHL1  H21C 1313   1.331   6.260   9.363  2.0546  0.2151 -0.2618
   18CHL1   C22 1314   1.237   5.936   9.273  0.4885  0.7823 -0.6014
   18CHL1  H22A 1315   1.264   5.839   9.318 -0.1577  1.7705  2.1333
   18CHL1  H22B 1316   1.128   5.926   9.253  0.2064 -1.9499  1.7378
   18CHL1   C23 1317   1.312   5.942   9.136  0.5380 -0.2692  0.5193
   18CHL1  H23A 1318   1.286   6.035   9.081  2.1187 -0.6673 -0.9960
   18CHL1  H23B 1319   1.422   5.937   9.149  0.5431 -2.7125 -0.0028
   18CHL1   C24 1320   1.280   5.817   9.056  0.1531 -0.0700  0.3044
   18CHL1  H24A 1321   1.308   5.732   9.122  1.1775  1.1528  1.5269
   18CHL1  H24B 1322   1.171   5.807   9.038  0.1355 -0.3348  0.5498
   18CHL1   C25 1323   1.340   5.795   8.915  0.1850  0.3719  0.3649
   18CHL1   H25 1324   1.448   5.776   8.929  0.2837 -0.5940 -1.4950
   18CHL1   C26 1325   1.277   5.662   8.853 -0.1009 -0.5140  0.4710
   18CHL1  H26A 1326   1.167   5.672   8.842  0.1422  0.9681 -0.9031
   18CHL1  H26B 1327   1.308   5.642   8.748  0.7935 -2.2844  1.0307
   18CHL1  H26C 1328   1.304   5.582   8.925  2.8816 -1.5663 -1.6237
   18CHL1   C27 1329   1.314   5.914   8.826  1.2242 -0.4948  0.3038
   18CHL1  H27A 1330   1.206   5.922   8.800  1.2173  0.4578  0.5911
   18CHL1  H27B 1331   1.344   6.003   8.886  0.0908 -0.1582  0.3927
   18CHL1  H27C 1332   1.370   5.912   8.730 -1.7626  1.1690 -1.6657
   19CHL1    C3 1333   6.012   2.596  10.073 -0.2061 -0.7519  0.6260
   19CHL1    H3 1334   5.940   2.678  10.050 -0.0747 -0.9385 -0.4970
   19CHL1    O3 1335   5.968   2.553  10.202  0.1236  0.2146 -0.3295
   19CHL1   H3' 1336   5.968   2.458  10.188  0.9125  0.3017 -1.0022
   19CHL1    C4 1337   5.970   2.484   9.976 -0.2799  0.3531  0.6480
   19CHL1   H4A 1338   6.014   2.389  10.011 -2.1316 -1.4045 -1.4943
   19CHL1   H4B 1339   5.860   2.476   9.988 -0.4378  0.9815 -0.2649
   19CHL1    C5 1340   6.018   2.524   9.837 -0.2238 -0.4750  0.4042
   19CHL1    C6 1341   5.924   2.530   9.740 -0.7385  0.1188 -0.1738
   19CHL1    H6 1342   5.823   2.500   9.770 -0.0920 -1.2038  0.8332
   19CHL1    C7 1343   5.958   2.564   9.601 -0.0830  0.2350  0.1588
   19CHL1   H7A 1344   5.908   2.487   9.538 -2.0422 -0.1461  2.0456
   19CHL1   H7B 1345   5.924   2.665   9.568  1.0633  0.5854 -0.0128
   19CHL1    C8 1346   6.106   2.557   9.557  0.2951 -0.1311 -0.2573
   19CHL1    H8 1347   6.132   2.451   9.540 -0.4062 -0.3943  0.2535
   19CHL1   C14 1348   6.131   2.645   9.429 -0.4188  0.1156 -0.5222
   19CHL1   H14 1349   6.108   2.746   9.469 -0.8989  0.0190 -0.5542
   19CHL1   C15 1350   6.047   2.619   9.306 -0.2884 -0.7361  0.6672
   19CHL1  H15A 1351   6.045   2.509   9.288  2.3002 -0.5180 -1.4908
   19CHL1  H15B 1352   5.946   2.665   9.315  0.3141  0.6808  0.3712
   19CHL1   C16 1353   6.123   2.679   9.192  0.2620  1.1368 -0.5434
   19CHL1  H16A 1354   6.141   2.596   9.121 -0.4828  0.8925 -0.4518
   19CHL1  H16B 1355   6.079   2.767   9.141  1.0133  2.0944  0.4199
   19CHL1   C17 1356   6.255   2.728   9.259 -0.0772 -1.0823  0.8577
   19CHL1   H17 1357   6.235   2.832   9.294  1.7515  0.1574 -1.4819
   19CHL1   C13 1358   6.276   2.650   9.386  0.0592  0.7512  0.5727
   19CHL1   C18 1359   6.314   2.503   9.348  0.1474 -0.0472 -0.4846
   19CHL1  H18A 1360   6.422   2.483   9.331  0.9989  2.8150  0.9382
   19CHL1  H18B 1361   6.299   2.438   9.437 -0.7355 -0.2753 -0.7897
   19CHL1  H18C 1362   6.250   2.463   9.266  0.9970  0.8629 -1.6218
   19CHL1   C12 1363   6.360   2.719   9.493 -0.1479  0.1017  0.0605
   19CHL1  H12A 1364   6.463   2.748   9.467 -0.6595  2.6836  0.6557
   19CHL1  H12B 1365   6.310   2.818   9.501 -3.7908 -1.5239 -0.5020
   19CHL1   C11 1366   6.340   2.641   9.626 -0.0510 -0.1451  0.2957
   19CHL1  H11A 1367   6.396   2.545   9.612  1.7211  0.6469  1.5070
   19CHL1  H11B 1368   6.395   2.696   9.705  0.1085  0.1162  0.0021
   19CHL1    C9 1369   6.188   2.622   9.668 -0.4252 -0.5350 -0.1878
   19CHL1    H9 1370   6.152   2.725   9.686 -0.3405 -0.5989  0.3724
   19CHL1   C10 1371   6.168   2.562   9.812  0.5632 -0.2867  0.5551
   19CHL1   C19 1372   6.264   2.435   9.825 -0.2050 -0.2998 -0.4159
   19CHL1  H19A 1373   6.241   2.382   9.919 -0.5218  1.1021  0.3306
   19CHL1  H19B 1374   6.246   2.365   9.740  1.0326  2.1873 -2.9126
   19CHL1  H19C 1375   6.367   2.475   9.830 -0.1464 -0.0933 -2.4241
   19CHL1    C1 1376   6.213   2.666   9.919  0.7545  0.0451 -0.1811
   19CHL1   H1A 1377   6.322   2.682   9.907  0.8416 -0.1460  0.3516
   19CHL1   H1B 1378   6.160   2.762   9.907  0.3215 -0.0561  0.8185
   19CHL1    C2 1379   6.164   2.629  10.063  0.5381  0.5444 -0.7923
   19CHL1   H2A 1380   6.190   2.697  10.147  1.3469 -1.4421  0.6495
   19CHL1   H2B 1381   6.211   2.536  10.100  0.8687  1.2372  0.5946
   19CHL1   C20 1382   6.365   2.734   9.153 -0.3496  0.3001 -0.1660
   19CHL1   H20 1383   6.383   2.630   9.121 -1.7191  0.1737 -0.6242
   19CHL1   C21 1384   6.497   2.791   9.194 -0.5818 -0.0183  0.0925
   19CHL1  H21A 1385   6.537   2.738   9.283 -2.5320 -1.2574  0.2680
   19CHL1  H21B 1386   6.475   2.898   9.217 -3.3458 -0.1161 -1.6944
   19CHL1  H21C 1387   6.563   2.783   9.105 -0.9385 -0.6333 -0.1238
   19CHL1   C22 1388   6.324   2.827   9.026  0.1693 -0.0535  0.4252
   19CHL1  H22A 1389   6.241   2.897   9.049  0.0090 -0.5424  1.4176
   19CHL1  H22B 1390   6.410   2.892   9.000  1.3923 -1.7589  0.0224
   19CHL1   C23 1391   6.289   2.741   8.899  0.2754 -0.3380  0.3826
   19CHL1  H23A 1392   6.379   2.697   8.851  1.2592 -0.9151  2.6446
   19CHL1  H23B 1393   6.226   2.654   8.929 -1.2565  1.0888  1.4900
   19CHL1   C24 1394   6.211   2.810   8.785  0.4264  0.0520  0.2199
   19CHL1  H24A 1395   6.160   2.733   8.724  1.8919 -0.4804 -0.3851
   19CHL1  H24B 1396   6.136   2.863   8.848  0.9396 -0.4895  1.3294
   19CHL1   C25 1397   6.280   2.918   8.702  0.0072 -0.6679  0.6511
   19CHL1   H25 1398   6.353   2.978   8.761  1.0073  0.0268 -1.2143
   19CHL1   C26 1399   6.359   2.840   8.591  0.1202  0.0793  0.5178
   19CHL1  H26A 1400   6.398   2.916   8.519 -0.1206 -0.6953 -0.4552
   19CHL1  H26B 1401   6.439   2.771   8.627  0.7189 -2.0693 -4.1459
   19CHL1  H26C 1402   6.291   2.774   8.533  2.0021 -0.4990 -1.1912
   19CHL1   C27 1403   6.175   3.012   8.642  0.6350  0.4203 -0.0648
   19CHL1  H27A 1404   6.092   2.960   8.590  0.2882  0.5576  0.3411
   19CHL1  H27B 1405   6.137   3.076   8.725 -0.2576  1.0467 -0.9308
   19CHL1  H27C 1406   6.206   3.085   8.564 -3.1049  3.0702  0.6198
   20CHL1    C3 1407   6.595   3.071  10.429  0.3944  0.3228 -0.6281
   20CHL1    H3 1408   6.493   3.113  10.415  0.4001  0.3992 -0.4471
   20CHL1    O3 1409   6.613   3.026  10.565 -0.3708  0.0367  0.3156
   20CHL1   H3' 1410   6.680   3.086  10.599 -0.1326  0.5367 -0.9976
   20CHL1    C4 1411   6.606   2.941  10.349 -0.1776 -0.1961  0.4067
   20CHL1   H4A 1412   6.700   2.883  10.360 -0.9943 -1.4858  0.7553
   20CHL1   H4B 1413   6.529   2.865  10.375  0.3796 -1.2863 -0.9433
   20CHL1    C5 1414   6.600   2.972  10.198 -0.1628 -0.5076 -0.7169
   20CHL1    C6 1415   6.510   2.928  10.119  0.3803 -0.8692  0.3622
   20CHL1    H6 1416   6.438   2.852  10.152 -1.1292  1.1092  1.8571
   20CHL1    C7 1417   6.495   2.943   9.967 -0.0282 -0.3287 -0.2737
   20CHL1   H7A 1418   6.487   2.845   9.915  2.9290 -1.4028  1.0602
   20CHL1   H7B 1419   6.405   3.003   9.943  1.1943  1.9999  0.6570
   20CHL1    C8 1420   6.625   3.015   9.913 -0.0920 -0.1781  0.5935
   20CHL1    H8 1421   6.709   2.944   9.906  0.4291  0.3687  1.1956
   20CHL1   C14 1422   6.582   3.065   9.773 -0.3515 -0.1128 -0.8347
   20CHL1   H14 1423   6.507   3.138   9.808  0.5439  0.3010  0.3098
   20CHL1   C15 1424   6.502   2.980   9.670 -0.8003  0.2137  0.0471
   20CHL1  H15A 1425   6.568   2.890   9.662  0.7158  1.4021 -1.6444
   20CHL1  H15B 1426   6.396   2.970   9.699 -0.9228  2.3939  0.4750
   20CHL1   C16 1427   6.517   3.061   9.542 -0.1420  0.0770  0.0699
   20CHL1  H16A 1428   6.576   3.001   9.468  0.3484  1.6099 -0.8318
   20CHL1  H16B 1429   6.419   3.082   9.494 -0.1081  0.9937  0.3858
   20CHL1   C17 1430   6.603   3.184   9.572 -0.0665 -0.0110  0.2242
   20CHL1   H17 1431   6.532   3.264   9.603 -2.6152 -0.4808 -3.6299
   20CHL1   C13 1432   6.681   3.147   9.702 -0.2295  0.6188 -0.5062
   20CHL1   C18 1433   6.808   3.064   9.662 -0.0823 -0.1080 -0.1521
   20CHL1  H18A 1434   6.782   3.005   9.571 -0.3491 -0.5969  0.2363
   20CHL1  H18B 1435   6.885   3.139   9.638  1.3369 -1.0954  1.1505
   20CHL1  H18C 1436   6.844   2.994   9.740  0.1640  1.3446  1.0813
   20CHL1   C12 1437   6.728   3.262   9.797 -0.4462 -0.4959 -0.1891
   20CHL1  H12A 1438   6.810   3.318   9.748  0.0461 -0.4508  0.6814
   20CHL1  H12B 1439   6.656   3.344   9.817 -1.0652 -1.0919  0.0865
   20CHL1   C11 1440   6.779   3.210   9.935 -0.2291 -0.3604  0.6889
   20CHL1  H11A 1441   6.865   3.141   9.929 -0.9139 -1.1765  0.1228
   20CHL1  H11B 1442   6.822   3.301   9.983 -0.9252  2.5418 -3.6236
   20CHL1    C9 1443   6.675   3.130  10.010  0.1240 -0.5202  0.0853
   20CHL1    H9 1444   6.590   3.202  10.007  1.0705  0.7465  1.7487
   20CHL1   C10 1445   6.702   3.084  10.151  0.0231  0.0927 -0.0717
   20CHL1   C19 1446   6.842   3.024  10.150  0.6518  0.5858  0.0735
   20CHL1  H19A 1447   6.860   2.946  10.073 -0.8995 -0.1585  0.4157
   20CHL1  H19B 1448   6.920   3.101  10.132  1.0968 -0.4625 -3.0094
   20CHL1  H19C 1449   6.862   2.977  10.249 -1.0149 -0.9269 -0.2439
   20CHL1    C1 1450   6.691   3.209  10.247 -0.5259 -0.2683  0.0111
   20CHL1   H1A 1451   6.776   3.269  10.207  0.3404 -2.1733 -1.1798
   20CHL1   H1B 1452   6.595   3.257  10.219 -0.6213 -1.7598 -2.5529
   20CHL1    C2 1453   6.701   3.175  10.395 -0.8244  0.3795  0.4069
   20CHL1   H2A 1454   6.681   3.262  10.460  2.4817 -0.5717  3.0117
   20CHL1   H2B 1455   6.804   3.136  10.413 -1.1601 -2.5412 -2.8481
   20CHL1   C20 1456   6.681   3.238   9.447 -0.4298 -0.2853 -0.1133
   20CHL1   H20 1457   6.764   3.168   9.424  0.4973  0.9185 -0.5050
   20CHL1   C21 1458   6.739   3.382   9.470 -0.4005 -0.1411 -0.3870
   20CHL1  H21A 1459   6.800   3.385   9.563 -0.2682 -1.5361 -0.4050
   20CHL1  H21B 1460   6.651   3.449   9.479 -0.7084 -0.6019  0.0449
   20CHL1  H21C 1461   6.795   3.425   9.384 -2.9741  1.3285 -1.4652
   20CHL1   C22 1462   6.597   3.257   9.314 -0.5310 -0.2555 -0.0623
   20CHL1  H22A 1463   6.549   3.157   9.307  0.2344 -0.6828  0.6608
   20CHL1  H22B 1464   6.521   3.335   9.335  0.1303  0.5028 -0.4471
   20CHL1   C23 1465   6.673   3.293   9.188 -0.2245 -0.0544  0.7140
   20CHL1  H23A 1466   6.721   3.393   9.199 -2.6821  1.1422  1.4874
   20CHL1  H23B 1467   6.753   3.220   9.166  1.6891  2.7582 -2.8811
   20CHL1   C24 1468   6.573   3.300   9.070 -0.6132 -0.0047  0.1026
   20CHL1  H24A 1469   6.539   3.195   9.059  1.8423 -0.8544  0.1186
   20CHL1  H24B 1470   6.484   3.361   9.095 -1.5935 -0.0627 -2.8357
   20CHL1   C25 1471   6.635   3.332   8.932  0.4392  0.4325 -0.5505
   20CHL1   H25 1472   6.726   3.268   8.927 -1.0715 -1.8014 -0.3368
   20CHL1   C26 1473   6.530   3.298   8.827 -0.6918  0.2185 -0.6689
   20CHL1  H26A 1474   6.451   3.374   8.843 -0.5149  0.0760  1.0897
   20CHL1  H26B 1475   6.566   3.310   8.722  2.4507 -0.2678  0.2539
   20CHL1  H26C 1476   6.480   3.200   8.844  1.8875 -0.6975  2.5346
   20CHL1   C27 1477   6.668   3.490   8.921 -0.1768  0.3183 -0.0142
   20CHL1  H27A 1478   6.743   3.519   8.997  2.0640  0.5452 -2.1807
   20CHL1  H27B 1479   6.707   3.506   8.818 -0.3282  2.1328  0.1768
   20CHL1  H27C 1480   6.571   3.544   8.930 -0.8031 -0.5802 -1.0149
   21CHL1    C3 1481   0.003   5.552  10.098  0.9557 -0.1437  0.0835
   21CHL1    H3 1482   0.046   5.450  10.104  0.6487 -0.2934 -0.2075
   21CHL1    O3 1483  -0.027   5.584  10.235 -0.0315 -0.1343 -0.0426
   21CHL1   H3' 1484   0.061   5.562  10.268  0.0686 -0.9246 -0.7755
   21CHL1    C4 1485   0.093   5.660  10.039  0.0391  0.1490 -0.3119
   21CHL1   H4A 1486   0.046   5.760  10.035 -1.3990 -0.5198 -1.1667
   21CHL1   H4B 1487   0.184   5.665  10.102 -0.2963  0.2067  0.1689
   21CHL1    C5 1488   0.127   5.622   9.891  0.4249  0.4580  0.4763
   21CHL1    C6 1489   0.247   5.604   9.842 -0.0023  0.3614 -0.3082
   21CHL1    H6 1490   0.327   5.633   9.913 -1.4165  2.6204  0.4787
   21CHL1    C7 1491   0.294   5.565   9.705  0.0996 -0.0953 -0.0070
   21CHL1   H7A 1492   0.396   5.602   9.680  1.0798 -0.9334  2.4435
   21CHL1   H7B 1493   0.302   5.454   9.699  2.2315 -0.0418  0.9148
   21CHL1    C8 1494   0.190   5.598   9.607  0.3747 -0.4617 -0.1935
   21CHL1    H8 1495   0.188   5.708   9.592  0.2575 -0.6621 -1.8413
   21CHL1   C14 1496   0.218   5.541   9.475  0.2651  0.2287  0.0260
   21CHL1   H14 1497   0.225   5.433   9.496 -0.0175  0.6756  2.8157
   21CHL1   C15 1498   0.349   5.576   9.406 -0.5955 -0.2420 -0.0416
   21CHL1  H15A 1499   0.381   5.682   9.412 -1.1191  0.1136 -2.5741
   21CHL1  H15B 1500   0.433   5.514   9.443  0.7284  1.8556  0.5903
   21CHL1   C16 1501   0.332   5.533   9.259  0.2489 -0.0604  0.2522
   21CHL1  H16A 1502   0.334   5.631   9.206 -1.7444 -0.2152 -0.2171
   21CHL1  H16B 1503   0.418   5.474   9.221 -1.0323  0.0837 -3.1674
   21CHL1   C17 1504   0.186   5.485   9.242  0.2497  0.1512  0.6542
   21CHL1   H17 1505   0.187   5.379   9.274  1.5611  0.4802  1.8077
   21CHL1   C13 1506   0.108   5.551   9.363  0.4670 -0.1828  0.0452
   21CHL1   C18 1507   0.074   5.702   9.326 -0.3520 -0.0945  0.2890
   21CHL1  H18A 1508   0.163   5.745   9.274 -0.4253  0.0195  0.2569
   21CHL1  H18B 1509  -0.016   5.704   9.261 -0.4600 -0.5425  0.4216
   21CHL1  H18C 1510   0.051   5.767   9.413 -1.8512 -1.8224  1.2444
   21CHL1   C12 1511  -0.016   5.485   9.417 -0.0767  0.6319 -0.0915
   21CHL1  H12A 1512  -0.095   5.484   9.339 -1.1395 -1.6888  0.9087
   21CHL1  H12B 1513   0.009   5.379   9.438  0.4391  0.6587 -0.5437
   21CHL1   C11 1514  -0.057   5.546   9.553  0.1497  0.1949  0.3214
   21CHL1  H11A 1515  -0.088   5.651   9.535  0.1196  0.1095 -0.1486
   21CHL1  H11B 1516  -0.134   5.481   9.600  1.9401 -3.3180 -1.2422
   21CHL1    C9 1517   0.054   5.545   9.659  0.7117 -0.9735 -0.7596
   21CHL1    H9 1518   0.075   5.439   9.684  2.0388 -0.9231 -1.5683
   21CHL1   C10 1519   0.002   5.601   9.802 -0.2577 -0.2544 -0.3939
   21CHL1   C19 1520  -0.062   5.741   9.773 -0.0124  0.8963 -0.6885
   21CHL1  H19A 1521  -0.077   5.787   9.873 -1.0557 -1.9808  0.5804
   21CHL1  H19B 1522   0.006   5.797   9.705  1.3556 -1.0626 -1.0146
   21CHL1  H19C 1523  -0.159   5.732   9.720 -1.3829  1.2728  1.6224
   21CHL1    C1 1524  -0.095   5.506   9.874 -0.0834 -0.3324 -0.4265
   21CHL1   H1A 1525  -0.193   5.501   9.823 -0.1571 -1.8019 -0.2028
   21CHL1   H1B 1526  -0.065   5.399   9.878 -0.2142 -0.3714 -0.4976
   21CHL1    C2 1527  -0.131   5.529  10.025 -0.3791  0.2558 -0.3783
   21CHL1   H2A 1528  -0.195   5.449  10.069 -1.0503  0.0645 -1.6668
   21CHL1   H2B 1529  -0.189   5.623  10.037 -0.8008 -0.3096  3.4360
   21CHL1   C20 1530   0.130   5.498   9.094  0.5223 -0.4709  0.4707
   21CHL1   H20 1531   0.109   5.605   9.071 -0.8272 -0.8789 -0.3468
   21CHL1   C21 1532  -0.002   5.420   9.079 -0.2521 -0.5828 -0.0069
   21CHL1  H21A 1533   0.017   5.312   9.095  0.5507 -0.7184 -1.6859
   21CHL1  H21B 1534  -0.026   5.413   8.971  1.6156  3.1601 -0.8411
   21CHL1  H21C 1535  -0.097   5.458   9.123  0.7146  2.6175 -0.4262
   21CHL1   C22 1536   0.240   5.455   8.989  0.3390  0.7896  1.0155
   21CHL1  H22A 1537   0.185   5.480   8.896  2.6550 -0.3882 -0.7965
   21CHL1  H22B 1538   0.332   5.517   8.986  1.5953 -0.9823 -1.5360
   21CHL1   C23 1539   0.297   5.306   8.996 -0.3815 -0.1203  0.9724
   21CHL1  H23A 1540   0.360   5.311   9.088 -0.3111  0.5120  0.8956
   21CHL1  H23B 1541   0.220   5.227   9.007 -0.2474 -0.6318 -1.2553
   21CHL1   C24 1542   0.356   5.263   8.861  0.1281 -0.4562 -0.4558
   21CHL1  H24A 1543   0.265   5.267   8.797  0.1038 -0.1855 -0.4045
   21CHL1  H24B 1544   0.424   5.345   8.831  1.0036 -1.4946 -1.4156
   21CHL1   C25 1545   0.431   5.131   8.846  0.7113 -0.9185  0.2170
   21CHL1   H25 1546   0.371   5.041   8.873 -1.6613  0.8431  1.0615
   21CHL1   C26 1547   0.462   5.118   8.697  0.0805  0.6095  0.0042
   21CHL1  H26A 1548   0.553   5.058   8.680  0.1191  0.6949 -0.0979
   21CHL1  H26B 1549   0.379   5.070   8.641 -0.8991  1.2209  0.8924
   21CHL1  H26C 1550   0.492   5.216   8.653 -0.3368  0.8163  0.1752
   21CHL1   C27 1551   0.553   5.123   8.941  0.0875  0.6955 -0.2602
   21CHL1  H27A 1552   0.524   5.128   9.048  0.7199 -4.0075  0.3634
   21CHL1  H27B 1553   0.622   5.036   8.932  1.6884  1.9679 -0.8016
   21CHL1  H27C 1554   0.631   5.200   8.923  0.7891  0.1160  0.2502
   22CHL1    C3 1555   0.122   6.652  10.107  0.4523  0.0718 -0.6229
   22CHL1    H3 1556   0.057   6.742  10.103  1.6555  0.9482 -1.3543
   22CHL1    O3 1557   0.113   6.614  10.240  0.0285  0.9439  0.3906
   22CHL1   H3' 1558   0.169   6.538  10.253  0.8362  1.2848 -0.9030
   22CHL1    C4 1559   0.075   6.532  10.019 -0.3126  0.3753  0.6488
   22CHL1   H4A 1560   0.132   6.444  10.055  0.8334  0.8283 -0.0134
   22CHL1   H4B 1561  -0.028   6.510  10.054 -0.3522 -0.8194 -0.1743
   22CHL1    C5 1562   0.086   6.548   9.867 -0.0836  0.4378  0.0785
   22CHL1    C6 1563  -0.018   6.532   9.786 -0.1210 -1.3423 -0.6061
   22CHL1    H6 1564  -0.114   6.499   9.829  0.8604 -2.5905  0.7093
   22CHL1    C7 1565  -0.010   6.540   9.641  0.5389 -0.5910 -0.4600
   22CHL1   H7A 1566  -0.057   6.446   9.604 -3.0137  0.8816 -0.1709
   22CHL1   H7B 1567  -0.071   6.622   9.597  0.5852 -0.6354 -0.6079
   22CHL1    C8 1568   0.139   6.554   9.587 -0.4511 -0.2364 -0.0498
   22CHL1    H8 1569   0.177   6.450   9.591 -2.4881 -1.1060 -1.5660
   22CHL1   C14 1570   0.146   6.594   9.448 -0.0378  0.0351  0.0406
   22CHL1   H14 1571   0.108   6.698   9.441 -0.9103 -0.3548 -1.4191
   22CHL1   C15 1572   0.050   6.531   9.340 -0.5817 -0.9455 -0.5108
   22CHL1  H15A 1573   0.038   6.423   9.363 -0.1964 -0.3977  2.7395
   22CHL1  H15B 1574  -0.045   6.587   9.354 -0.9839 -1.6465 -0.3918
   22CHL1   C16 1575   0.117   6.553   9.206 -0.1301 -0.7684  0.3093
   22CHL1  H16A 1576   0.136   6.456   9.155  3.4630  0.8484 -1.7641
   22CHL1  H16B 1577   0.049   6.608   9.137  2.2959 -0.4424 -2.0007
   22CHL1   C17 1578   0.246   6.638   9.230  0.0439 -0.0638 -0.0125
   22CHL1   H17 1579   0.224   6.746   9.233 -0.3635  0.0616 -3.5336
   22CHL1   C13 1580   0.287   6.594   9.378  0.3595  0.3155  0.6907
   22CHL1   C18 1581   0.363   6.458   9.372  0.7200 -0.5844 -0.2647
   22CHL1  H18A 1582   0.371   6.403   9.468  0.9159 -2.4547 -1.3067
   22CHL1  H18B 1583   0.337   6.379   9.299  0.0411 -2.4042  1.8133
   22CHL1  H18C 1584   0.469   6.480   9.351  0.9334 -0.9473  0.4001
   22CHL1   C12 1585   0.373   6.689   9.457 -0.4799  0.3521  0.3867
   22CHL1  H12A 1586   0.480   6.693   9.428 -0.2852  1.1518  1.1600
   22CHL1  H12B 1587   0.324   6.789   9.451 -0.3221  0.4192  0.2189
   22CHL1   C11 1588   0.372   6.641   9.608  0.4153 -0.6491  0.2734
   22CHL1  H11A 1589   0.420   6.541   9.620 -0.6157 -1.1986 -0.0430
   22CHL1  H11B 1590   0.439   6.710   9.663  0.0355  0.8286 -1.0721
   22CHL1    C9 1591   0.230   6.635   9.677  0.2864 -0.4836 -0.3234
   22CHL1    H9 1592   0.190   6.738   9.674  0.0580 -0.5942 -2.2605
   22CHL1   C10 1593   0.228   6.595   9.829 -0.5557 -0.1971  0.2263
   22CHL1   C19 1594   0.335   6.480   9.850  0.7494  0.3173 -0.2454
   22CHL1  H19A 1595   0.438   6.521   9.855  1.1577 -0.6773 -0.1906
   22CHL1  H19B 1596   0.327   6.419   9.943  0.5820 -0.0208 -0.4775
   22CHL1  H19C 1597   0.334   6.412   9.762  0.7929 -1.5577  1.1421
   22CHL1    C1 1598   0.265   6.718   9.912  0.4660  0.4019 -0.6757
   22CHL1   H1A 1599   0.370   6.747   9.891  1.4949 -2.9015 -0.6375
   22CHL1   H1B 1600   0.196   6.802   9.889 -1.4596 -0.1855  2.4628
   22CHL1    C2 1601   0.266   6.693  10.063  0.2658  0.0792 -0.1716
   22CHL1   H2A 1602   0.294   6.779  10.126 -0.2648 -0.7469  1.2326
   22CHL1   H2B 1603   0.344   6.621  10.095 -0.2806 -0.0462  0.9297
   22CHL1   C20 1604   0.352   6.611   9.114  0.2730  0.4442 -0.1919
   22CHL1   H20 1605   0.374   6.502   9.114 -1.8006 -0.0185  0.2282
   22CHL1   C21 1606   0.479   6.706   9.127  0.2637  0.4659  0.0811
   22CHL1  H21A 1607   0.557   6.670   9.057  0.8337  2.4459 -0.3777
   22CHL1  H21B 1608   0.526   6.694   9.227 -0.3580 -0.1794  0.2998
   22CHL1  H21C 1609   0.459   6.815   9.114  1.2346  0.7677  1.0098
   22CHL1   C22 1610   0.286   6.634   8.976 -0.1721 -0.3529 -0.2472
   22CHL1  H22A 1611   0.195   6.573   8.958  0.5731 -1.9975  1.1961
   22CHL1  H22B 1612   0.271   6.743   8.965  1.7255 -0.0098  0.1794
   22CHL1   C23 1613   0.379   6.606   8.857  0.5140 -0.1923  0.3925
   22CHL1  H23A 1614   0.452   6.689   8.850 -1.5268  1.5647 -1.4724
   22CHL1  H23B 1615   0.425   6.506   8.876 -2.2042 -2.1941 -2.4994
   22CHL1   C24 1616   0.299   6.607   8.727 -0.9561  0.9954  0.5335
   22CHL1  H24A 1617   0.240   6.513   8.733 -2.3614  1.7398 -0.8409
   22CHL1  H24B 1618   0.231   6.695   8.722  0.5922  2.2682  1.0060
   22CHL1   C25 1619   0.391   6.602   8.607  0.2833  0.0799  0.0173
   22CHL1   H25 1620   0.325   6.576   8.521  1.0228 -5.6971  0.8342
   22CHL1   C26 1621   0.450   6.744   8.580  0.6755  0.6080 -0.8334
   22CHL1  H26A 1622   0.516   6.771   8.666  0.0033 -0.8540  0.1841
   22CHL1  H26B 1623   0.507   6.749   8.485  0.9294  0.5423 -0.6843
   22CHL1  H26C 1624   0.365   6.814   8.591  0.6669  0.5884 -0.7680
   22CHL1   C27 1625   0.499   6.497   8.617 -0.0863  0.1742 -0.9494
   22CHL1  H27A 1626   0.449   6.399   8.628 -1.0150  0.8565  1.7951
   22CHL1  H27B 1627   0.570   6.494   8.532  0.4964  0.7750 -0.4954
   22CHL1  H27C 1628   0.558   6.531   8.705 -1.1651  0.8999 -0.4900
   23CHL1    C3 1629   2.463   2.024  10.101 -0.5961 -0.3649 -0.1074
   23CHL1    H3 1630   2.479   2.124  10.053 -0.4323 -1.4832 -2.5171
   23CHL1    O3 1631   2.458   2.052  10.243 -0.0138  0.2618  1.0635
   23CHL1   H3' 1632   2.481   1.970  10.286  1.0676  0.4231  0.8329
   23CHL1    C4 1633   2.335   1.958  10.053  0.4546  0.5650  0.0762
   23CHL1   H4A 1634   2.321   1.874  10.125 -1.4575  2.2913  1.8788
   23CHL1   H4B 1635   2.249   2.025  10.076 -0.5972  0.1236 -2.2505
   23CHL1    C5 1636   2.336   1.915   9.908 -0.1272 -0.3891  0.4281
   23CHL1    C6 1637   2.250   1.971   9.822 -0.1587  0.0979 -0.1669
   23CHL1    H6 1638   2.171   2.038   9.861 -0.9204 -0.2528 -1.0725
   23CHL1    C7 1639   2.239   1.936   9.676 -0.2426  0.2894  0.7864
   23CHL1   H7A 1640   2.133   1.913   9.656 -1.0035  2.7883  1.5211
   23CHL1   H7B 1641   2.259   2.033   9.624 -0.9700 -0.0772 -0.1897
   23CHL1    C8 1642   2.330   1.819   9.629 -0.2230  0.5385 -0.5848
   23CHL1    H8 1643   2.281   1.725   9.661 -2.8970  3.1307  3.9526
   23CHL1   C14 1644   2.352   1.814   9.478 -0.0449 -0.4275  0.0488
   23CHL1   H14 1645   2.388   1.914   9.445  0.6710 -0.7888 -0.2918
   23CHL1   C15 1646   2.221   1.798   9.395  0.0174  0.1665  0.7397
   23CHL1  H15A 1647   2.162   1.718   9.443  0.8120 -0.0428  1.3783
   23CHL1  H15B 1648   2.162   1.893   9.395  0.1846  0.2749  1.5501
   23CHL1   C16 1649   2.281   1.756   9.259 -0.3771 -0.5861 -0.2981
   23CHL1  H16A 1650   2.229   1.660   9.236 -2.6419 -0.2671  2.8737
   23CHL1  H16B 1651   2.253   1.831   9.182 -2.1587 -0.6867  0.2009
   23CHL1   C17 1652   2.440   1.731   9.275  0.2663  0.1246 -0.1027
   23CHL1   H17 1653   2.496   1.819   9.235  0.5424 -1.5933 -3.9336
   23CHL1   C13 1654   2.451   1.714   9.423 -0.7127 -0.0607  0.4746
   23CHL1   C18 1655   2.412   1.570   9.476 -0.4250 -0.3309  0.2135
   23CHL1  H18A 1656   2.315   1.523   9.449  0.0252 -0.1048 -2.0591
   23CHL1  H18B 1657   2.497   1.511   9.435  0.3807  0.7642  0.2476
   23CHL1  H18C 1658   2.419   1.565   9.586  2.8576 -1.8302  0.0615
   23CHL1   C12 1659   2.588   1.749   9.479  0.5824  0.4435  0.2411
   23CHL1  H12A 1660   2.663   1.669   9.461  1.2025  0.8362  1.0302
   23CHL1  H12B 1661   2.630   1.840   9.433 -0.4780 -0.3332 -2.4686
   23CHL1   C11 1662   2.582   1.752   9.639  0.3324 -0.7494  0.3534
   23CHL1  H11A 1663   2.567   1.652   9.684 -0.0213 -0.7817  0.1670
   23CHL1  H11B 1664   2.683   1.780   9.677 -0.5681  1.4496  1.3551
   23CHL1    C9 1665   2.465   1.834   9.704 -0.1014 -0.3611 -0.0514
   23CHL1    H9 1666   2.492   1.939   9.679 -2.1881  0.7424  1.8830
   23CHL1   C10 1667   2.450   1.824   9.863 -0.1693  0.4335 -0.9572
   23CHL1   C19 1668   2.432   1.679   9.915 -0.0080  0.0645 -0.0264
   23CHL1  H19A 1669   2.534   1.636   9.904  0.2948  0.3328  1.5411
   23CHL1  H19B 1670   2.400   1.666  10.020  0.1802 -0.8370 -0.0749
   23CHL1  H19C 1671   2.366   1.621   9.847  3.0474 -0.1463 -3.1158
   23CHL1    C1 1672   2.582   1.883   9.926  0.2824  0.3507  0.1973
   23CHL1   H1A 1673   2.654   1.799   9.918  0.1442  0.4007 -2.5304
   23CHL1   H1B 1674   2.620   1.963   9.859 -0.7896  1.8275  1.2640
   23CHL1    C2 1675   2.583   1.929  10.070 -0.4153 -1.0410 -0.0316
   23CHL1   H2A 1676   2.682   1.976  10.087  0.6501 -2.3152 -2.1637
   23CHL1   H2B 1677   2.568   1.841  10.137 -0.7302 -1.1358 -0.2264
   23CHL1   C20 1678   2.498   1.622   9.183 -0.2418  0.5598  0.4349
   23CHL1   H20 1679   2.478   1.522   9.226 -0.7810  0.4350 -0.0912
   23CHL1   C21 1680   2.654   1.640   9.177  0.2131 -0.0080 -0.2881
   23CHL1  H21A 1681   2.696   1.737   9.145 -0.1871  0.6709  1.1802
   23CHL1  H21B 1682   2.705   1.566   9.112  2.2152  0.4611  0.6498
   23CHL1  H21C 1683   2.685   1.606   9.279  0.4577 -0.4125 -0.4918
   23CHL1   C22 1684   2.435   1.621   9.042 -0.3016  0.1753 -0.1926
   23CHL1  H22A 1685   2.326   1.598   9.045 -0.2687  0.0624  0.0833
   23CHL1  H22B 1686   2.442   1.725   9.003  0.5599  0.4811  0.7574
   23CHL1   C23 1687   2.502   1.520   8.947  0.1626  0.4325  0.6687
   23CHL1  H23A 1688   2.606   1.539   8.915 -0.3517  1.7754 -0.3015
   23CHL1  H23B 1689   2.502   1.427   9.008 -6.2301 -1.2119 -1.0165
   23CHL1   C24 1690   2.419   1.503   8.819  0.7328  0.5673  0.5414
   23CHL1  H24A 1691   2.330   1.445   8.853  1.0057  0.5575  1.2527
   23CHL1  H24B 1692   2.390   1.606   8.791  2.3834  1.0561  0.5247
   23CHL1   C25 1693   2.479   1.430   8.699  0.1836  0.1325  0.3408
   23CHL1   H25 1694   2.572   1.483   8.670 -0.1103  0.0483 -0.8080
   23CHL1   C26 1695   2.503   1.281   8.723 -0.3578  0.0691  0.0105
   23CHL1  H26A 1696   2.547   1.218   8.643  0.7519 -2.2689  2.3158
   23CHL1  H26B 1697   2.570   1.270   8.811 -1.5713 -0.1126  0.9291
   23CHL1  H26C 1698   2.403   1.240   8.748 -0.3415 -0.5670 -0.8976
   23CHL1   C27 1699   2.388   1.443   8.575  0.3409  1.1001 -0.1116
   23CHL1  H27A 1700   2.382   1.552   8.552  4.0711  1.2311 -1.1778
   23CHL1  H27B 1701   2.423   1.390   8.484  0.3490  0.5506  0.2069
   23CHL1  H27C 1702   2.294   1.393   8.604  1.6736 -2.6371 -1.6651
   24CHL1    C3 1703   3.779   3.288  10.085  0.6044 -0.5029  0.2692
   24CHL1    H3 1704   3.719   3.378  10.059  2.0144  0.7284  1.1240
   24CHL1    O3 1705   3.793   3.272  10.225  0.0542 -0.3766  0.2722
   24CHL1   H3' 1706   3.880   3.231  10.228  0.3704  0.2116 -0.5923
   24CHL1    C4 1707   3.714   3.165  10.031 -0.1336  0.6413  0.5698
   24CHL1   H4A 1708   3.786   3.086  10.063  1.5035  2.6683  2.2221
   24CHL1   H4B 1709   3.615   3.137  10.073  1.2376 -2.8320  1.8838
   24CHL1    C5 1710   3.699   3.156   9.878  0.1504 -0.5751  1.2034
   24CHL1    C6 1711   3.585   3.130   9.815  0.4433 -0.1890 -0.0510
   24CHL1    H6 1712   3.494   3.112   9.875  1.9243  1.2124  2.7868
   24CHL1    C7 1713   3.556   3.105   9.670 -0.4065 -0.4429 -0.8076
   24CHL1   H7A 1714   3.504   3.010   9.645 -2.6696  0.7793 -1.0074
   24CHL1   H7B 1715   3.485   3.181   9.631 -0.5046  0.5386  1.1542
   24CHL1    C8 1716   3.695   3.101   9.592  0.9550  0.3275 -0.0629
   24CHL1    H8 1717   3.733   2.997   9.599 -1.7301 -0.8245 -1.1675
   24CHL1   C14 1718   3.679   3.120   9.440 -0.6665 -0.2026 -0.1935
   24CHL1   H14 1719   3.650   3.227   9.433 -0.4632  0.1232  2.7257
   24CHL1   C15 1720   3.575   3.033   9.371 -0.4729 -0.3991 -0.5016
   24CHL1  H15A 1721   3.605   2.932   9.407 -0.2773 -0.1596  0.0154
   24CHL1  H15B 1722   3.472   3.060   9.401 -0.9401 -1.6624 -0.8954
   24CHL1   C16 1723   3.594   3.064   9.224 -0.0307  0.1860  0.8645
   24CHL1  H16A 1724   3.600   2.973   9.160 -1.3236 -0.2773  1.3819
   24CHL1  H16B 1725   3.507   3.110   9.173  1.2728  1.0309 -0.7188
   24CHL1   C17 1726   3.728   3.135   9.214  0.0779 -0.5537  0.2810
   24CHL1   H17 1727   3.695   3.241   9.206  0.9072 -0.3444 -0.6513
   24CHL1   C13 1728   3.802   3.125   9.352  0.0587  0.0848  0.3218
   24CHL1   C18 1729   3.881   2.996   9.354 -0.1957  0.5714 -0.2033
   24CHL1  H18A 1730   3.901   2.954   9.455 -0.9524  0.2675 -0.1700
   24CHL1  H18B 1731   3.838   2.912   9.294  1.3536 -0.4784  0.1090
   24CHL1  H18C 1732   3.981   3.001   9.306 -0.1929 -4.1032 -1.1651
   24CHL1   C12 1733   3.883   3.240   9.398  0.2365 -0.1865 -0.8236
   24CHL1  H12A 1734   3.984   3.243   9.352  0.2573 -1.5627 -0.9152
   24CHL1  H12B 1735   3.823   3.331   9.378  1.4622  0.2637 -2.6937
   24CHL1   C11 1736   3.915   3.229   9.554 -0.0851 -0.4542 -0.4604
   24CHL1  H11A 1737   3.975   3.137   9.568 -3.2076 -2.4646  0.7132
   24CHL1  H11B 1738   3.972   3.318   9.588  1.6635 -0.4380 -3.1351
   24CHL1    C9 1739   3.791   3.210   9.649 -0.0445 -0.2792 -0.7024
   24CHL1    H9 1740   3.724   3.298   9.654  0.1791 -0.1688  1.6419
   24CHL1   C10 1741   3.830   3.183   9.795  0.0316  0.0489 -0.9107
   24CHL1   C19 1742   3.911   3.046   9.804 -0.4074 -0.3013  0.3011
   24CHL1  H19A 1743   4.008   3.075   9.759 -1.1581  1.2563 -0.3727
   24CHL1  H19B 1744   3.928   3.006   9.907  2.7546  0.0448  0.0126
   24CHL1  H19C 1745   3.869   2.966   9.739  0.3523  0.9005 -1.7529
   24CHL1    C1 1746   3.904   3.300   9.868 -0.1434 -0.0831  0.6022
   24CHL1   H1A 1747   4.004   3.305   9.820 -1.5215  1.7366 -2.4140
   24CHL1   H1B 1748   3.866   3.401   9.842  0.0126  0.1980  1.4442
   24CHL1    C2 1749   3.913   3.294  10.021 -1.2066 -0.6142  0.4553
   24CHL1   H2A 1750   3.976   3.373  10.067 -1.7728 -1.1842  2.3200
   24CHL1   H2B 1751   3.965   3.199  10.043 -0.4630 -0.0841  1.0515
   24CHL1   C20 1752   3.824   3.123   9.089  0.6621  0.5994 -0.3815
   24CHL1   H20 1753   3.864   3.020   9.088 -0.6694 -0.0273  2.5406
   24CHL1   C21 1754   3.934   3.223   9.099  0.2724  0.3891  0.3848
   24CHL1  H21A 1755   3.884   3.314   9.137 -1.5017 -1.2205  2.1881
   24CHL1  H21B 1756   3.969   3.248   8.997  0.9556  0.6360  0.6714
   24CHL1  H21C 1757   4.015   3.189   9.167  1.5723  0.6258 -0.9921
   24CHL1   C22 1758   3.747   3.138   8.954  0.0520 -0.3126  0.0859
   24CHL1  H22A 1759   3.821   3.093   8.885  0.5289 -2.0315  1.6263
   24CHL1  H22B 1760   3.653   3.078   8.952 -0.1588  0.0377 -1.6059
   24CHL1   C23 1761   3.705   3.281   8.901  0.5493  0.4470  0.2000
   24CHL1  H23A 1762   3.636   3.318   8.980  1.6861 -0.2877  1.5789
   24CHL1  H23B 1763   3.795   3.345   8.890  0.9156  0.4141  2.4743
   24CHL1   C24 1764   3.637   3.282   8.760 -0.2725 -0.0759  0.0541
   24CHL1  H24A 1765   3.537   3.236   8.775 -0.8791  0.8561 -0.9794
   24CHL1  H24B 1766   3.630   3.391   8.742  0.0726 -0.1984 -0.8906
   24CHL1   C25 1767   3.725   3.211   8.654 -0.0797  0.1064 -0.3841
   24CHL1   H25 1768   3.759   3.112   8.692  1.1830  0.7562  0.2641
   24CHL1   C26 1769   3.658   3.193   8.525  0.7766  0.2536 -0.0114
   24CHL1  H26A 1770   3.727   3.148   8.451 -0.5186 -0.9048 -0.5493
   24CHL1  H26B 1771   3.574   3.121   8.538  1.9894 -1.0015  1.1890
   24CHL1  H26C 1772   3.628   3.291   8.480  2.2990  0.9396  0.3885
   24CHL1   C27 1773   3.856   3.291   8.630  0.4112  0.9120 -0.0116
   24CHL1  H27A 1774   3.926   3.290   8.717  0.3060  2.0866  0.0948
   24CHL1  H27B 1775   3.916   3.249   8.546 -1.4962  2.4711 -2.2636
   24CHL1  H27C 1776   3.831   3.396   8.605 -2.1790  0.7055  1.3988
   25CHL1    C3 1777   4.895   4.015  10.321  0.0710 -0.0510  0.2450
   25CHL1    H3 1778   4.813   4.079  10.282  0.0248 -1.2728 -1.8193
   25CHL1    O3 1779   4.918   4.046  10.453 -0.0525  0.5168 -0.1685
   25CHL1   H3' 1780   5.006   4.013  10.475 -0.1699  0.1427 -0.2465
   25CHL1    C4 1781   4.826   3.881  10.309 -0.1573  0.1398 -0.2524
   25CHL1   H4A 1782   4.889   3.811  10.368  1.0457 -1.0511 -2.7972
   25CHL1   H4B 1783   4.734   3.886  10.372  0.4483 -0.0139  0.6778
   25CHL1    C5 1784   4.815   3.827  10.165 -0.6407 -0.3168 -0.7561
   25CHL1    C6 1785   4.698   3.771  10.124 -0.6386  0.4811 -0.5948
   25CHL1    H6 1786   4.620   3.759  10.200 -0.9596 -0.3759 -1.0539
   25CHL1    C7 1787   4.673   3.722   9.984  0.1291  0.1262 -0.2305
   25CHL1   H7A 1788   4.616   3.626   9.979  0.3035  0.0050  0.0688
   25CHL1   H7B 1789   4.610   3.799   9.935 -0.4398  0.7127  1.3427
   25CHL1    C8 1790   4.807   3.695   9.908  0.6188 -0.2131 -0.2662
   25CHL1    H8 1791   4.862   3.607   9.948  0.8798  0.6165  1.2488
   25CHL1   C14 1792   4.784   3.674   9.755  0.5219  0.2711 -0.6515
   25CHL1   H14 1793   4.757   3.778   9.729 -1.3198  0.2913  1.0955
   25CHL1   C15 1794   4.669   3.580   9.717 -0.3493 -0.1845 -0.0427
   25CHL1  H15A 1795   4.678   3.490   9.781  3.1433  1.5104  2.1605
   25CHL1  H15B 1796   4.575   3.637   9.734 -0.0101  0.1892  0.6474
   25CHL1   C16 1797   4.699   3.545   9.573 -0.2864  0.0321 -0.1737
   25CHL1  H16A 1798   4.736   3.440   9.567  1.6679  0.6280  0.6667
   25CHL1  H16B 1799   4.620   3.568   9.499  0.6952  4.0319 -0.1893
   25CHL1   C17 1800   4.827   3.623   9.533  0.2284 -0.2541 -0.0447
   25CHL1   H17 1801   4.782   3.721   9.509  0.2295 -0.0637  0.7030
   25CHL1   C13 1802   4.906   3.651   9.668  0.4363  0.2914  0.0528
   25CHL1   C18 1803   4.984   3.524   9.712  0.2890  0.1935 -0.4098
   25CHL1  H18A 1804   5.071   3.503   9.647  0.5065 -0.2592  0.0187
   25CHL1  H18B 1805   5.013   3.542   9.818  0.0337 -2.2111  0.1276
   25CHL1  H18C 1806   4.917   3.436   9.721  1.1990 -0.5345 -0.6604
   25CHL1   C12 1807   4.988   3.779   9.674  0.3045 -0.1146 -0.2252
   25CHL1  H12A 1808   5.079   3.772   9.612 -0.2154  2.7300 -1.4870
   25CHL1  H12B 1809   4.928   3.862   9.630  0.7575  0.7157  0.6704
   25CHL1   C11 1810   5.022   3.813   9.825 -0.2838  0.2144  0.3270
   25CHL1  H11A 1811   5.100   3.743   9.864  1.5591  0.7633 -2.1328
   25CHL1  H11B 1812   5.078   3.909   9.833 -0.2926  0.0904  2.3441
   25CHL1    C9 1813   4.898   3.813   9.923 -0.3013 -0.5642  0.0384
   25CHL1    H9 1814   4.838   3.897   9.881 -1.4056 -1.5439 -0.4050
   25CHL1   C10 1815   4.938   3.844  10.072  0.4927  0.7973 -0.1693
   25CHL1   C19 1816   5.041   3.730  10.123  0.3433 -0.2012 -0.0132
   25CHL1  H19A 1817   5.010   3.626  10.100 -2.6448  0.7283 -0.6499
   25CHL1  H19B 1818   5.129   3.744  10.057 -0.4682 -0.5508 -1.1953
   25CHL1  H19C 1819   5.078   3.727  10.227  0.8085 -3.4702 -0.1862
   25CHL1    C1 1820   4.984   3.996  10.092 -0.9371  0.8007 -0.1377
   25CHL1   H1A 1821   5.076   4.000  10.029 -1.1565 -0.6512 -0.5725
   25CHL1   H1B 1822   4.902   4.064  10.059 -1.6555 -0.2998 -0.6635
   25CHL1    C2 1823   5.019   4.021  10.237  0.7606 -0.0808 -0.1660
   25CHL1   H2A 1824   5.068   4.121  10.240  1.1213 -0.2562 -0.1141
   25CHL1   H2B 1825   5.094   3.942  10.257  0.5260 -0.4533 -0.7142
   25CHL1   C20 1826   4.899   3.566   9.407 -0.1089  0.2873  0.3164
   25CHL1   H20 1827   4.944   3.469   9.438  0.2175  0.0063 -0.9879
   25CHL1   C21 1828   5.017   3.666   9.371  0.0335 -0.2238  0.2438
   25CHL1  H21A 1829   5.067   3.640   9.276  1.0902  2.1148  0.0961
   25CHL1  H21B 1830   5.097   3.674   9.448  0.0597  2.8382  0.0015
   25CHL1  H21C 1831   4.975   3.768   9.358  1.1588  0.1924 -0.1897
   25CHL1   C22 1832   4.816   3.535   9.286  0.2910  0.5284  0.2361
   25CHL1  H22A 1833   4.726   3.474   9.309 -0.8041  1.4522 -1.3963
   25CHL1  H22B 1834   4.774   3.626   9.240  1.2037 -0.5122 -2.9127
   25CHL1   C23 1835   4.895   3.470   9.171 -0.4897  0.5274  0.2394
   25CHL1  H23A 1836   4.955   3.550   9.123 -1.0154  1.1092  0.5468
   25CHL1  H23B 1837   4.969   3.393   9.202 -1.0963 -0.7599 -1.3858
   25CHL1   C24 1838   4.808   3.415   9.056 -0.2036  0.3810 -0.6649
   25CHL1  H24A 1839   4.728   3.350   9.099 -1.7340  2.9726  0.6644
   25CHL1  H24B 1840   4.750   3.487   8.994 -1.9921 -1.2605 -1.0073
   25CHL1   C25 1841   4.898   3.349   8.947  0.4134  0.3371  0.3411
   25CHL1   H25 1842   4.960   3.268   8.993 -0.5583 -0.3265  0.5021
   25CHL1   C26 1843   4.810   3.295   8.831  0.1090 -0.4349  0.1702
   25CHL1  H26A 1844   4.744   3.378   8.797  2.3940  0.7653 -1.5837
   25CHL1  H26B 1845   4.881   3.260   8.754  1.0409 -1.3660  1.4259
   25CHL1  H26C 1846   4.748   3.206   8.857  1.3403 -1.3345  0.1027
   25CHL1   C27 1847   4.990   3.451   8.880 -0.1003  0.1645  0.2064
   25CHL1  H27A 1848   5.050   3.518   8.945  0.6501 -1.6185  1.4389
   25CHL1  H27B 1849   5.061   3.391   8.820 -0.9185  0.1805 -0.8062
   25CHL1  H27C 1850   4.930   3.510   8.808  0.6803 -1.2879 -1.7166
   26CHL1    C3 1851   0.072   1.373  10.107  0.4536  0.1043  0.1077
   26CHL1    H3 1852   0.038   1.268  10.112  0.9135 -0.0358  0.3716
   26CHL1    O3 1853   0.090   1.422  10.241 -0.5311 -0.1847  0.0220
   26CHL1   H3' 1854   0.185   1.418  10.255 -0.5669  2.1100  1.3664
   26CHL1    C4 1855   0.203   1.394  10.030  0.2051  0.2708 -0.1212
   26CHL1   H4A 1856   0.233   1.500  10.049 -0.6905  0.9553 -2.2951
   26CHL1   H4B 1857   0.278   1.333  10.086 -0.1665  0.7042  0.8810
   26CHL1    C5 1858   0.192   1.379   9.880  0.0583 -0.0344  0.4530
   26CHL1    C6 1859   0.275   1.306   9.811 -0.6231  0.3261  0.1395
   26CHL1    H6 1860   0.361   1.253   9.853  0.1751  0.8400 -0.8034
   26CHL1    C7 1861   0.282   1.309   9.659 -0.1557 -0.1698  0.3748
   26CHL1   H7A 1862   0.382   1.333   9.616  0.3505 -1.5496  0.7201
   26CHL1   H7B 1863   0.259   1.208   9.617 -0.6442 -0.4080  1.2061
   26CHL1    C8 1864   0.181   1.404   9.590 -0.2690 -0.0717  0.6913
   26CHL1    H8 1865   0.236   1.501   9.585 -0.0874 -0.2370 -0.9831
   26CHL1   C14 1866   0.152   1.350   9.449 -0.7249  0.1095 -0.8271
   26CHL1   H14 1867   0.120   1.246   9.468 -1.1243  0.2854 -0.5091
   26CHL1   C15 1868   0.279   1.317   9.361 -0.7991 -0.6937  0.0591
   26CHL1  H15A 1869   0.347   1.405   9.366 -2.6315  0.7400  1.0226
   26CHL1  H15B 1870   0.334   1.224   9.386 -0.2603 -0.5517 -0.5545
   26CHL1   C16 1871   0.220   1.303   9.220  0.1458 -0.0392 -0.7048
   26CHL1  H16A 1872   0.272   1.377   9.156  0.3048 -0.0088 -0.5415
   26CHL1  H16B 1873   0.238   1.199   9.184  0.2136 -0.4169  0.3701
   26CHL1   C17 1874   0.071   1.349   9.227  0.2766  0.1163 -0.1251
   26CHL1   H17 1875   0.014   1.254   9.234 -1.4712  1.0589 -0.9712
   26CHL1   C13 1876   0.059   1.424   9.365  0.5661  0.2278 -0.1349
   26CHL1   C18 1877   0.108   1.569   9.342 -0.1974 -0.2653  0.0471
   26CHL1  H18A 1878   0.028   1.629   9.294 -0.5286  0.2011  1.1395
   26CHL1  H18B 1879   0.140   1.617   9.437 -0.9614  1.6958 -0.6398
   26CHL1  H18C 1880   0.203   1.573   9.284 -0.5227 -1.5908 -0.5957
   26CHL1   C12 1881  -0.077   1.424   9.448 -0.0423  0.4161 -0.1704
   26CHL1  H12A 1882  -0.161   1.476   9.397 -0.2206  1.4838  1.1526
   26CHL1  H12B 1883  -0.111   1.319   9.463  0.4478  0.4707  1.6320
   26CHL1   C11 1884  -0.064   1.475   9.589 -0.5566  0.1289  0.4694
   26CHL1  H11A 1885  -0.047   1.585   9.593 -0.4239  0.0901  1.0658
   26CHL1  H11B 1886  -0.164   1.452   9.632 -0.5076 -2.9505 -0.8323
   26CHL1    C9 1887   0.051   1.414   9.674  0.2211  0.8252  0.2950
   26CHL1    H9 1888   0.025   1.306   9.679  1.3576  0.3782 -2.0379
   26CHL1   C10 1889   0.074   1.457   9.816 -0.0262 -0.0645 -0.1873
   26CHL1   C19 1890   0.108   1.607   9.816  0.2851  0.6975 -0.6685
   26CHL1  H19A 1891   0.114   1.644   9.921  0.3246 -0.9753 -0.0498
   26CHL1  H19B 1892   0.209   1.632   9.775  1.1906 -2.3705 -0.5175
   26CHL1  H19C 1893   0.026   1.669   9.773 -2.3027 -0.0204  2.7493
   26CHL1    C1 1894  -0.054   1.431   9.904 -0.1187  0.3991  0.0828
   26CHL1   H1A 1895  -0.143   1.482   9.860 -1.6678 -1.4637  0.8898
   26CHL1   H1B 1896  -0.069   1.322   9.890  4.4121 -0.2201 -1.5235
   26CHL1    C2 1897  -0.036   1.453  10.046  0.9101 -0.4336  0.0964
   26CHL1   H2A 1898  -0.129   1.437  10.105  1.6566 -0.4319  1.3184
   26CHL1   H2B 1899  -0.008   1.560  10.061  0.2407  0.0217 -1.6854
   26CHL1   C20 1900   0.020   1.427   9.099  0.5167 -0.1979 -0.6921
   26CHL1   H20 1901   0.078   1.520   9.083 -2.1656  1.8800  0.7316
   26CHL1   C21 1902  -0.124   1.466   9.117  0.7934 -0.7415 -0.0439
   26CHL1  H21A 1903  -0.158   1.517   9.024  1.2959 -1.8882 -0.8859
   26CHL1  H21B 1904  -0.134   1.535   9.203 -4.0443  1.2702 -1.8372
   26CHL1  H21C 1905  -0.186   1.374   9.125  0.2865 -0.4107 -0.1402
   26CHL1   C22 1906   0.037   1.340   8.973 -0.1573 -0.6791  0.0226
   26CHL1  H22A 1907   0.140   1.298   8.973 -0.5297 -1.6629 -1.9374
   26CHL1  H22B 1908  -0.030   1.253   8.963 -1.3543 -0.1275  2.3713
   26CHL1   C23 1909   0.031   1.426   8.838 -0.9791 -0.3920  0.1542
   26CHL1  H23A 1910  -0.071   1.461   8.813 -1.4699 -0.5809  1.7763
   26CHL1  H23B 1911   0.102   1.509   8.862 -0.1057 -0.9854 -0.3313
   26CHL1   C24 1912   0.089   1.352   8.713 -0.1183  0.0690  0.2000
   26CHL1  H24A 1913   0.186   1.305   8.738  0.4723  1.7351  1.2126
   26CHL1  H24B 1914   0.024   1.269   8.678  0.7249 -1.2246  1.6108
   26CHL1   C25 1915   0.125   1.448   8.591 -0.7625  0.2526  0.2105
   26CHL1   H25 1916   0.165   1.544   8.631 -3.0970  1.0937  0.6914
   26CHL1   C26 1917   0.222   1.381   8.496 -0.1649  0.0912 -0.1605
   26CHL1  H26A 1918   0.307   1.340   8.554 -0.5461 -0.9969 -0.3534
   26CHL1  H26B 1919   0.158   1.301   8.452 -0.4747  0.3352 -0.1602
   26CHL1  H26C 1920   0.250   1.452   8.415 -1.5590 -0.3037 -1.0354
   26CHL1   C27 1921  -0.010   1.488   8.521  0.0609  0.5182 -0.4731
   26CHL1  H27A 1922  -0.087   1.545   8.577  0.8913  0.6143  0.5980
   26CHL1  H27B 1923   0.013   1.555   8.435  1.8503  0.4677 -0.0795
   26CHL1  H27C 1924  -0.060   1.400   8.474  0.0926  1.7396 -3.0003
   27CHL1    C3 1925   6.105   3.068  10.292 -0.2366  0.0221 -0.6723
   27CHL1    H3 1926   6.206   3.022  10.291 -0.7619 -1.1887 -0.0177
   27CHL1    O3 1927   6.063   3.071  10.431 -0.0202  0.3866 -0.1271
   27CHL1   H3' 1928   5.998   3.141  10.444  0.4319  0.5817  1.2668
   27CHL1    C4 1929   6.095   3.213  10.231  0.3428  0.5511 -0.8322
   27CHL1   H4A 1930   5.998   3.257  10.260  0.7598  1.1876 -0.3557
   27CHL1   H4B 1931   6.174   3.270  10.285 -1.8706  0.4752  2.8391
   27CHL1    C5 1932   6.108   3.218  10.086 -0.8162  0.0298  0.9061
   27CHL1    C6 1933   6.195   3.293  10.020 -0.5313 -0.3991 -0.2386
   27CHL1    H6 1934   6.256   3.361  10.081 -1.4734  3.3027 -3.0268
   27CHL1    C7 1935   6.221   3.300   9.874 -0.7346  0.3353  0.0849
   27CHL1   H7A 1936   6.226   3.406   9.839 -0.5216  0.4145  0.3519
   27CHL1   H7B 1937   6.323   3.260   9.860 -0.3896  1.5993 -1.4091
   27CHL1    C8 1938   6.107   3.234   9.791 -0.4827 -0.2305 -0.5929
   27CHL1    H8 1939   6.018   3.299   9.794 -0.0741  0.3050  0.5327
   27CHL1   C14 1940   6.147   3.199   9.655  0.4705 -0.0976  0.5254
   27CHL1   H14 1941   6.219   3.117   9.675 -0.0095 -0.6115  0.1760
   27CHL1   C15 1942   6.214   3.307   9.583  0.1446  0.0504  0.3606
   27CHL1  H15A 1943   6.173   3.408   9.602  3.6861  1.3474  2.0731
   27CHL1  H15B 1944   6.322   3.302   9.609  0.0132 -1.1027  0.7298
   27CHL1   C16 1945   6.200   3.289   9.432  0.2220  0.3866  0.4656
   27CHL1  H16A 1946   6.154   3.372   9.374 -3.0478 -1.3456  0.2999
   27CHL1  H16B 1947   6.292   3.276   9.372 -0.4747 -0.1261 -0.5224
   27CHL1   C17 1948   6.117   3.158   9.416  0.6902  0.4736  0.2325
   27CHL1   H17 1949   6.189   3.074   9.425 -0.0692 -0.1675  0.4865
   27CHL1   C13 1950   6.047   3.145   9.560 -0.3095  1.2657  0.4466
   27CHL1   C18 1951   5.917   3.229   9.551 -0.2052 -0.0148 -0.5129
   27CHL1  H18A 1952   5.844   3.167   9.495 -0.6726  1.5145 -1.6957
   27CHL1  H18B 1953   5.881   3.261   9.651 -0.2116 -1.4030 -0.0505
   27CHL1  H18C 1954   5.938   3.326   9.501 -0.5063 -0.0502 -0.7122
   27CHL1   C12 1955   5.998   3.004   9.616 -0.7106  0.1793 -0.5824
   27CHL1  H12A 1956   5.913   2.948   9.573 -0.6751 -1.6906  1.6044
   27CHL1  H12B 1957   6.088   2.939   9.626  0.0930  1.5330  2.1731
   27CHL1   C11 1958   5.964   3.011   9.772  0.0865 -0.0331 -0.0198
   27CHL1  H11A 1959   5.860   3.051   9.776 -0.1023  0.2384 -4.1354
   27CHL1  H11B 1960   5.967   2.906   9.810 -2.2289  0.2236  1.0594
   27CHL1    C9 1961   6.062   3.100   9.862  0.1506  0.6103  0.5446
   27CHL1    H9 1962   6.155   3.039   9.861 -1.2293 -1.6160  0.9013
   27CHL1   C10 1963   6.020   3.119  10.011 -0.5193  0.2882  0.0061
   27CHL1   C19 1964   5.879   3.181  10.031 -0.8284  0.4172  0.5293
   27CHL1  H19A 1965   5.849   3.189  10.138 -1.3585 -0.5845  0.4716
   27CHL1  H19B 1966   5.870   3.279   9.981  1.9142  1.2010  1.3583
   27CHL1  H19C 1967   5.815   3.107   9.978  1.7188 -2.2693  0.9556
   27CHL1    C1 1968   6.018   2.982  10.069  0.6294 -0.0177  0.2653
   27CHL1   H1A 1969   5.942   2.911  10.028  2.5168 -0.9822 -1.7753
   27CHL1   H1B 1970   6.115   2.939  10.035  0.2466  0.1375 -1.0808
   27CHL1    C2 1971   6.009   2.969  10.225  0.2721 -0.1342 -0.5251
   27CHL1   H2A 1972   6.020   2.862  10.252  0.4349  0.4175  1.8384
   27CHL1   H2B 1973   5.905   2.997  10.253  0.9879  0.5353  1.7114
   27CHL1   C20 1974   6.032   3.142   9.290  0.3373  0.2520  0.2658
   27CHL1   H20 1975   5.950   3.217   9.286  0.7440  0.6785 -3.3970
   27CHL1   C21 1976   5.963   3.000   9.302  0.0430  0.1185  0.2066
   27CHL1  H21A 1977   6.052   2.936   9.326 -1.3395 -1.4355  1.4719
   27CHL1  H21B 1978   5.910   2.983   9.206 -0.1745  1.0306  0.1623
   27CHL1  H21C 1979   5.891   3.001   9.386  0.3034  1.3004  0.4361
   27CHL1   C22 1980   6.119   3.145   9.163  0.5141 -0.2606  0.5949
   27CHL1  H22A 1981   6.182   3.236   9.162 -1.1604  0.9564 -1.0921
   27CHL1  H22B 1982   6.194   3.062   9.159  2.4416  1.2914  2.3207
   27CHL1   C23 1983   6.033   3.126   9.029  0.5133  0.0667  0.2476
   27CHL1  H23A 1984   6.092   3.117   8.935 -0.3947  2.3428 -0.6153
   27CHL1  H23B 1985   5.971   3.034   9.032 -0.2713  0.5978  1.1282
   27CHL1   C24 1986   5.953   3.250   9.004  0.3213 -0.4433 -0.3401
   27CHL1  H24A 1987   5.881   3.274   9.086  0.6636  0.8618 -0.4019
   27CHL1  H24B 1988   6.019   3.339   9.003 -1.0967  0.7093  1.1158
   27CHL1   C25 1989   5.889   3.251   8.868 -0.6409  0.3072  0.4457
   27CHL1   H25 1990   5.958   3.207   8.793 -2.0285  0.3851 -0.9458
   27CHL1   C26 1991   5.762   3.161   8.864  0.8521 -0.2742 -0.4517
   27CHL1  H26A 1992   5.781   3.060   8.905 -0.1293 -0.1503  0.3642
   27CHL1  H26B 1993   5.689   3.207   8.934 -0.7842 -2.4484 -0.6261
   27CHL1  H26C 1994   5.718   3.153   8.763  1.1123  0.9232 -0.6731
   27CHL1   C27 1995   5.844   3.386   8.810  0.8528 -0.7386 -0.5880
   27CHL1  H27A 1996   5.929   3.444   8.769  0.5733  0.0434 -0.0826
   27CHL1  H27B 1997   5.774   3.366   8.726 -1.2964  2.7197  0.1888
   27CHL1  H27C 1998   5.781   3.443   8.881 -0.4871 -1.1618 -1.3952
   28CHL1    C3 1999   5.472   2.114  10.268 -0.2217 -0.9447  0.8165
   28CHL1    H3 2000   5.375   2.071  10.235 -0.2849 -0.7021  0.6819
   28CHL1    O3 2001   5.499   2.088  10.403 -0.1661  0.5491 -0.2399
   28CHL1   H3' 2002   5.552   2.161  10.435  3.0031 -1.7619  0.3075
   28CHL1    C4 2003   5.587   2.043  10.188 -0.2681  0.2381  0.0248
   28CHL1   H4A 2004   5.683   2.092  10.216 -0.4828  0.1637  0.8978
   28CHL1   H4B 2005   5.586   1.934  10.208  1.7903 -0.7552 -4.0919
   28CHL1    C5 2006   5.588   2.057  10.041 -0.6653 -0.1949  0.0163
   28CHL1    C6 2007   5.594   1.954   9.965 -0.0427  0.2030  0.5606
   28CHL1    H6 2008   5.598   1.859  10.020 -0.0814  0.1436  0.4593
   28CHL1    C7 2009   5.593   1.948   9.817  0.0402 -0.9058  0.3124
   28CHL1   H7A 2010   5.691   1.902   9.788 -0.6339 -1.5885 -1.0006
   28CHL1   H7B 2011   5.504   1.897   9.776 -0.4089 -1.5227  1.9773
   28CHL1    C8 2012   5.595   2.090   9.753 -0.5182  0.3198 -1.1458
   28CHL1    H8 2013   5.701   2.123   9.751 -0.6814  1.0735  0.7857
   28CHL1   C14 2014   5.531   2.081   9.609 -0.6363  0.3380 -0.9468
   28CHL1   H14 2015   5.422   2.062   9.620 -1.0912  1.2523 -3.2915
   28CHL1   C15 2016   5.594   1.977   9.514  0.5497 -0.5619 -0.0695
   28CHL1  H15A 2017   5.705   1.979   9.522  0.6064  0.4843 -0.9723
   28CHL1  H15B 2018   5.555   1.877   9.545 -2.0968  0.7945  1.2982
   28CHL1   C16 2019   5.538   2.020   9.380 -0.3699 -0.4946 -0.3220
   28CHL1  H16A 2020   5.622   2.031   9.307 -3.0551  2.4497 -3.2976
   28CHL1  H16B 2021   5.456   1.953   9.347 -1.6251  1.7731 -2.2057
   28CHL1   C17 2022   5.478   2.166   9.401  0.2917  0.1293  0.5810
   28CHL1   H17 2023   5.371   2.148   9.422  0.1707  1.8750  1.6615
   28CHL1   C13 2024   5.542   2.214   9.538 -0.1674 -0.6382 -0.2375
   28CHL1   C18 2025   5.691   2.257   9.530 -0.1767 -0.0638 -0.5273
   28CHL1  H18A 2026   5.742   2.281   9.625 -2.0979 -0.5621  0.6811
   28CHL1  H18B 2027   5.755   2.182   9.479  3.0441  0.2784  2.6714
   28CHL1  H18C 2028   5.704   2.348   9.467  0.5798 -1.1280 -1.9669
   28CHL1   C12 2029   5.457   2.319   9.625  0.3644  0.3182  0.4316
   28CHL1  H12A 2030   5.479   2.419   9.581 -0.9971  0.3770 -0.1784
   28CHL1  H12B 2031   5.348   2.298   9.620  0.5741 -0.9884  0.9947
   28CHL1   C11 2032   5.505   2.327   9.766 -0.2646 -0.3679 -0.3878
   28CHL1  H11A 2033   5.598   2.388   9.772 -1.5920  1.6243  0.8919
   28CHL1  H11B 2034   5.431   2.383   9.827 -0.3541  0.8944 -1.6066
   28CHL1    C9 2035   5.514   2.187   9.836 -0.1455 -0.3894 -0.2117
   28CHL1    H9 2036   5.414   2.140   9.831  0.5234 -2.1984  1.8772
   28CHL1   C10 2037   5.559   2.200   9.984 -0.4619  0.7599  0.1822
   28CHL1   C19 2038   5.693   2.272   9.988  0.5355 -0.0409 -0.1887
   28CHL1  H19A 2039   5.679   2.380   9.964  2.4055  0.2155 -0.2488
   28CHL1  H19B 2040   5.725   2.274  10.094 -0.8038 -0.1490  0.2346
   28CHL1  H19C 2041   5.761   2.214   9.921  3.2717  0.7042  1.7653
   28CHL1    C1 2042   5.455   2.275  10.077  0.4140  0.0125 -0.2257
   28CHL1   H1A 2043   5.438   2.382  10.049 -1.0196 -0.1600 -0.0890
   28CHL1   H1B 2044   5.358   2.234  10.041  0.7858  0.8206 -2.2780
   28CHL1    C2 2045   5.470   2.265  10.225  0.2274  0.6163 -0.8342
   28CHL1   H2A 2046   5.378   2.301  10.276  0.2574  0.9108 -0.9895
   28CHL1   H2B 2047   5.557   2.321  10.265 -0.1433  0.0025  0.9343
   28CHL1   C20 2048   5.480   2.257   9.279  0.4576  0.6098  0.5654
   28CHL1   H20 2049   5.586   2.281   9.257  0.0876  1.6093 -0.2069
   28CHL1   C21 2050   5.397   2.390   9.297  0.0901 -0.0940 -0.0067
   28CHL1  H21A 2051   5.437   2.444   9.386  0.6242 -1.4373  0.6106
   28CHL1  H21B 2052   5.291   2.362   9.315  0.2994 -0.7447  0.2732
   28CHL1  H21C 2053   5.409   2.450   9.205  0.1952  2.0844  1.3621
   28CHL1   C22 2054   5.432   2.193   9.143  0.0403  1.1964 -0.0966
   28CHL1  H22A 2055   5.487   2.100   9.117 -1.1657  0.6944 -0.9304
   28CHL1  H22B 2056   5.323   2.174   9.154  0.1182  1.7592  2.1963
   28CHL1   C23 2057   5.439   2.276   9.015 -0.1809 -0.0665  0.1562
   28CHL1  H23A 2058   5.357   2.351   9.014  0.2508  0.4269  0.6215
   28CHL1  H23B 2059   5.544   2.311   9.009  0.2795 -1.6122 -2.2129
   28CHL1   C24 2060   5.429   2.188   8.886 -0.6689 -0.2492 -1.1808
   28CHL1  H24A 2061   5.517   2.124   8.867  0.1702  0.6454 -0.4028
   28CHL1  H24B 2062   5.341   2.122   8.904 -0.0292 -0.4361  1.6142
   28CHL1   C25 2063   5.411   2.276   8.764 -0.3190 -0.6372  0.4696
   28CHL1   H25 2064   5.320   2.337   8.787  1.3237  1.0233  3.2256
   28CHL1   C26 2065   5.513   2.389   8.750  0.0414  0.8171  0.4843
   28CHL1  H26A 2066   5.520   2.463   8.833 -1.2608 -0.2556  1.5890
   28CHL1  H26B 2067   5.617   2.351   8.740  0.0523  0.9307  0.1394
   28CHL1  H26C 2068   5.502   2.452   8.659 -0.3062 -0.6520 -0.5197
   28CHL1   C27 2069   5.396   2.181   8.643 -0.1427 -0.0242 -0.5491
   28CHL1  H27A 2070   5.356   2.236   8.555 -2.5183  0.0478  0.5103
   28CHL1  H27B 2071   5.490   2.141   8.599 -0.4506 -1.2745 -0.0942
   28CHL1  H27C 2072   5.318   2.110   8.678  1.3771 -0.3423  2.5207
   29CHL1    C3 2073   1.725   0.174   6.798 -0.4171  0.7850  1.3497
   29CHL1    H3 2074   1.615   0.183   6.806 -0.4042  1.9046  0.5039
   29CHL1    O3 2075   1.754   0.193   6.661 -0.0386  0.4126  0.2595
   29CHL1   H3' 2076   1.678   0.156   6.616 -0.0861  0.7401  0.0675
   29CHL1    C4 2077   1.789   0.281   6.875  0.8294  0.3768 -0.0041
   29CHL1   H4A 2078   1.898   0.275   6.857  1.1906  0.8420  1.8367
   29CHL1   H4B 2079   1.748   0.372   6.827 -0.3742 -1.1497 -2.0351
   29CHL1    C5 2080   1.763   0.277   7.021  0.1047 -0.0955  0.0041
   29CHL1    C6 2081   1.708   0.383   7.075 -0.1682  0.2595 -0.0439
   29CHL1    H6 2082   1.681   0.473   7.018 -2.3010 -0.5658 -0.4169
   29CHL1    C7 2083   1.675   0.384   7.224  0.0254  0.0672  0.4243
   29CHL1   H7A 2084   1.705   0.480   7.272 -1.5379 -0.2957  2.2593
   29CHL1   H7B 2085   1.564   0.380   7.230 -0.1545 -0.8130 -2.3346
   29CHL1    C8 2086   1.739   0.265   7.298  0.6243 -0.4148  0.2841
   29CHL1    H8 2087   1.844   0.296   7.313  0.5075 -0.4438  1.2238
   29CHL1   C14 2088   1.661   0.246   7.430 -0.5294 -0.4224 -0.9209
   29CHL1   H14 2089   1.556   0.223   7.405 -1.2978 -0.0888  1.6820
   29CHL1   C15 2090   1.650   0.371   7.522  0.7056  0.4026 -0.1956
   29CHL1  H15A 2091   1.753   0.411   7.535  1.3558 -1.1964 -0.2364
   29CHL1  H15B 2092   1.587   0.450   7.476 -1.6066 -1.8459 -1.1238
   29CHL1   C16 2093   1.604   0.312   7.659 -0.1492 -0.0348  0.5859
   29CHL1  H16A 2094   1.664   0.359   7.739 -1.0785  0.6354  0.9093
   29CHL1  H16B 2095   1.496   0.330   7.675 -0.0399  1.5758 -0.2479
   29CHL1   C17 2096   1.630   0.156   7.656 -0.5081 -0.7478  0.3889
   29CHL1   H17 2097   1.530   0.113   7.632 -1.2507  0.6015  0.9610
   29CHL1   C13 2098   1.724   0.144   7.527  0.2942 -1.2880  0.4716
   29CHL1   C18 2099   1.873   0.177   7.566 -0.5202 -0.3505  0.1188
   29CHL1  H18A 2100   1.935   0.245   7.503  1.5905  0.2796  2.6647
   29CHL1  H18B 2101   1.869   0.237   7.659  0.0645  1.9456 -1.2480
   29CHL1  H18C 2102   1.933   0.087   7.590  2.6802  1.5155 -0.2724
   29CHL1   C12 2103   1.712   0.010   7.455 -0.5084 -0.6984  0.0223
   29CHL1  H12A 2104   1.750  -0.068   7.525 -3.3559 -1.6439  0.6421
   29CHL1  H12B 2105   1.603  -0.010   7.453 -0.6345  0.0247 -1.2795
   29CHL1   C11 2106   1.787   0.018   7.315  0.4587 -0.0696 -1.7431
   29CHL1  H11A 2107   1.898   0.024   7.322  0.3540 -0.2089  1.7822
   29CHL1  H11B 2108   1.772  -0.077   7.258 -0.7762 -0.5871 -0.6122
   29CHL1    C9 2109   1.734   0.131   7.221 -0.9584 -0.3386  0.0007
   29CHL1    H9 2110   1.624   0.120   7.208 -0.9105 -1.2221  0.2915
   29CHL1   C10 2111   1.792   0.137   7.082  0.3876 -0.1319  0.1079
   29CHL1   C19 2112   1.948   0.116   7.083 -0.2542  0.0874 -0.6718
   29CHL1  H19A 2113   1.996   0.183   7.157 -0.4612 -2.0073  1.4936
   29CHL1  H19B 2114   1.967   0.014   7.123  0.6065  0.7304  0.6281
   29CHL1  H19C 2115   1.998   0.137   6.986 -2.5302 -1.5081 -2.2949
   29CHL1    C1 2116   1.728   0.018   6.999 -0.3247 -0.6689  0.4573
   29CHL1   H1A 2117   1.759  -0.079   7.043 -0.4891 -0.2229  1.5957
   29CHL1   H1B 2118   1.620   0.040   7.010  0.1814  2.9742 -0.2709
   29CHL1    C2 2119   1.763   0.029   6.848 -0.8641  0.8358 -1.0366
   29CHL1   H2A 2120   1.692  -0.039   6.798  0.4588 -1.1960 -0.2664
   29CHL1   H2B 2121   1.870   0.002   6.834 -0.3629  0.6358  2.2432
   29CHL1   C20 2122   1.669   0.114   7.802  0.1347  1.4389  0.1328
   29CHL1   H20 2123   1.772   0.152   7.817  0.4742  1.1439 -1.3344
   29CHL1   C21 2124   1.684  -0.040   7.810 -0.0326 -0.0559  0.3159
   29CHL1  H21A 2125   1.738  -0.071   7.718  0.7287  1.5525  0.1847
   29CHL1  H21B 2126   1.586  -0.093   7.812  0.3588 -0.8434 -0.6166
   29CHL1  H21C 2127   1.745  -0.080   7.894 -0.4607 -2.4891 -0.4544
   29CHL1   C22 2128   1.571   0.163   7.911 -0.4809  0.0489 -0.3974
   29CHL1  H22A 2129   1.566   0.274   7.919 -0.7257 -0.0825  3.8982
   29CHL1  H22B 2130   1.467   0.139   7.880 -0.5424 -0.4279  0.1380
   29CHL1   C23 2131   1.599   0.132   8.066 -0.6673 -0.0081 -0.3508
   29CHL1  H23A 2132   1.511   0.186   8.106 -0.7823 -1.1569  1.0074
   29CHL1  H23B 2133   1.597   0.022   8.081  3.3208 -0.0697  0.9665
   29CHL1   C24 2134   1.728   0.176   8.138 -0.0716  0.1733 -0.7539
   29CHL1  H24A 2135   1.711   0.161   8.246 -0.4759 -1.4685 -1.0194
   29CHL1  H24B 2136   1.814   0.121   8.093 -1.2456 -0.9834 -1.6620
   29CHL1   C25 2137   1.756   0.330   8.131  0.5348  0.1983  0.1442
   29CHL1   H25 2138   1.743   0.359   8.024  0.8192 -0.3502 -0.0457
   29CHL1   C26 2139   1.657   0.414   8.223  0.5535 -0.0762  0.0770
   29CHL1  H26A 2140   1.654   0.364   8.322  0.6620 -0.8605 -0.3088
   29CHL1  H26B 2141   1.687   0.520   8.239  0.5492 -0.2695  1.4612
   29CHL1  H26C 2142   1.561   0.416   8.167  1.1498  1.4737 -0.9626
   29CHL1   C27 2143   1.900   0.350   8.178  0.3952  0.0687 -0.3445
   29CHL1  H27A 2144   1.927   0.457   8.179  3.0873 -0.5334  0.2650
   29CHL1  H27B 2145   1.922   0.311   8.280  1.7549  0.8215 -0.3252
   29CHL1  H27C 2146   1.969   0.303   8.105 -0.1572  0.6331 -1.2517
   30CHL1    C3 2147   0.001   5.129   7.326 -0.2076 -0.5469  0.0899
   30CHL1    H3 2148   0.054   5.037   7.293  0.1618 -0.6227  0.8569
   30CHL1    O3 2149  -0.061   5.198   7.214 -0.0208 -0.2783 -0.4556
   30CHL1   H3' 2150   0.009   5.202   7.149 -0.7301  1.2103 -1.1619
   30CHL1    C4 2151  -0.112   5.102   7.429  0.3331  0.2326 -0.1412
   30CHL1   H4A 2152  -0.176   5.191   7.446 -0.6864 -0.6221  0.7218
   30CHL1   H4B 2153  -0.180   5.027   7.383 -1.6494  2.1559 -0.5113
   30CHL1    C5 2154  -0.068   5.050   7.564  0.4425 -1.1882  0.2909
   30CHL1    C6 2155  -0.099   4.927   7.612 -0.5286  0.1988  0.3993
   30CHL1    H6 2156  -0.168   4.857   7.562 -2.1078  0.8939  1.5340
   30CHL1    C7 2157  -0.046   4.875   7.748 -0.7086 -0.3096  0.5604
   30CHL1   H7A 2158  -0.126   4.821   7.803 -0.7016 -2.0046 -1.0231
   30CHL1   H7B 2159   0.038   4.805   7.734 -1.0807 -0.7395  0.4508
   30CHL1    C8 2160   0.005   4.990   7.836  0.5143  0.3148  0.1714
   30CHL1    H8 2161  -0.083   5.052   7.861  1.4312  0.4732  3.3800
   30CHL1   C14 2162   0.063   4.938   7.968  0.1945 -0.1257 -0.4802
   30CHL1   H14 2163   0.157   4.885   7.941 -0.6292 -0.6302 -2.5413
   30CHL1   C15 2164  -0.024   4.853   8.061 -0.4731  0.1098 -0.0416
   30CHL1  H15A 2165  -0.122   4.904   8.073 -0.2682  0.0285  2.3371
   30CHL1  H15B 2166  -0.023   4.752   8.015  1.5818  0.2947 -0.4999
   30CHL1   C16 2167   0.033   4.865   8.199 -0.7189  0.3504 -0.1833
   30CHL1  H16A 2168  -0.045   4.893   8.274 -0.9348  0.6236 -0.5116
   30CHL1  H16B 2169   0.082   4.773   8.238  1.6038  1.2991 -0.7234
   30CHL1   C17 2170   0.145   4.975   8.197 -0.3199  1.2056 -0.0786
   30CHL1   H17 2171   0.246   4.933   8.175 -0.2178  2.2909 -1.9163
   30CHL1   C13 2172   0.119   5.056   8.063  0.4258 -0.0033 -0.2217
   30CHL1   C18 2173   0.008   5.158   8.096  0.0754  0.0851 -0.3296
   30CHL1  H18A 2174  -0.044   5.187   8.002  0.7766  0.8857 -0.4772
   30CHL1  H18B 2175  -0.060   5.101   8.163 -0.1262 -0.5417 -1.0589
   30CHL1  H18C 2176   0.044   5.252   8.144 -0.7146  0.0529  0.3559
   30CHL1   C12 2177   0.230   5.121   7.980  0.2274 -0.5205  0.1433
   30CHL1  H12A 2178   0.284   5.201   8.035  2.4044 -1.0823 -1.0431
   30CHL1  H12B 2179   0.306   5.041   7.967  0.3044 -0.5653  0.8133
   30CHL1   C11 2180   0.183   5.174   7.844 -0.0277 -0.2520 -0.2134
   30CHL1  H11A 2181   0.127   5.264   7.876  0.8546  0.1542  0.2217
   30CHL1  H11B 2182   0.277   5.206   7.794  0.4804  0.2395  1.0204
   30CHL1    C9 2183   0.102   5.077   7.757  0.5309 -0.2642 -1.0399
   30CHL1    H9 2184   0.182   5.010   7.719  2.4482  0.3084  1.6489
   30CHL1   C10 2185   0.038   5.146   7.633  0.3793  0.9314  0.4098
   30CHL1   C19 2186  -0.033   5.279   7.666  0.0106 -0.4532  0.0649
   30CHL1  H19A 2187   0.043   5.348   7.710 -0.3759 -0.9936  1.6724
   30CHL1  H19B 2188  -0.084   5.326   7.580 -0.2867  1.1508  1.0797
   30CHL1  H19C 2189  -0.112   5.259   7.742  0.7219  2.1609  1.6046
   30CHL1    C1 2190   0.155   5.181   7.529  0.3280 -0.0358  0.3168
   30CHL1   H1A 2191   0.217   5.258   7.579  0.4717 -1.7386  2.9558
   30CHL1   H1B 2192   0.213   5.088   7.512  0.9639  0.5253 -0.7346
   30CHL1    C2 2193   0.108   5.226   7.387  0.2046 -0.1290 -0.4725
   30CHL1   H2A 2194   0.193   5.247   7.320  0.5907  0.6481  0.2473
   30CHL1   H2B 2195   0.064   5.328   7.391  0.9212  0.1591  0.5425
   30CHL1   C20 2196   0.178   5.041   8.334 -0.5106  0.1493  0.2817
   30CHL1   H20 2197   0.095   5.114   8.333 -0.3736  0.3002 -0.5372
   30CHL1   C21 2198   0.302   5.137   8.324 -0.8027  0.6829 -0.8731
   30CHL1  H21A 2199   0.304   5.201   8.414  1.7349  1.2634 -1.2673
   30CHL1  H21B 2200   0.289   5.207   8.239 -0.5738  0.8875 -0.7388
   30CHL1  H21C 2201   0.404   5.093   8.319 -1.0867 -0.3933  1.5446
   30CHL1   C22 2202   0.177   4.954   8.457 -0.3437  0.3313 -0.2715
   30CHL1  H22A 2203   0.180   5.022   8.545  0.2055  0.0334 -0.0549
   30CHL1  H22B 2204   0.086   4.891   8.463  1.5371 -2.4974  0.5651
   30CHL1   C23 2205   0.292   4.846   8.466 -0.2383 -0.0043 -0.3018
   30CHL1  H23A 2206   0.282   4.795   8.368 -3.8264  0.7679 -0.4715
   30CHL1  H23B 2207   0.387   4.903   8.461 -1.1500  1.6126 -0.0531
   30CHL1   C24 2208   0.280   4.748   8.592 -0.0980 -0.1681  0.6668
   30CHL1  H24A 2209   0.287   4.810   8.684  1.2199  1.0355 -0.1891
   30CHL1  H24B 2210   0.184   4.694   8.593 -0.8500  1.1326  0.7646
   30CHL1   C25 2211   0.399   4.652   8.578  0.1964 -0.4371 -0.1350
   30CHL1   H25 2212   0.381   4.613   8.475  0.1809 -0.2481 -0.2056
   30CHL1   C26 2213   0.547   4.711   8.578 -0.1617  0.3463 -0.0125
   30CHL1  H26A 2214   0.561   4.786   8.659 -4.5711  0.7314  0.6795
   30CHL1  H26B 2215   0.622   4.629   8.576  0.6672  1.0796  0.3000
   30CHL1  H26C 2216   0.553   4.753   8.475  1.0789  1.1739  0.3787
   30CHL1   C27 2217   0.384   4.535   8.677  0.6840  0.5605 -0.6075
   30CHL1  H27A 2218   0.391   4.565   8.784  0.3269 -3.3542  0.6575
   30CHL1  H27B 2219   0.283   4.492   8.661  0.7872  0.5295 -1.1777
   30CHL1  H27C 2220   0.449   4.451   8.645  0.3445 -0.2558  0.7544
   31CHL1    C3 2221   0.027   0.777   6.629 -0.5604  0.7791 -0.5640
   31CHL1    H3 2222   0.132   0.810   6.614 -0.6205  0.8396 -0.8683
   31CHL1    O3 2223  -0.022   0.747   6.498  0.6803  0.0351 -0.0114
   31CHL1   H3' 2224  -0.109   0.714   6.518  0.2472  1.4724  0.5938
   31CHL1    C4 2225   0.009   0.660   6.730 -0.7631  0.0218  0.5499
   31CHL1   H4A 2226  -0.101   0.649   6.745 -0.7270  0.1873  0.9473
   31CHL1   H4B 2227   0.042   0.562   6.689 -1.7765  0.1386 -0.5926
   31CHL1    C5 2228   0.075   0.697   6.860 -0.3103 -0.5289 -0.0089
   31CHL1    C6 2229   0.186   0.626   6.893  1.1488 -0.3490 -0.6051
   31CHL1    H6 2230   0.224   0.547   6.826 -1.3394 -1.6119 -0.6240
   31CHL1    C7 2231   0.258   0.650   7.026  0.2519 -0.3712  0.1606
   31CHL1   H7A 2232   0.270   0.553   7.078  2.3001 -1.2805 -1.8521
   31CHL1   H7B 2233   0.358   0.692   7.002  1.4712 -2.6071  1.1192
   31CHL1    C8 2234   0.191   0.753   7.119  0.0198  0.1466 -0.5767
   31CHL1    H8 2235   0.120   0.703   7.188  2.3758 -1.2661  0.9754
   31CHL1   C14 2236   0.298   0.812   7.212 -0.1040 -0.4021  0.4830
   31CHL1   H14 2237   0.375   0.860   7.149 -0.0824 -0.8343  0.1728
   31CHL1   C15 2238   0.389   0.706   7.283  0.1118 -0.6467  0.2489
   31CHL1  H15A 2239   0.330   0.622   7.324  0.5680 -0.6450  0.9256
   31CHL1  H15B 2240   0.468   0.655   7.224  0.1454 -0.4030  0.0835
   31CHL1   C16 2241   0.448   0.780   7.404  0.5635 -0.1190  0.7368
   31CHL1  H16A 2242   0.414   0.729   7.497  0.0488  0.1857  0.7195
   31CHL1  H16B 2243   0.559   0.781   7.400  0.6136 -1.1683  1.5924
   31CHL1   C17 2244   0.390   0.926   7.396 -0.0184 -0.0124 -0.0920
   31CHL1   H17 2245   0.447   0.995   7.330  0.5644 -1.0453 -0.7049
   31CHL1   C13 2246   0.252   0.906   7.323 -0.0346  0.3539 -0.1748
   31CHL1   C18 2247   0.141   0.852   7.412 -0.8010 -0.7889  0.4727
   31CHL1  H18A 2248   0.119   0.944   7.470  2.1009  0.8517 -0.7913
   31CHL1  H18B 2249   0.055   0.803   7.362 -2.0329 -0.5609  2.2649
   31CHL1  H18C 2250   0.182   0.781   7.486  1.7804 -0.2791 -0.3585
   31CHL1   C12 2251   0.203   1.029   7.245  0.2986 -0.4865 -0.4359
   31CHL1  H12A 2252   0.168   1.104   7.320 -0.5242 -1.8172  0.5691
   31CHL1  H12B 2253   0.283   1.074   7.182  0.8464 -2.2957 -1.0792
   31CHL1   C11 2254   0.095   0.987   7.143  0.2058 -0.3995  0.2122
   31CHL1  H11A 2255   0.010   0.953   7.206  0.9610 -1.9169  0.4698
   31CHL1  H11B 2256   0.062   1.073   7.081 -0.0687  0.9016  2.0616
   31CHL1    C9 2257   0.130   0.871   7.047 -0.1820  0.1714 -0.1706
   31CHL1    H9 2258   0.215   0.917   6.992 -0.4081 -0.9638 -1.5181
   31CHL1   C10 2259   0.029   0.823   6.932 -0.4143 -0.1472 -0.7321
   31CHL1   C19 2260  -0.108   0.796   6.997  0.2189  0.2682  0.2242
   31CHL1  H19A 2261  -0.152   0.886   7.045  0.5772  0.9555 -0.6992
   31CHL1  H19B 2262  -0.184   0.764   6.923  0.6279 -0.3095  0.0526
   31CHL1  H19C 2263  -0.092   0.717   7.073  0.2822  1.5263  1.5803
   31CHL1    C1 2264   0.022   0.936   6.829  0.7321  0.2406  0.0868
   31CHL1   H1A 2265  -0.048   1.014   6.865 -0.2121 -2.0985  3.9240
   31CHL1   H1B 2266   0.122   0.974   6.798  0.5511  0.6235 -0.0323
   31CHL1    C2 2267  -0.050   0.891   6.691  0.2983 -0.2788 -0.2265
   31CHL1   H2A 2268  -0.055   0.977   6.621 -1.5378 -0.1008  0.0691
   31CHL1   H2B 2269  -0.151   0.855   6.718  0.5261 -0.5101  0.3285
   31CHL1   C20 2270   0.397   1.003   7.528  0.0113 -0.9101 -0.3886
   31CHL1   H20 2271   0.328   0.954   7.600 -1.8286  0.9157 -0.7816
   31CHL1   C21 2272   0.339   1.154   7.518 -0.2839  0.6479  0.0075
   31CHL1  H21A 2273   0.234   1.145   7.483 -1.1554  0.9308  2.3278
   31CHL1  H21B 2274   0.401   1.205   7.441  2.3561 -1.9507  0.2429
   31CHL1  H21C 2275   0.339   1.212   7.613 -2.1244 -0.5672  0.8023
   31CHL1   C22 2276   0.543   1.018   7.594  0.4140  0.5533  0.0679
   31CHL1  H22A 2277   0.597   0.921   7.596 -0.1966  0.2076  2.1807
   31CHL1  H22B 2278   0.611   1.085   7.538  1.9301 -0.5172  0.5441
   31CHL1   C23 2279   0.529   1.053   7.741  0.5116  0.3239  0.2365
   31CHL1  H23A 2280   0.509   1.161   7.756  0.3553 -0.1323  4.7660
   31CHL1  H23B 2281   0.429   1.017   7.773  0.8271 -0.1303  0.7242
   31CHL1   C24 2282   0.647   0.984   7.825  0.1467 -0.4739 -0.0950
   31CHL1  H24A 2283   0.654   0.875   7.807  0.8280 -0.5632  0.6565
   31CHL1  H24B 2284   0.740   1.029   7.783  1.2011  0.0059  2.5575
   31CHL1   C25 2285   0.648   0.996   7.977 -0.3350  0.4855 -0.6545
   31CHL1   H25 2286   0.733   0.932   8.007 -1.9841 -1.3902  0.2994
   31CHL1   C26 2287   0.662   1.138   8.024  0.1718  0.4727 -0.7170
   31CHL1  H26A 2288   0.746   1.192   7.974 -0.5363  3.5431  1.1283
   31CHL1  H26B 2289   0.562   1.182   8.001 -0.1272 -0.7686 -1.8913
   31CHL1  H26C 2290   0.675   1.150   8.133 -2.3904 -0.5945 -0.2440
   31CHL1   C27 2291   0.527   0.930   8.047 -0.6062 -0.7264  0.3110
   31CHL1  H27A 2292   0.530   0.821   8.027  1.1731 -0.1499 -3.2939
   31CHL1  H27B 2293   0.439   0.976   7.996 -0.5187  0.4752  1.1915
   31CHL1  H27C 2294   0.538   0.965   8.152  1.3066 -0.8624  0.1912
   32CHL1    C3 2295   0.495   5.900   6.975 -0.3912  0.1846  0.0973
   32CHL1    H3 2296   0.574   5.822   6.972 -0.8275 -0.2223 -1.0216
   32CHL1    O3 2297   0.487   5.956   6.837  0.4174  0.5552 -0.6191
   32CHL1   H3' 2298   0.469   5.880   6.781 -1.3393  1.3088 -1.1339
   32CHL1    C4 2299   0.351   5.847   7.022  0.1178  0.3954 -0.2470
   32CHL1   H4A 2300   0.275   5.925   6.999 -0.1246  0.0561 -0.6163
   32CHL1   H4B 2301   0.316   5.768   6.952  0.4664  1.1841 -1.3437
   32CHL1    C5 2302   0.350   5.799   7.166 -1.0315 -0.2276  0.2343
   32CHL1    C6 2303   0.315   5.675   7.199 -0.0288  0.7539  0.0029
   32CHL1    H6 2304   0.282   5.609   7.117  1.8352  0.6055 -0.6595
   32CHL1    C7 2305   0.309   5.621   7.339  0.3622  0.6972 -0.1639
   32CHL1   H7A 2306   0.213   5.565   7.339  0.3995  0.5590 -2.4158
   32CHL1   H7B 2307   0.391   5.550   7.362  0.0740 -0.2632 -1.9667
   32CHL1    C8 2308   0.313   5.732   7.449 -0.4339 -0.0745 -0.5327
   32CHL1    H8 2309   0.209   5.771   7.456 -0.4289 -0.1473  0.0053
   32CHL1   C14 2310   0.358   5.676   7.584  0.6206 -0.0176 -0.1150
   32CHL1   H14 2311   0.462   5.642   7.567 -0.2626 -1.5074 -3.2281
   32CHL1   C15 2312   0.290   5.543   7.647  0.4103  0.0485  0.4435
   32CHL1  H15A 2313   0.180   5.555   7.634  0.3813 -1.3381 -0.8629
   32CHL1  H15B 2314   0.322   5.454   7.588  1.1496 -1.0062  2.3551
   32CHL1   C16 2315   0.329   5.543   7.793 -0.0652  1.0919 -0.4790
   32CHL1  H16A 2316   0.235   5.542   7.852  0.4184 -3.7528  0.6724
   32CHL1  H16B 2317   0.389   5.452   7.815 -3.4634 -1.4113 -0.7757
   32CHL1   C17 2318   0.408   5.672   7.825 -0.4315 -0.1878 -0.0629
   32CHL1   H17 2319   0.512   5.640   7.802 -0.2675 -0.0580  0.4907
   32CHL1   C13 2320   0.372   5.772   7.703  0.0136 -0.1777  0.3504
   32CHL1   C18 2321   0.233   5.830   7.722  0.4077  0.7821 -0.1048
   32CHL1  H18A 2322   0.146   5.761   7.728 -0.2763  1.2182 -3.4163
   32CHL1  H18B 2323   0.226   5.890   7.816  0.0273  1.7379 -0.7240
   32CHL1  H18C 2324   0.214   5.895   7.634  0.9860  0.2150 -0.6567
   32CHL1   C12 2325   0.467   5.887   7.664  0.2354  0.8227 -0.2207
   32CHL1  H12A 2326   0.453   5.961   7.746 -0.2206  1.4813 -0.8929
   32CHL1  H12B 2327   0.567   5.838   7.655  1.1793  2.6773 -0.3872
   32CHL1   C11 2328   0.437   5.956   7.523 -0.3126  0.1339 -0.4701
   32CHL1  H11A 2329   0.347   6.020   7.538  0.2884  0.5317  1.9973
   32CHL1  H11B 2330   0.531   6.010   7.495 -2.4313  3.3522 -2.0224
   32CHL1    C9 2331   0.412   5.845   7.411  0.4739 -1.2575  0.1962
   32CHL1    H9 2332   0.513   5.800   7.407  1.4885  0.9193  0.0329
   32CHL1   C10 2333   0.403   5.902   7.263  0.5824  0.6280  0.2708
   32CHL1   C19 2334   0.321   6.034   7.279  0.2618 -0.4793  0.6144
   32CHL1  H19A 2335   0.378   6.127   7.298 -0.2580  0.9644 -3.7563
   32CHL1  H19B 2336   0.278   6.065   7.181 -0.1332 -1.5867  0.4298
   32CHL1  H19C 2337   0.237   6.022   7.351  1.0625  0.3689  1.7187
   32CHL1    C1 2338   0.542   5.945   7.213  0.0892  1.3548 -0.7008
   32CHL1   H1A 2339   0.594   6.016   7.281  1.7261  2.4925 -3.0035
   32CHL1   H1B 2340   0.602   5.851   7.215 -2.6958 -0.6496 -2.9774
   32CHL1    C2 2341   0.549   6.003   7.077  1.1980 -0.0496  0.2595
   32CHL1   H2A 2342   0.651   6.044   7.057  0.7556  0.3336 -1.3464
   32CHL1   H2B 2343   0.477   6.087   7.067 -0.0365 -1.2953 -2.1095
   32CHL1   C20 2344   0.405   5.725   7.968  0.4779  0.8329 -0.2991
   32CHL1   H20 2345   0.303   5.766   7.983 -0.6763 -1.4932 -1.2605
   32CHL1   C21 2346   0.524   5.828   7.996  0.3315  0.5208 -0.8264
   32CHL1  H21A 2347   0.526   5.875   8.097  0.1218 -0.8126 -0.1843
   32CHL1  H21B 2348   0.498   5.917   7.936 -1.5369  3.0993  3.3483
   32CHL1  H21C 2349   0.620   5.784   7.961 -0.4479  0.5898 -3.1979
   32CHL1   C22 2350   0.434   5.607   8.071 -0.4336 -0.7383  0.3013
   32CHL1  H22A 2351   0.356   5.532   8.051  1.2215 -1.9756 -2.0937
   32CHL1  H22B 2352   0.529   5.558   8.038 -0.4132 -0.5112  0.0164
   32CHL1   C23 2353   0.442   5.651   8.222 -0.3410  0.1235  0.1687
   32CHL1  H23A 2354   0.534   5.712   8.235  0.5180 -1.0940  0.0081
   32CHL1  H23B 2355   0.352   5.715   8.234 -0.9318 -0.6600  0.0065
   32CHL1   C24 2356   0.442   5.542   8.333 -0.0099 -0.5085 -0.0723
   32CHL1  H24A 2357   0.344   5.490   8.318 -0.3686  0.2415 -0.3946
   32CHL1  H24B 2358   0.526   5.474   8.307  1.8825  2.2154 -1.7003
   32CHL1   C25 2359   0.456   5.596   8.483  0.4231  0.4772  0.3073
   32CHL1   H25 2360   0.533   5.676   8.479  1.5299 -0.5198  1.0344
   32CHL1   C26 2361   0.326   5.652   8.534  0.7925  0.3467  0.4224
   32CHL1  H26A 2362   0.304   5.744   8.477  0.4851 -1.0387 -1.7978
   32CHL1  H26B 2363   0.249   5.573   8.519 -0.3795  1.7450 -1.1548
   32CHL1  H26C 2364   0.336   5.672   8.643  0.7998 -0.0477  0.4988
   32CHL1   C27 2365   0.523   5.482   8.553 -0.6064  0.0500 -0.8003
   32CHL1  H27A 2366   0.540   5.507   8.660 -1.3712 -1.6015 -0.2496
   32CHL1  H27B 2367   0.455   5.394   8.561 -0.8578  0.2981 -0.1582
   32CHL1  H27C 2368   0.623   5.463   8.510  0.4907  2.9734  0.2338
   33CHL1    C3 2369   2.340   5.878   6.945  0.9191  0.6799  0.2462
   33CHL1    H3 2370   2.319   5.770   6.931 -0.1913  1.0238 -0.9098
   33CHL1    O3 2371   2.370   5.923   6.815  0.0643  0.3640  0.2573
   33CHL1   H3' 2372   2.299   5.899   6.756  0.2196  0.1057  0.1737
   33CHL1    C4 2373   2.236   5.958   7.009  0.0042 -0.7499  0.3090
   33CHL1   H4A 2374   2.256   6.064   7.032 -3.3087 -0.0977  0.7076
   33CHL1   H4B 2375   2.147   5.970   6.944  0.0721 -0.0897  0.3328
   33CHL1    C5 2376   2.197   5.903   7.145  0.0348 -0.8454 -0.2274
   33CHL1    C6 2377   2.076   5.858   7.168  0.0738 -0.4673  0.6486
   33CHL1    H6 2378   2.005   5.873   7.085 -0.1097 -0.3979  0.8192
   33CHL1    C7 2379   2.029   5.802   7.294 -0.1750  0.5379 -0.8232
   33CHL1   H7A 2380   1.927   5.842   7.312  0.9652  3.0026  0.6859
   33CHL1   H7B 2381   2.014   5.692   7.282 -2.2287  0.7379 -0.3459
   33CHL1    C8 2382   2.133   5.829   7.407  0.0409  0.4091 -0.5350
   33CHL1    H8 2383   2.122   5.936   7.437  3.1276  0.3035  1.4096
   33CHL1   C14 2384   2.105   5.750   7.530 -0.6381  0.1266  0.1442
   33CHL1   H14 2385   2.128   5.646   7.497 -1.7396 -1.0736  2.8935
   33CHL1   C15 2386   1.957   5.745   7.580  0.4645  0.3455  0.5487
   33CHL1  H15A 2387   1.908   5.845   7.575  0.4261  0.3223  0.4540
   33CHL1  H15B 2388   1.899   5.685   7.506  0.4173  1.0768 -0.0237
   33CHL1   C16 2389   1.965   5.683   7.714  0.2075 -0.0267 -0.0429
   33CHL1  H16A 2390   1.930   5.753   7.792 -0.8339 -1.0985  0.4915
   33CHL1  H16B 2391   1.914   5.584   7.718  0.4225 -0.0971  1.1747
   33CHL1   C17 2392   2.121   5.666   7.745 -0.5234  0.1165  0.1224
   33CHL1   H17 2393   2.155   5.569   7.703  0.2744  0.7555 -0.7716
   33CHL1   C13 2394   2.190   5.770   7.652  0.3629 -0.6178 -0.5460
   33CHL1   C18 2395   2.173   5.917   7.716 -0.4969  0.1958 -0.4598
   33CHL1  H18A 2396   2.219   5.989   7.645 -1.2718  1.7255  0.5376
   33CHL1  H18B 2397   2.066   5.936   7.737 -0.8040 -1.6004 -0.2646
   33CHL1  H18C 2398   2.232   5.923   7.810 -0.0952 -2.6921 -0.4454
   33CHL1   C12 2399   2.338   5.744   7.613  0.5874  0.2204 -0.0684
   33CHL1  H12A 2400   2.420   5.750   7.688  1.8722  0.1326 -1.4249
   33CHL1  H12B 2401   2.345   5.637   7.585  2.8781 -0.0788  1.3748
   33CHL1   C11 2402   2.380   5.822   7.489  0.1948  0.0169  0.2117
   33CHL1  H11A 2403   2.384   5.926   7.528  2.0621 -0.1139  0.4614
   33CHL1  H11B 2404   2.486   5.796   7.464  0.5863  0.8622  0.9254
   33CHL1    C9 2405   2.279   5.811   7.369  0.4084 -0.2307 -0.1566
   33CHL1    H9 2406   2.286   5.705   7.337  2.8820  0.5532 -2.5322
   33CHL1   C10 2407   2.320   5.898   7.244 -0.2799  0.0521  0.5971
   33CHL1   C19 2408   2.357   6.042   7.292  0.1043 -0.2601  0.1703
   33CHL1  H19A 2409   2.279   6.084   7.359 -0.0967 -0.3406 -0.0091
   33CHL1  H19B 2410   2.446   6.041   7.357 -2.4032  0.6142  3.9461
   33CHL1  H19C 2411   2.384   6.104   7.204  2.1510  1.1326  1.7161
   33CHL1    C1 2412   2.445   5.848   7.177  0.1058 -0.5486  0.7001
   33CHL1   H1A 2413   2.534   5.874   7.239  1.2119  2.0888 -1.7382
   33CHL1   H1B 2414   2.440   5.738   7.167  1.9517 -0.5048 -1.7031
   33CHL1    C2 2415   2.464   5.897   7.033  0.8004 -0.4464  0.1593
   33CHL1   H2A 2416   2.544   5.835   6.988  0.9197 -0.7784  0.8234
   33CHL1   H2B 2417   2.499   6.003   7.030 -1.1419  0.2625 -3.1478
   33CHL1   C20 2418   2.155   5.664   7.895  0.1202  0.1859  0.2142
   33CHL1   H20 2419   2.116   5.759   7.938  0.9799  1.7586 -2.2300
   33CHL1   C21 2420   2.302   5.641   7.917 -0.3922  0.2227 -0.3031
   33CHL1  H21A 2421   2.329   5.634   8.024  0.9308 -0.9929 -0.6862
   33CHL1  H21B 2422   2.363   5.729   7.886  0.1211  0.2418  0.7157
   33CHL1  H21C 2423   2.353   5.553   7.872 -0.4108  0.7740 -1.4313
   33CHL1   C22 2424   2.076   5.545   7.959 -0.2692 -0.6300 -0.3850
   33CHL1  H22A 2425   1.973   5.527   7.922 -0.6567 -1.6763  1.1034
   33CHL1  H22B 2426   2.130   5.449   7.942 -2.1066 -2.3860  2.7241
   33CHL1   C23 2427   2.068   5.562   8.107 -0.2287 -0.5462 -0.3170
   33CHL1  H23A 2428   2.024   5.466   8.139 -1.4413  0.1286  0.1029
   33CHL1  H23B 2429   2.169   5.564   8.153  0.8620  0.4762 -2.6037
   33CHL1   C24 2430   1.980   5.686   8.159 -0.1634 -0.0248  0.2835
   33CHL1  H24A 2431   1.983   5.694   8.270  1.3980  2.4694  0.1650
   33CHL1  H24B 2432   2.024   5.781   8.120  1.0858 -0.5820  0.2797
   33CHL1   C25 2433   1.833   5.683   8.112  0.5220 -0.7193  0.0476
   33CHL1   H25 2434   1.838   5.671   8.002  1.5317 -0.0389  0.0023
   33CHL1   C26 2435   1.746   5.573   8.180 -0.2225 -0.1409  0.4834
   33CHL1  H26A 2436   1.780   5.479   8.131 -0.6016  1.0390 -2.1712
   33CHL1  H26B 2437   1.756   5.564   8.291 -2.7439  0.2332  0.8082
   33CHL1  H26C 2438   1.640   5.579   8.148 -0.5408 -0.4055  1.4610
   33CHL1   C27 2439   1.762   5.828   8.131 -0.4267 -0.0489 -0.0383
   33CHL1  H27A 2440   1.743   5.845   8.239 -0.6923 -0.2263 -0.0574
   33CHL1  H27B 2441   1.830   5.900   8.080  0.6544 -1.9935 -1.4463
   33CHL1  H27C 2442   1.665   5.816   8.080 -1.2873  0.0333  1.5089
   34CHL1    C3 2443   3.270   3.346   6.979 -0.0169  0.5096 -0.3727
   34CHL1    H3 2444   3.319   3.249   6.958 -0.0620  0.9927 -3.0914
   34CHL1    O3 2445   3.292   3.429   6.867 -0.8688 -0.0070  0.1619
   34CHL1   H3' 2446   3.278   3.522   6.886  1.9221  0.2418  1.6031
   34CHL1    C4 2447   3.112   3.321   6.993  0.0160 -0.0891  0.4779
   34CHL1   H4A 2448   3.063   3.420   6.978  0.3718  0.0253  0.0434
   34CHL1   H4B 2449   3.067   3.258   6.913  1.1585 -1.1045  0.6085
   34CHL1    C5 2450   3.075   3.251   7.127 -0.8084  0.6541 -0.1742
   34CHL1    C6 2451   2.996   3.146   7.121 -0.3615  0.1573 -0.0906
   34CHL1    H6 2452   2.944   3.137   7.025  0.6741  0.2964 -0.6742
   34CHL1    C7 2453   2.936   3.077   7.238  0.5633  0.2465  0.5417
   34CHL1   H7A 2454   2.832   3.042   7.220  1.2815 -2.4197  1.1357
   34CHL1   H7B 2455   2.991   2.982   7.255 -1.1451 -1.2440 -1.7384
   34CHL1    C8 2456   2.956   3.154   7.372 -0.8752 -0.2445 -0.5150
   34CHL1    H8 2457   2.885   3.239   7.371 -0.9662 -0.3146 -1.9831
   34CHL1   C14 2458   2.929   3.058   7.494 -0.2966  0.3456 -0.0229
   34CHL1   H14 2459   3.013   2.985   7.492  1.3151  2.1367 -0.5153
   34CHL1   C15 2460   2.794   2.995   7.504 -0.6253 -0.0471 -0.4434
   34CHL1  H15A 2461   2.713   3.068   7.481 -0.8505  0.4729  1.7964
   34CHL1  H15B 2462   2.775   2.910   7.435 -3.4315  0.5847 -0.5663
   34CHL1   C16 2463   2.785   2.949   7.652 -0.0635  0.9015 -0.1870
   34CHL1  H16A 2464   2.686   2.974   7.695 -0.2259 -1.4977  1.0057
   34CHL1  H16B 2465   2.786   2.838   7.652 -0.4379  0.8287 -2.9575
   34CHL1   C17 2466   2.906   3.011   7.724 -0.2955  0.3517 -0.2224
   34CHL1   H17 2467   2.984   2.932   7.720 -0.5751  0.0831 -0.5100
   34CHL1   C13 2468   2.952   3.125   7.630  0.3742  0.6094 -0.3014
   34CHL1   C18 2469   2.853   3.248   7.657  0.1411  0.2081 -0.0994
   34CHL1  H18A 2470   2.856   3.287   7.761 -1.5788 -1.2131  0.5464
   34CHL1  H18B 2471   2.880   3.331   7.590  1.8718 -0.1086  0.1689
   34CHL1  H18C 2472   2.745   3.222   7.644 -0.2071  0.8281  1.3604
   34CHL1   C12 2473   3.101   3.161   7.630  0.0113 -0.4377  0.0498
   34CHL1  H12A 2474   3.137   3.216   7.720  0.6256  1.4760 -1.3137
   34CHL1  H12B 2475   3.153   3.063   7.620  2.3732  0.7422 -0.0498
   34CHL1   C11 2476   3.147   3.249   7.520  0.2356 -0.0310  0.7965
   34CHL1  H11A 2477   3.110   3.352   7.539 -1.6298 -0.8259  1.7119
   34CHL1  H11B 2478   3.257   3.259   7.508  0.3713 -2.1075 -0.1372
   34CHL1    C9 2479   3.105   3.200   7.371 -0.2022 -0.2299 -0.0283
   34CHL1    H9 2480   3.156   3.103   7.353  0.7359  0.7502 -3.2913
   34CHL1   C10 2481   3.140   3.309   7.255  0.0475  0.3771  0.5071
   34CHL1   C19 2482   3.072   3.443   7.291  0.1312  0.3368  0.3944
   34CHL1  H19A 2483   3.123   3.482   7.381 -1.5314  1.4931  0.8976
   34CHL1  H19B 2484   3.076   3.512   7.204  0.8729 -0.8822 -0.5846
   34CHL1  H19C 2485   2.970   3.415   7.327  0.3646 -1.4074 -0.1777
   34CHL1    C1 2486   3.290   3.323   7.230 -0.3184 -0.2593 -0.2193
   34CHL1   H1A 2487   3.331   3.366   7.324 -1.9388 -0.5365  0.6323
   34CHL1   H1B 2488   3.339   3.223   7.229 -1.3560 -0.8230  1.6931
   34CHL1    C2 2489   3.326   3.407   7.109 -0.4123  0.7287  0.1074
   34CHL1   H2A 2490   3.437   3.411   7.103 -0.4640  0.6295 -1.3484
   34CHL1   H2B 2491   3.293   3.513   7.116 -1.4094  0.4459 -0.1987
   34CHL1   C20 2492   2.878   3.030   7.876  0.4281 -0.3115  0.3714
   34CHL1   H20 2493   2.802   3.111   7.881  0.2567 -0.5095  1.1391
   34CHL1   C21 2494   2.999   3.069   7.957 -0.4118  0.6514  0.3683
   34CHL1  H21A 2495   2.982   3.096   8.063  2.7300  0.9881  0.8638
   34CHL1  H21B 2496   3.045   3.155   7.905 -0.4686 -0.1533 -1.0724
   34CHL1  H21C 2497   3.077   2.990   7.957 -1.6819 -0.6688  1.5425
   34CHL1   C22 2498   2.816   2.905   7.945  0.9875  0.3024 -0.0672
   34CHL1  H22A 2499   2.712   2.885   7.913  0.3300  1.0624  1.4821
   34CHL1  H22B 2500   2.884   2.821   7.918  1.5745  0.9633 -0.6781
   34CHL1   C23 2501   2.799   2.919   8.098 -0.0370  0.1439  0.7721
   34CHL1  H23A 2502   2.897   2.888   8.140  0.3352 -1.2199 -1.0094
   34CHL1  H23B 2503   2.758   3.021   8.116 -0.6246  0.6505 -2.7690
   34CHL1   C24 2504   2.702   2.823   8.156 -0.5376 -0.3791  0.5225
   34CHL1  H24A 2505   2.605   2.839   8.106 -0.2126  1.1579  0.3403
   34CHL1  H24B 2506   2.745   2.722   8.140 -2.2674 -0.8966 -1.1576
   34CHL1   C25 2507   2.684   2.844   8.309  0.4614  0.6283 -0.5241
   34CHL1   H25 2508   2.614   2.930   8.319 -2.2978 -1.4395 -0.9959
   34CHL1   C26 2509   2.620   2.723   8.375 -0.2732  0.0632 -0.0348
   34CHL1  H26A 2510   2.595   2.746   8.481 -0.4199 -1.0823  0.1943
   34CHL1  H26B 2511   2.530   2.694   8.315  2.2986 -1.2749 -3.5863
   34CHL1  H26C 2512   2.685   2.633   8.374 -0.9043 -0.4531  1.7989
   34CHL1   C27 2513   2.807   2.871   8.384  0.1138 -0.3516 -0.0075
   34CHL1  H27A 2514   2.784   2.882   8.492 -1.3025  0.7031 -0.3980
   34CHL1  H27B 2515   2.884   2.791   8.383 -1.3732 -1.8387  0.6156
   34CHL1  H27C 2516   2.854   2.967   8.353  0.7272 -0.4764  0.5183
   35CHL1    C3 2517   5.742   5.725   7.338 -0.4382 -1.4023 -0.4640
   35CHL1    H3 2518   5.643   5.750   7.382  1.1826 -0.1718  2.8208
   35CHL1    O3 2519   5.743   5.757   7.202 -1.0431 -0.2386 -0.0688
   35CHL1   H3' 2520   5.834   5.753   7.173 -1.3667 -0.0960 -1.1500
   35CHL1    C4 2521   5.845   5.810   7.417  0.3038  0.6392  0.1620
   35CHL1   H4A 2522   5.937   5.800   7.355  0.0098 -0.5220 -0.0965
   35CHL1   H4B 2523   5.811   5.916   7.410  2.7942  1.5879  1.2230
   35CHL1    C5 2524   5.857   5.765   7.562 -0.2990 -0.1040 -0.3829
   35CHL1    C6 2525   5.852   5.845   7.666 -0.1535  0.0136  0.0965
   35CHL1    H6 2526   5.829   5.951   7.647 -1.6199 -0.6059 -1.8909
   35CHL1    C7 2527   5.867   5.807   7.813 -0.0772 -0.5040 -0.0655
   35CHL1   H7A 2528   5.944   5.881   7.847 -1.8257  0.7946  1.2403
   35CHL1   H7B 2529   5.773   5.812   7.872 -1.1186  0.9705 -1.7258
   35CHL1    C8 2530   5.914   5.655   7.827 -1.1020 -0.2628 -0.0515
   35CHL1    H8 2531   6.023   5.645   7.814 -1.1428 -2.0828  0.7440
   35CHL1   C14 2532   5.895   5.602   7.973 -0.9330  0.0546 -0.1987
   35CHL1   H14 2533   5.786   5.607   7.990 -0.4887  0.4533  3.4354
   35CHL1   C15 2534   5.940   5.691   8.087  0.2043  0.4415  0.0900
   35CHL1  H15A 2535   6.044   5.725   8.066  0.1502  0.9332  0.6213
   35CHL1  H15B 2536   5.867   5.770   8.112 -0.0168 -0.0354  0.9768
   35CHL1   C16 2537   5.943   5.587   8.201 -0.2664 -0.0239  0.2014
   35CHL1  H16A 2538   6.046   5.590   8.243 -0.7037  1.4323  1.2858
   35CHL1  H16B 2539   5.875   5.607   8.287 -0.9928 -0.3387 -0.2856
   35CHL1   C17 2540   5.911   5.443   8.145  0.1477  0.5659  0.0937
   35CHL1   H17 2541   5.800   5.441   8.140  0.1301 -0.7530  0.5730
   35CHL1   C13 2542   5.944   5.464   7.996 -0.2521  0.7037 -0.1454
   35CHL1   C18 2543   6.097   5.441   7.982 -0.2362  0.1580 -0.9993
   35CHL1  H18A 2544   6.134   5.337   7.991  0.7666  0.3844 -2.1616
   35CHL1  H18B 2545   6.132   5.485   7.886  0.4805  0.3007 -0.6844
   35CHL1  H18C 2546   6.152   5.508   8.052  1.9780 -1.2038 -1.3265
   35CHL1   C12 2547   5.867   5.375   7.891  0.1152 -0.0290 -0.7483
   35CHL1  H12A 2548   5.892   5.267   7.897 -3.1791 -0.9696 -1.5240
   35CHL1  H12B 2549   5.761   5.377   7.926  1.2069 -0.2196  3.0230
   35CHL1   C11 2550   5.886   5.418   7.749  0.4392 -0.6579 -0.8792
   35CHL1  H11A 2551   5.990   5.402   7.714  0.9347  1.2329 -0.3546
   35CHL1  H11B 2552   5.815   5.360   7.685  0.1351  0.0712 -1.2118
   35CHL1    C9 2553   5.852   5.562   7.723 -0.0563 -0.4693  0.4289
   35CHL1    H9 2554   5.744   5.573   7.747 -0.3790  0.9216 -1.4507
   35CHL1   C10 2555   5.870   5.614   7.571  0.3084 -0.1588 -0.2898
   35CHL1   C19 2556   6.011   5.588   7.528 -0.4500 -0.4103 -0.7668
   35CHL1  H19A 2557   6.079   5.649   7.591 -0.6551 -1.6212  0.6794
   35CHL1  H19B 2558   6.034   5.482   7.555 -1.8660 -0.0584  2.1374
   35CHL1  H19C 2559   6.042   5.600   7.421  1.4902 -2.9164 -0.5918
   35CHL1    C1 2560   5.763   5.533   7.492  0.9001  0.2028  0.2329
   35CHL1   H1A 2561   5.794   5.426   7.496  0.8028  0.1435 -0.4101
   35CHL1   H1B 2562   5.670   5.559   7.547  0.6237  1.9501 -0.9763
   35CHL1    C2 2563   5.750   5.578   7.353 -0.3622 -0.5029  0.4919
   35CHL1   H2A 2564   5.668   5.524   7.301 -1.3917  0.9169  0.5807
   35CHL1   H2B 2565   5.839   5.538   7.299 -1.4599 -1.3005 -0.8018
   35CHL1   C20 2566   5.966   5.333   8.233 -0.3688  0.1965  0.2225
   35CHL1   H20 2567   6.077   5.330   8.228 -0.3981 -0.5036 -0.0802
   35CHL1   C21 2568   5.905   5.190   8.187  0.1118  0.3931 -0.2434
   35CHL1  H21A 2569   5.901   5.174   8.077  0.2867  0.3103 -0.2365
   35CHL1  H21B 2570   5.806   5.188   8.237  0.1011 -0.6404 -0.2935
   35CHL1  H21C 2571   5.967   5.112   8.235 -0.6674 -1.0529 -1.4950
   35CHL1   C22 2572   5.939   5.354   8.386 -0.3060  0.1888  0.2226
   35CHL1  H22A 2573   5.996   5.445   8.415  2.8972 -0.8723 -2.2326
   35CHL1  H22B 2574   5.830   5.370   8.400 -0.3276  0.0014  0.2695
   35CHL1   C23 2575   5.988   5.238   8.479  0.0591 -0.2458  0.2685
   35CHL1  H23A 2576   5.939   5.138   8.467  0.8634 -0.8590  1.7806
   35CHL1  H23B 2577   6.098   5.222   8.477  0.1098  0.1833 -0.5923
   35CHL1   C24 2578   5.952   5.266   8.625 -0.4515 -0.4861  0.5066
   35CHL1  H24A 2579   5.986   5.369   8.649  1.6701 -0.7411 -1.1499
   35CHL1  H24B 2580   5.841   5.273   8.630 -0.4419 -1.0324  2.8635
   35CHL1   C25 2581   5.971   5.166   8.737  0.0760  0.0807 -0.1798
   35CHL1   H25 2582   5.894   5.188   8.815 -2.3211 -2.3563 -1.6815
   35CHL1   C26 2583   5.929   5.024   8.702 -0.6800  0.1466  0.3698
   35CHL1  H26A 2584   5.827   4.997   8.665  0.2745 -1.5587 -1.2112
   35CHL1  H26B 2585   5.995   4.981   8.624  0.6239 -0.2824  1.6712
   35CHL1  H26C 2586   5.956   4.969   8.795  2.8086  0.6463 -0.2316
   35CHL1   C27 2587   6.118   5.173   8.799  0.1650  0.5104  0.3878
   35CHL1  H27A 2588   6.126   5.102   8.884  2.2990 -1.3796 -1.2724
   35CHL1  H27B 2589   6.136   5.275   8.840  2.5739  0.8503 -1.2730
   35CHL1  H27C 2590   6.202   5.153   8.729 -0.7560  0.5327 -0.7487
   36CHL1    C3 2591   6.043   4.510   7.283  0.4068  0.9096 -0.0384
   36CHL1    H3 2592   6.131   4.567   7.319  0.1942  0.7724  0.7017
   36CHL1    O3 2593   6.037   4.503   7.138  0.0267 -0.2105 -0.1969
   36CHL1   H3' 2594   6.014   4.413   7.114  1.9607 -0.2241 -2.3981
   36CHL1    C4 2595   6.067   4.373   7.345 -0.4636 -0.0490  0.3895
   36CHL1   H4A 2596   6.012   4.291   7.295 -0.4644 -1.0113  1.9049
   36CHL1   H4B 2597   6.173   4.344   7.328 -0.6536  0.2917 -1.6265
   36CHL1    C5 2598   6.035   4.351   7.488 -0.3173 -0.8409  0.5351
   36CHL1    C6 2599   6.129   4.307   7.572 -0.3195 -0.2450 -0.2515
   36CHL1    H6 2600   6.217   4.263   7.523  2.4456  1.5057  2.7706
   36CHL1    C7 2601   6.107   4.288   7.717 -0.1175 -0.1271 -0.7102
   36CHL1   H7A 2602   6.156   4.198   7.759 -0.1359  0.2159  0.0701
   36CHL1   H7B 2603   6.164   4.368   7.769  0.9642  0.2060 -2.3336
   36CHL1    C8 2604   5.951   4.299   7.742 -0.0676  0.0191 -0.0770
   36CHL1    H8 2605   5.903   4.207   7.703 -2.7141  1.9029 -1.6337
   36CHL1   C14 2606   5.928   4.309   7.897 -0.6761  0.5198 -0.2858
   36CHL1   H14 2607   5.968   4.403   7.941  0.6971 -0.6140  1.0136
   36CHL1   C15 2608   6.008   4.201   7.976  0.3814  0.1495  0.0391
   36CHL1  H15A 2609   6.002   4.107   7.917 -4.1377 -0.5578  1.2685
   36CHL1  H15B 2610   6.113   4.234   7.992  0.8363 -0.1388 -2.1274
   36CHL1   C16 2611   5.935   4.190   8.109  0.4383  0.4101 -0.0847
   36CHL1  H16A 2612   5.899   4.088   8.136  0.4190  0.7046  1.0881
   36CHL1  H16B 2613   5.987   4.242   8.192  1.7193  0.2663 -0.7768
   36CHL1   C17 2614   5.800   4.276   8.086  0.5724  0.1633  0.0355
   36CHL1   H17 2615   5.819   4.380   8.118 -0.2563  1.1396 -2.4231
   36CHL1   C13 2616   5.783   4.289   7.935 -0.5123 -0.1876  0.0823
   36CHL1   C18 2617   5.726   4.150   7.883 -0.2136  0.0145 -0.4880
   36CHL1  H18A 2618   5.698   4.150   7.776  0.4060 -2.2506 -0.7148
   36CHL1  H18B 2619   5.790   4.062   7.909  0.9055  0.6110 -1.1348
   36CHL1  H18C 2620   5.636   4.129   7.945  2.3744 -1.7403  3.1136
   36CHL1   C12 2621   5.715   4.412   7.881 -0.5432 -0.4502 -0.0453
   36CHL1  H12A 2622   5.604   4.406   7.884 -0.5488 -0.4816 -0.3250
   36CHL1  H12B 2623   5.745   4.496   7.947 -2.8825 -0.8989  1.7270
   36CHL1   C11 2624   5.738   4.431   7.735  0.2345 -0.0243  0.7213
   36CHL1  H11A 2625   5.669   4.364   7.680  0.1736  0.2463  0.4603
   36CHL1  H11B 2626   5.705   4.535   7.713  0.9578 -0.0920 -0.8532
   36CHL1    C9 2627   5.883   4.420   7.686  0.0461  0.7510  0.0151
   36CHL1    H9 2628   5.942   4.505   7.727  0.0763  0.3634  0.7969
   36CHL1   C10 2629   5.905   4.415   7.530  0.0856 -1.0686 -0.0962
   36CHL1   C19 2630   5.809   4.306   7.470 -0.2523 -0.0247  0.3268
   36CHL1  H19A 2631   5.703   4.331   7.491 -0.6871  0.1311 -1.8700
   36CHL1  H19B 2632   5.813   4.286   7.361  1.3850  0.5482  0.2497
   36CHL1  H19C 2633   5.832   4.208   7.518  0.0996 -0.5744 -0.9227
   36CHL1    C1 2634   5.881   4.553   7.477  0.1352 -0.1290  0.3857
   36CHL1   H1A 2635   5.778   4.587   7.499  0.6579  1.1875  0.8860
   36CHL1   H1B 2636   5.951   4.625   7.526  2.5159 -1.5204 -0.8018
   36CHL1    C2 2637   5.908   4.568   7.327 -0.0361 -0.9432  0.3873
   36CHL1   H2A 2638   5.911   4.677   7.306  2.7537 -1.2715 -1.3316
   36CHL1   H2B 2639   5.818   4.525   7.277 -1.4511  1.6876  0.4724
   36CHL1   C20 2640   5.686   4.224   8.170  0.4784  0.5834  0.7406
   36CHL1   H20 2641   5.650   4.123   8.140  1.7442  1.0827 -3.0073
   36CHL1   C21 2642   5.562   4.307   8.135 -0.2444  0.2790 -0.2338
   36CHL1  H21A 2643   5.539   4.301   8.027 -1.1544  0.7348 -0.0763
   36CHL1  H21B 2644   5.571   4.415   8.161  0.4416  0.0420  0.5632
   36CHL1  H21C 2645   5.473   4.266   8.188 -1.3631  3.0209  0.1912
   36CHL1   C22 2646   5.723   4.223   8.317 -0.2323 -0.8019  0.4789
   36CHL1  H22A 2647   5.810   4.160   8.344  0.6857  0.3934  0.4122
   36CHL1  H22B 2648   5.753   4.329   8.336  1.8839 -0.1774 -4.7070
   36CHL1   C23 2649   5.617   4.185   8.415  0.2953  0.1352 -0.2075
   36CHL1  H23A 2650   5.537   4.261   8.395  0.4843  0.5296  0.5028
   36CHL1  H23B 2651   5.568   4.089   8.389 -1.1829  0.6243  0.6458
   36CHL1   C24 2652   5.669   4.198   8.557 -0.2719  0.7908 -0.0575
   36CHL1  H24A 2653   5.734   4.109   8.572  0.0873  0.6476 -2.1088
   36CHL1  H24B 2654   5.736   4.286   8.571 -0.9914  1.3159  0.1035
   36CHL1   C25 2655   5.574   4.210   8.667  0.1084 -0.8660  0.0993
   36CHL1   H25 2656   5.550   4.318   8.681  2.0915 -0.6425  2.5344
   36CHL1   C26 2657   5.440   4.140   8.642 -0.2485 -0.5031 -0.2169
   36CHL1  H26A 2658   5.379   4.146   8.735 -0.5200  0.6044 -0.4618
   36CHL1  H26B 2659   5.384   4.185   8.558 -2.0868 -0.4699  0.9685
   36CHL1  H26C 2660   5.455   4.035   8.608 -0.2452 -0.0896 -1.5253
   36CHL1   C27 2661   5.635   4.167   8.796 -0.3161 -0.7513 -1.0080
   36CHL1  H27A 2662   5.648   4.057   8.800  2.3065 -0.4621  0.3572
   36CHL1  H27B 2663   5.733   4.217   8.812 -1.1129  0.5243  0.1793
   36CHL1  H27C 2664   5.567   4.188   8.882 -1.2275 -1.5031 -1.5295
   37CHL1    C3 2665   4.043   0.842   6.941  0.0799 -0.1425  0.3417
   37CHL1    H3 2666   3.942   0.854   6.986  0.8734  0.6047  2.0453
   37CHL1    O3 2667   4.046   0.839   6.800  0.1228  0.5133 -0.1450
   37CHL1   H3' 2668   3.989   0.915   6.781 -1.3443 -0.6061 -0.4090
   37CHL1    C4 2669   4.128   0.960   6.987  0.4564 -0.3267  0.1244
   37CHL1   H4A 2670   4.227   0.940   6.942 -0.4276 -1.8341 -1.2398
   37CHL1   H4B 2671   4.081   1.049   6.940  0.5022  0.1318  0.9163
   37CHL1    C5 2672   4.135   0.972   7.140  0.1465 -0.3163  0.3235
   37CHL1    C6 2673   4.099   1.082   7.207  1.3085  0.3155  0.6433
   37CHL1    H6 2674   4.064   1.172   7.155 -1.5828 -0.8728  0.3492
   37CHL1    C7 2675   4.097   1.102   7.357 -0.7063 -0.0251 -0.0078
   37CHL1   H7A 2676   4.141   1.203   7.375  1.2290 -0.5111 -1.6157
   37CHL1   H7B 2677   3.994   1.093   7.398 -0.1759 -0.0796  1.3501
   37CHL1    C8 2678   4.167   0.984   7.422  0.1421  0.3241  0.3351
   37CHL1    H8 2679   4.274   1.008   7.403  0.2781 -1.6645 -1.8173
   37CHL1   C14 2680   4.145   0.984   7.572  0.6145  0.0219  0.3332
   37CHL1   H14 2681   4.040   0.955   7.595  0.0537  1.0201 -0.8311
   37CHL1   C15 2682   4.168   1.118   7.645 -0.5449  0.4895 -0.6621
   37CHL1  H15A 2683   4.260   1.166   7.604  0.5860 -1.2617 -0.3105
   37CHL1  H15B 2684   4.081   1.180   7.617 -1.9995 -1.7061 -1.2278
   37CHL1   C16 2685   4.173   1.076   7.794  0.5868  0.8085  0.5027
   37CHL1  H16A 2686   4.252   1.132   7.847 -0.0961  1.5334  0.7775
   37CHL1  H16B 2687   4.083   1.120   7.844  0.5977  2.9766 -1.2449
   37CHL1   C17 2688   4.169   0.917   7.791 -0.0995  0.4089 -0.5045
   37CHL1   H17 2689   4.063   0.884   7.801 -0.0008  0.3234  0.2696
   37CHL1   C13 2690   4.223   0.883   7.650  0.3049 -0.4592  0.3600
   37CHL1   C18 2691   4.378   0.895   7.646  0.3073  0.0104  0.3895
   37CHL1  H18A 2692   4.412   0.971   7.720 -0.8072  0.0379  0.8982
   37CHL1  H18B 2693   4.422   0.798   7.677  1.7985 -0.0861 -1.7907
   37CHL1  H18C 2694   4.407   0.933   7.546 -2.9889  1.9443  0.0056
   37CHL1   C12 2695   4.183   0.750   7.592  0.7675  0.6749  0.2530
   37CHL1  H12A 2696   4.235   0.668   7.645  0.7151 -0.8253 -1.8693
   37CHL1  H12B 2697   4.074   0.731   7.597  0.6883  1.0208 -0.0391
   37CHL1   C11 2698   4.226   0.739   7.442 -0.1477  0.1564 -0.1403
   37CHL1  H11A 2699   4.337   0.741   7.441 -0.0794  0.2705 -3.4438
   37CHL1  H11B 2700   4.194   0.637   7.412 -1.6849  0.5400  0.0921
   37CHL1    C9 2701   4.149   0.848   7.360 -0.4054 -0.5461 -0.0655
   37CHL1    H9 2702   4.040   0.837   7.374 -0.3920  0.1289  0.6632
   37CHL1   C10 2703   4.182   0.846   7.206  0.5475  0.4739  0.0022
   37CHL1   C19 2704   4.334   0.843   7.182  1.1181  0.0532 -0.3345
   37CHL1  H19A 2705   4.383   0.942   7.200 -0.2848  0.7785 -0.3630
   37CHL1  H19B 2706   4.377   0.764   7.247  1.1298 -0.5450 -1.0487
   37CHL1  H19C 2707   4.354   0.811   7.077 -0.7276 -0.8314 -0.4457
   37CHL1    C1 2708   4.114   0.718   7.151 -0.2651 -0.6308  0.2476
   37CHL1   H1A 2709   4.165   0.631   7.197  0.3280 -0.8797 -0.8586
   37CHL1   H1B 2710   4.008   0.717   7.185 -0.8676 -0.7825 -1.5753
   37CHL1    C2 2711   4.100   0.711   7.000  0.2965  0.6623  0.8935
   37CHL1   H2A 2712   4.044   0.619   6.970  1.9353 -0.8999  2.3775
   37CHL1   H2B 2713   4.198   0.696   6.949 -0.5063  3.7352 -1.8907
   37CHL1   C20 2714   4.255   0.863   7.913  1.5150 -0.5151 -1.1364
   37CHL1   H20 2715   4.357   0.905   7.907  0.9781  1.3120  1.1113
   37CHL1   C21 2716   4.261   0.713   7.912 -0.3638  0.9093 -0.0640
   37CHL1  H21A 2717   4.167   0.670   7.873 -0.1197  0.3387 -0.0374
   37CHL1  H21B 2718   4.293   0.664   8.007  0.5022  2.3893  0.4374
   37CHL1  H21C 2719   4.339   0.685   7.837 -0.3664 -1.3037  0.6801
   37CHL1   C22 2720   4.195   0.910   8.045 -0.0454  0.1308 -0.8488
   37CHL1  H22A 2721   4.195   1.021   8.041 -1.8209  0.1842 -0.1807
   37CHL1  H22B 2722   4.088   0.880   8.053 -0.0234 -0.2250 -1.7235
   37CHL1   C23 2723   4.260   0.874   8.178 -1.0940 -0.2816  0.1358
   37CHL1  H23A 2724   4.287   0.767   8.180 -0.5880 -0.1746 -0.6324
   37CHL1  H23B 2725   4.353   0.931   8.198 -1.4268 -0.5859  2.8473
   37CHL1   C24 2726   4.171   0.917   8.294 -0.0474 -0.1171 -0.3310
   37CHL1  H24A 2727   4.230   0.938   8.386 -1.3085  0.1034  0.4558
   37CHL1  H24B 2728   4.122   1.015   8.276 -2.4507 -0.9091  1.3933
   37CHL1   C25 2729   4.058   0.818   8.334 -0.9529 -0.5217 -0.2062
   37CHL1   H25 2730   4.024   0.782   8.235  1.7149  1.1761 -1.8713
   37CHL1   C26 2731   4.113   0.691   8.407 -0.5524  0.4462  0.4617
   37CHL1  H26A 2732   4.024   0.630   8.436  0.0948 -0.3468  0.8251
   37CHL1  H26B 2733   4.178   0.634   8.338 -0.7443 -1.4894  1.7754
   37CHL1  H26C 2734   4.162   0.718   8.503 -0.0931 -0.3742  0.4689
   37CHL1   C27 2735   3.962   0.901   8.414 -0.0543 -0.3177 -0.3577
   37CHL1  H27A 2736   3.919   0.986   8.357 -0.0471 -0.2873 -0.3186
   37CHL1  H27B 2737   3.876   0.832   8.429  1.4122 -1.8994  1.2688
   37CHL1  H27C 2738   4.020   0.934   8.503  1.4608 -3.0189 -0.2337
   38CHL1    C3 2739   6.557   1.967   6.685  0.5873  0.8834 -0.1432
   38CHL1    H3 2740   6.646   2.034   6.695  0.5801  0.9118 -0.2692
   38CHL1    O3 2741   6.540   1.947   6.545  0.1678  0.0161 -0.4637
   38CHL1   H3' 2742   6.476   1.877   6.535  0.5460 -0.2846 -0.8223
   38CHL1    C4 2743   6.583   1.833   6.748 -0.2485 -0.2325 -0.0477
   38CHL1   H4A 2744   6.487   1.780   6.736  0.2251 -1.6425  1.8088
   38CHL1   H4B 2745   6.672   1.785   6.702  1.3216  1.1618  1.3570
   38CHL1    C5 2746   6.608   1.851   6.898 -0.5587 -0.6467  0.5255
   38CHL1    C6 2747   6.723   1.818   6.957  0.5067  0.1958  0.0695
   38CHL1    H6 2748   6.801   1.781   6.889  0.6304 -0.2284  0.4392
   38CHL1    C7 2749   6.760   1.824   7.102 -0.1402 -0.0189  0.6853
   38CHL1   H7A 2750   6.807   1.728   7.132 -0.6398 -0.8258 -1.0310
   38CHL1   H7B 2751   6.825   1.911   7.124 -0.8166  0.3593  1.2515
   38CHL1    C8 2752   6.626   1.849   7.184 -0.0365  0.3691  0.4612
   38CHL1    H8 2753   6.581   1.748   7.193  2.6199 -0.7680  2.0969
   38CHL1   C14 2754   6.653   1.894   7.322 -0.0996  0.1683  0.2994
   38CHL1   H14 2755   6.703   1.992   7.305 -1.0184  0.4883 -0.7231
   38CHL1   C15 2756   6.744   1.806   7.409 -0.1757  0.7549  0.2581
   38CHL1  H15A 2757   6.712   1.700   7.407  2.1480 -0.0157  0.5120
   38CHL1  H15B 2758   6.848   1.820   7.370  0.7577  0.2047  2.4238
   38CHL1   C16 2759   6.733   1.871   7.548 -0.2294  0.4755  0.2258
   38CHL1  H16A 2760   6.725   1.794   7.628  0.0479  1.6368  1.4136
   38CHL1  H16B 2761   6.827   1.922   7.579  0.3973  2.1418 -3.8256
   38CHL1   C17 2762   6.609   1.961   7.546  0.2432  0.0461 -0.0873
   38CHL1   H17 2763   6.651   2.062   7.529 -0.9343  0.7783  1.1218
   38CHL1   C13 2764   6.534   1.926   7.418  0.7055 -0.3069  0.4378
   38CHL1   C18 2765   6.457   1.794   7.428  0.1192  0.0429 -0.4159
   38CHL1  H18A 2766   6.372   1.810   7.497  0.4479 -1.0368  0.2716
   38CHL1  H18B 2767   6.417   1.756   7.332 -0.1669  0.3647 -0.4227
   38CHL1  H18C 2768   6.514   1.715   7.483 -1.4363 -0.8388 -0.0196
   38CHL1   C12 2769   6.457   2.034   7.349 -0.3490 -0.0178  0.4412
   38CHL1  H12A 2770   6.376   2.068   7.416 -0.5326  0.4294  0.0029
   38CHL1  H12B 2771   6.527   2.121   7.344  1.0131 -0.9667  2.0381
   38CHL1   C11 2772   6.417   2.007   7.207  0.0390  0.7286  0.1429
   38CHL1  H11A 2773   6.342   1.926   7.207  1.4839 -0.7253 -2.3056
   38CHL1  H11B 2774   6.379   2.099   7.158 -2.0628  0.3471  0.9759
   38CHL1    C9 2775   6.536   1.955   7.119 -0.0760  0.4505 -0.4615
   38CHL1    H9 2776   6.593   2.051   7.121 -1.7193  1.5243 -1.8769
   38CHL1   C10 2777   6.490   1.918   6.972 -0.1953 -0.0240 -0.6210
   38CHL1   C19 2778   6.371   1.820   6.977 -0.3729 -0.5818  0.2434
   38CHL1  H19A 2779   6.288   1.883   7.018 -0.7501  0.2976 -1.7654
   38CHL1  H19B 2780   6.345   1.801   6.871  0.2215  2.4740 -0.5467
   38CHL1  H19C 2781   6.385   1.727   7.035  1.5411 -0.1702  0.5039
   38CHL1    C1 2782   6.448   2.045   6.901 -0.5663 -0.3979  0.4526
   38CHL1   H1A 2783   6.353   2.092   6.936  0.3450 -0.3318  3.0475
   38CHL1   H1B 2784   6.530   2.115   6.927 -1.5732  0.7265  0.7148
   38CHL1    C2 2785   6.438   2.035   6.746 -0.8604 -0.0222  0.0017
   38CHL1   H2A 2786   6.415   2.131   6.695 -0.8933 -0.3640 -0.6315
   38CHL1   H2B 2787   6.353   1.964   6.735 -0.4434 -0.5813  0.3233
   38CHL1   C20 2788   6.531   1.966   7.679 -0.5766  0.2119 -0.0997
   38CHL1   H20 2789   6.493   1.863   7.696  1.2559 -0.6104 -0.8441
   38CHL1   C21 2790   6.416   2.067   7.675  0.3570 -0.2139 -0.7290
   38CHL1  H21A 2791   6.339   2.046   7.598 -1.3422 -1.0934  1.1284
   38CHL1  H21B 2792   6.453   2.172   7.663  1.7366 -0.4467  1.1094
   38CHL1  H21C 2793   6.363   2.067   7.772 -0.3707 -1.4986 -1.1125
   38CHL1   C22 2794   6.621   2.000   7.797 -0.1651  0.8909 -0.2236
   38CHL1  H22A 2795   6.708   1.931   7.802 -1.0642 -0.6358 -3.1582
   38CHL1  H22B 2796   6.671   2.095   7.769  1.8070  0.0460  0.2633
   38CHL1   C23 2797   6.557   2.012   7.935  0.3300  0.3905  0.2196
   38CHL1  H23A 2798   6.649   2.023   7.996 -0.1896  0.6631  0.9697
   38CHL1  H23B 2799   6.502   2.108   7.929 -0.8985 -0.3786 -1.8391
   38CHL1   C24 2800   6.465   1.906   7.988  0.0766 -0.5940  0.4451
   38CHL1  H24A 2801   6.372   1.894   7.928  0.9567 -1.9830 -0.7168
   38CHL1  H24B 2802   6.525   1.814   7.971  1.4983  0.4502 -0.4094
   38CHL1   C25 2803   6.434   1.927   8.137  0.9751  0.2263 -0.2325
   38CHL1   H25 2804   6.372   2.020   8.138  1.2330  0.4374 -1.7363
   38CHL1   C26 2805   6.337   1.815   8.190 -0.3436  0.0532 -0.2868
   38CHL1  H26A 2806   6.296   1.841   8.290 -0.9159  0.2771 -0.5684
   38CHL1  H26B 2807   6.252   1.815   8.117  0.5519  0.1421 -1.3595
   38CHL1  H26C 2808   6.392   1.719   8.187  1.8491  1.2823 -1.1593
   38CHL1   C27 2809   6.551   1.945   8.237  0.2078 -0.5229 -0.0027
   38CHL1  H27A 2810   6.605   2.040   8.216 -1.2772  0.4429  0.4000
   38CHL1  H27B 2811   6.506   1.947   8.339  0.7670  2.1533  0.2713
   38CHL1  H27C 2812   6.627   1.864   8.232  2.2559  1.3072  0.0073
   39CHL1    C3 2813   5.918   0.379   6.719 -0.1714  0.2235  0.0396
   39CHL1    H3 2814   5.976   0.467   6.685 -0.5966  0.8626  0.9289
   39CHL1    O3 2815   5.887   0.312   6.599  0.0502  0.5900 -0.1708
   39CHL1   H3' 2816   5.908   0.219   6.613 -0.2525  0.6135  0.4790
   39CHL1    C4 2817   5.993   0.285   6.814  0.3294  0.0620 -0.1636
   39CHL1   H4A 2818   5.933   0.191   6.812 -1.4925  1.1924 -0.3389
   39CHL1   H4B 2819   6.091   0.247   6.777  0.5827 -0.0156  0.5731
   39CHL1    C5 2820   6.016   0.359   6.946 -0.0077  0.2621 -0.3473
   39CHL1    C6 2821   6.141   0.400   6.976 -0.3192  0.1092 -0.1907
   39CHL1    H6 2822   6.218   0.358   6.910  0.2032 -0.1782  0.5929
   39CHL1    C7 2823   6.165   0.477   7.107 -0.0127 -0.3662 -0.4479
   39CHL1   H7A 2824   6.252   0.432   7.159 -0.1676  0.2373  0.3605
   39CHL1   H7B 2825   6.188   0.585   7.098 -0.5040 -0.2077  0.1147
   39CHL1    C8 2826   6.048   0.448   7.202 -0.4615  0.0917  0.3697
   39CHL1    H8 2827   6.032   0.340   7.219 -0.2511  0.1932  1.2774
   39CHL1   C14 2828   6.064   0.522   7.337  0.1628 -0.2303 -0.3749
   39CHL1   H14 2829   6.074   0.629   7.309 -1.3871 -0.4279 -1.8438
   39CHL1   C15 2830   6.189   0.481   7.412  0.3629 -0.2732  0.1011
   39CHL1  H15A 2831   6.202   0.372   7.395  1.0898 -0.0435 -0.8830
   39CHL1  H15B 2832   6.279   0.540   7.383  1.0522 -0.3759  1.9016
   39CHL1   C16 2833   6.146   0.499   7.562  0.2464  0.0726 -0.2119
   39CHL1  H16A 2834   6.155   0.397   7.606 -3.3351 -0.9737 -1.5511
   39CHL1  H16B 2835   6.221   0.562   7.614 -1.0953  0.8712  0.8249
   39CHL1   C17 2836   6.003   0.553   7.563  0.2615  0.4334  0.0270
   39CHL1   H17 2837   6.017   0.661   7.542  3.6406  0.0730 -0.1078
   39CHL1   C13 2838   5.944   0.510   7.430  0.4216  0.7797 -0.1552
   39CHL1   C18 2839   5.892   0.359   7.456  0.3580  0.5598 -0.0719
   39CHL1  H18A 2840   5.802   0.354   7.521  0.9861 -1.6396  0.7271
   39CHL1  H18B 2841   5.860   0.309   7.362 -0.3220  1.8844 -0.5673
   39CHL1  H18C 2842   5.976   0.301   7.500  0.7612  1.0065 -0.2471
   39CHL1   C12 2843   5.833   0.595   7.358 -0.1077  0.3937 -0.1132
   39CHL1  H12A 2844   5.738   0.592   7.415 -0.6553 -1.8058 -1.0233
   39CHL1  H12B 2845   5.871   0.699   7.362 -0.5163  0.5055  1.3788
   39CHL1   C11 2846   5.786   0.530   7.222 -1.0913  0.4217  0.4313
   39CHL1  H11A 2847   5.734   0.434   7.245  0.4178 -0.4659  0.2867
   39CHL1  H11B 2848   5.720   0.590   7.156  0.7599 -1.3014 -3.2873
   39CHL1    C9 2849   5.921   0.500   7.132 -0.0127  0.0206  0.2083
   39CHL1    H9 2850   5.938   0.605   7.098  0.3048  0.6566  2.1892
   39CHL1   C10 2851   5.895   0.408   7.012 -0.5018 -0.3034 -0.0511
   39CHL1   C19 2852   5.814   0.280   7.051 -0.0405  0.0882  0.0275
   39CHL1  H19A 2853   5.794   0.206   6.970  0.4513 -1.1870  1.0311
   39CHL1  H19B 2854   5.871   0.227   7.130 -1.0493  0.0403  0.7408
   39CHL1  H19C 2855   5.718   0.308   7.099 -0.4352 -0.8375 -0.2078
   39CHL1    C1 2856   5.799   0.484   6.916  0.0400  0.3987  0.0126
   39CHL1   H1A 2857   5.700   0.498   6.965  0.0301 -1.4037  0.5962
   39CHL1   H1B 2858   5.848   0.582   6.894 -0.4143 -0.0105 -3.3972
   39CHL1    C2 2859   5.786   0.414   6.781  0.4013 -0.7727 -0.2432
   39CHL1   H2A 2860   5.735   0.480   6.707 -0.0120 -1.0726 -0.2291
   39CHL1   H2B 2861   5.725   0.322   6.790  0.9443 -1.0230  1.1422
   39CHL1   C20 2862   5.930   0.526   7.704  0.1346 -0.5590  1.0428
   39CHL1   H20 2863   5.917   0.416   7.709 -0.2467 -0.7225 -1.8426
   39CHL1   C21 2864   5.788   0.597   7.702  0.7252 -0.2603 -0.7047
   39CHL1  H21A 2865   5.760   0.613   7.808  1.5257 -0.8355 -0.4028
   39CHL1  H21B 2866   5.715   0.535   7.647  1.7428 -0.6950 -1.6009
   39CHL1  H21C 2867   5.797   0.699   7.658 -0.4476  0.2534  0.1957
   39CHL1   C22 2868   6.017   0.578   7.821  0.0426  0.5377  1.0129
   39CHL1  H22A 2869   5.949   0.557   7.906  1.3599 -0.2064  1.9087
   39CHL1  H22B 2870   6.103   0.508   7.825 -1.8400 -2.0886 -1.1872
   39CHL1   C23 2871   6.058   0.727   7.821 -0.3870  0.6992 -0.0803
   39CHL1  H23A 2872   6.135   0.729   7.741  0.6206  2.4119  0.8648
   39CHL1  H23B 2873   5.974   0.789   7.785 -0.5364  0.5576  0.0238
   39CHL1   C24 2874   6.132   0.780   7.948 -0.3139 -0.1786  0.6982
   39CHL1  H24A 2875   6.050   0.781   8.024 -2.4419  1.0045 -1.4732
   39CHL1  H24B 2876   6.203   0.699   7.976  0.7728  0.6384  0.3563
   39CHL1   C25 2877   6.204   0.913   7.932 -0.0248 -0.8409 -0.6345
   39CHL1   H25 2878   6.141   0.972   7.862  1.1186 -1.1366 -1.9518
   39CHL1   C26 2879   6.234   0.981   8.062  0.5012  0.3790  0.4719
   39CHL1  H26A 2880   6.264   0.912   8.144 -0.7152  0.3079  0.8658
   39CHL1  H26B 2881   6.308   1.063   8.047  0.8204 -0.1366 -0.9565
   39CHL1  H26C 2882   6.143   1.027   8.106 -1.5538 -3.3433  0.4840
   39CHL1   C27 2883   6.335   0.879   7.852  0.2616 -0.0744  0.2328
   39CHL1  H27A 2884   6.318   0.842   7.749 -1.3545  1.3328 -0.0652
   39CHL1  H27B 2885   6.396   0.971   7.860 -0.3680  0.3284  0.5109
   39CHL1  H27C 2886   6.389   0.793   7.896  1.2626  1.3137  1.8438
   40CHL1    C3 2887   1.463   6.395   7.024 -0.2654  0.0739  0.2747
   40CHL1    H3 2888   1.467   6.505   7.010 -1.7989  0.0427 -0.6620
   40CHL1    O3 2889   1.518   6.314   6.921  0.4342  0.2139  0.3149
   40CHL1   H3' 2890   1.542   6.228   6.955 -1.2151 -1.1045 -1.6024
   40CHL1    C4 2891   1.523   6.362   7.162  0.1262  0.2502  0.4557
   40CHL1   H4A 2892   1.526   6.252   7.177  0.5042  0.4063  1.6734
   40CHL1   H4B 2893   1.630   6.387   7.147 -0.0390  0.4934 -0.3331
   40CHL1    C5 2894   1.446   6.418   7.274  0.9885  0.2523 -0.2011
   40CHL1    C6 2895   1.512   6.488   7.364 -0.7167  0.1718  0.5862
   40CHL1    H6 2896   1.621   6.506   7.362 -0.6112 -0.4596  0.4529
   40CHL1    C7 2897   1.448   6.544   7.481 -0.2779 -0.0687 -0.4934
   40CHL1   H7A 2898   1.510   6.517   7.569  2.0895  1.3085 -1.6411
   40CHL1   H7B 2899   1.436   6.654   7.479 -0.1637 -0.0461  0.0222
   40CHL1    C8 2900   1.307   6.491   7.508  0.2926 -0.0077 -0.2550
   40CHL1    H8 2901   1.311   6.392   7.558  3.0313  0.7464  1.1870
   40CHL1   C14 2902   1.238   6.591   7.606 -0.2914  0.6169 -0.4058
   40CHL1   H14 2903   1.235   6.689   7.553  0.6439  1.5924  1.2576
   40CHL1   C15 2904   1.315   6.631   7.731  0.0149  0.2615  0.1046
   40CHL1  H15A 2905   1.376   6.543   7.761  1.3185  0.0413 -2.8659
   40CHL1  H15B 2906   1.385   6.711   7.702  2.2435 -1.6006  0.0958
   40CHL1   C16 2907   1.205   6.678   7.828 -0.1529 -0.2626  0.7915
   40CHL1  H16A 2908   1.228   6.616   7.917  2.4151  1.1206  1.2100
   40CHL1  H16B 2909   1.208   6.785   7.859 -1.3169  0.2953 -0.8830
   40CHL1   C17 2910   1.064   6.651   7.765  0.1886 -0.4055  0.4095
   40CHL1   H17 2911   1.042   6.742   7.705  0.1882 -1.2063 -0.8543
   40CHL1   C13 2912   1.099   6.548   7.659 -1.0690  0.2324  0.2505
   40CHL1   C18 2913   1.105   6.406   7.725  0.3510 -0.3791 -0.4569
   40CHL1  H18A 2914   1.173   6.406   7.813  2.1809  1.8168 -1.7466
   40CHL1  H18B 2915   1.004   6.386   7.766  0.2220 -0.0780 -0.6272
   40CHL1  H18C 2916   1.137   6.325   7.657  0.6911 -0.1604 -0.5583
   40CHL1   C12 2917   1.016   6.534   7.538 -0.0488  0.0295  0.6899
   40CHL1  H12A 2918   0.916   6.494   7.564 -0.1579 -0.6854 -0.7368
   40CHL1  H12B 2919   1.001   6.639   7.503  2.4042  0.3887  0.5060
   40CHL1   C11 2920   1.077   6.445   7.424  0.1820  0.3324 -0.0597
   40CHL1  H11A 2921   1.081   6.338   7.454 -0.4545 -0.0335 -1.2071
   40CHL1  H11B 2922   1.019   6.455   7.330  0.6227 -1.0321 -0.5046
   40CHL1    C9 2923   1.224   6.483   7.383  0.4980 -0.1202  0.0294
   40CHL1    H9 2924   1.213   6.584   7.338 -0.3440 -0.6973 -1.0963
   40CHL1   C10 2925   1.295   6.395   7.279  0.0858 -0.3308 -0.1643
   40CHL1   C19 2926   1.279   6.241   7.318  0.3475 -0.7286  0.0538
   40CHL1  H19A 2927   1.338   6.232   7.412  2.1768 -4.1082 -1.2196
   40CHL1  H19B 2928   1.172   6.213   7.327 -0.7798  3.0638  0.0776
   40CHL1  H19C 2929   1.332   6.169   7.251  1.1791  0.9087 -1.1343
   40CHL1    C1 2930   1.232   6.411   7.141 -0.2947 -0.1799 -0.1879
   40CHL1   H1A 2931   1.138   6.353   7.147 -0.6960  0.5175  0.3264
   40CHL1   H1B 2932   1.216   6.520   7.127  2.7635  0.1974 -1.6566
   40CHL1    C2 2933   1.311   6.350   7.022  0.5468 -0.4513 -0.2868
   40CHL1   H2A 2934   1.261   6.387   6.930  1.2350 -1.3452 -1.0339
   40CHL1   H2B 2935   1.296   6.240   7.024  0.3655 -0.4423 -0.9138
   40CHL1   C20 2936   0.957   6.622   7.878  0.7823  0.2738 -0.2919
   40CHL1   H20 2937   0.987   6.534   7.939  0.3207 -0.0097 -0.4743
   40CHL1   C21 2938   0.821   6.600   7.809  0.2830 -0.4049 -0.5118
   40CHL1  H21A 2939   0.806   6.683   7.737  0.8035 -0.4557 -0.6807
   40CHL1  H21B 2940   0.737   6.606   7.882 -0.6060  0.6680 -1.5852
   40CHL1  H21C 2941   0.804   6.504   7.755  1.7954 -2.1867  1.9594
   40CHL1   C22 2942   0.941   6.743   7.975  0.5880  0.2593  0.0558
   40CHL1  H22A 2943   1.039   6.749   8.028  0.0028 -2.0064  1.5395
   40CHL1  H22B 2944   0.914   6.839   7.926 -0.7145 -0.5505 -0.8728
   40CHL1   C23 2945   0.843   6.719   8.096 -0.1486 -0.0972 -0.3001
   40CHL1  H23A 2946   0.741   6.746   8.061  0.0859  2.4037  0.7179
   40CHL1  H23B 2947   0.862   6.613   8.124 -0.4180  0.0623  0.5035
   40CHL1   C24 2948   0.883   6.804   8.218 -0.0872 -0.3737 -0.4159
   40CHL1  H24A 2949   0.968   6.762   8.275  0.7839  1.2901 -0.4323
   40CHL1  H24B 2950   0.904   6.912   8.201  0.0294 -0.0662  1.5183
   40CHL1   C25 2951   0.762   6.807   8.321 -0.9070 -0.1831  0.9873
   40CHL1   H25 2952   0.669   6.811   8.261  1.1917 -3.3213 -2.9798
   40CHL1   C26 2953   0.775   6.682   8.410  0.1669 -0.1077  0.2984
   40CHL1  H26A 2954   0.878   6.676   8.453 -0.5032 -1.1254  1.8659
   40CHL1  H26B 2955   0.717   6.702   8.502  2.5741 -0.5766  2.0328
   40CHL1  H26C 2956   0.753   6.583   8.366 -0.9413 -0.0817  0.7675
   40CHL1   C27 2957   0.766   6.944   8.405 -0.3542 -0.5398  0.4937
   40CHL1  H27A 2958   0.860   6.944   8.465 -1.3043 -2.1015  2.0846
   40CHL1  H27B 2959   0.762   7.031   8.335 -1.4110 -1.1509 -0.2345
   40CHL1  H27C 2960   0.678   6.935   8.472 -1.3992  0.1142 -0.7473
   41CHL1    C3 2961   3.851   0.272   7.037  0.4063 -0.4318 -0.6133
   41CHL1    H3 2962   3.763   0.329   7.073  0.9456  0.3210 -0.4530
   41CHL1    O3 2963   3.866   0.299   6.902 -0.2564 -0.2579  0.4921
   41CHL1   H3' 2964   3.959   0.320   6.890 -0.6630  0.9453 -0.7665
   41CHL1    C4 2965   3.970   0.338   7.109  0.0298  0.1197 -0.1064
   41CHL1   H4A 2966   4.061   0.297   7.060  0.5024  2.2774 -1.1584
   41CHL1   H4B 2967   3.987   0.444   7.080 -0.6142  0.4675  0.7423
   41CHL1    C5 2968   3.964   0.305   7.258  0.5026  0.3236  0.3631
   41CHL1    C6 2969   3.967   0.401   7.349  0.0713  0.3857 -1.3363
   41CHL1    H6 2970   3.962   0.507   7.319 -0.0123  0.9401  0.5576
   41CHL1    C7 2971   3.964   0.378   7.495 -0.4500 -0.6563  0.1888
   41CHL1   H7A 2972   4.030   0.452   7.546 -1.2530 -0.5109  1.0410
   41CHL1   H7B 2973   3.863   0.395   7.538  0.4010 -0.4447  2.2451
   41CHL1    C8 2974   4.003   0.233   7.533  0.1688  0.0775  0.2933
   41CHL1    H8 2975   4.113   0.226   7.518  0.3519  2.0558  0.4807
   41CHL1   C14 2976   3.979   0.211   7.686  1.0697 -0.3480 -0.4383
   41CHL1   H14 2977   3.873   0.240   7.706 -0.5081 -2.1318 -4.9303
   41CHL1   C15 2978   4.062   0.295   7.780  0.6664 -0.0106 -1.1490
   41CHL1  H15A 2979   4.168   0.283   7.748  0.4637 -0.3952 -1.6921
   41CHL1  H15B 2980   4.044   0.404   7.776 -0.7374  0.0232  2.4396
   41CHL1   C16 2981   4.042   0.228   7.916 -0.2869 -0.2276  0.6738
   41CHL1  H16A 2982   4.133   0.200   7.972  0.1817 -0.0084  0.0357
   41CHL1  H16B 2983   3.975   0.290   7.979 -0.6787 -1.7036  1.7683
   41CHL1   C17 2984   3.969   0.089   7.885 -0.4064 -0.4965  0.4981
   41CHL1   H17 2985   3.861   0.111   7.892 -0.2443  0.5531 -0.0668
   41CHL1   C13 2986   3.994   0.066   7.730  0.7403  0.0042 -0.2100
   41CHL1   C18 2987   4.138   0.022   7.705  0.6473  0.0256  0.1414
   41CHL1  H18A 2988   4.212   0.056   7.781  1.0617  1.4390 -0.8491
   41CHL1  H18B 2989   4.151  -0.088   7.699  0.4935  0.0002  0.2667
   41CHL1  H18C 2990   4.176   0.082   7.620 -1.0924  1.0100  0.0043
   41CHL1   C12 2991   3.884  -0.013   7.649 -0.2457  0.3025 -0.6971
   41CHL1  H12A 2992   3.872  -0.116   7.687  0.2075  1.3734  2.7453
   41CHL1  H12B 2993   3.786   0.035   7.671 -1.1664 -2.3319  1.3965
   41CHL1   C11 2994   3.924  -0.007   7.499  0.0481 -0.4464  0.4917
   41CHL1  H11A 2995   4.027  -0.045   7.478  0.7569  1.2563  0.7604
   41CHL1  H11B 2996   3.851  -0.074   7.449  1.0005 -2.6604  1.8975
   41CHL1    C9 2997   3.922   0.138   7.448 -0.3843  0.1888 -0.7422
   41CHL1    H9 2998   3.817   0.169   7.464 -0.0443  0.1691  2.0485
   41CHL1   C10 2999   3.955   0.162   7.297  0.4510 -0.4912 -0.1200
   41CHL1   C19 3000   4.094   0.094   7.252  0.2354  0.2132 -0.6503
   41CHL1  H19A 3001   4.171   0.145   7.314 -1.6544 -0.8977  2.8746
   41CHL1  H19B 3002   4.086  -0.012   7.284 -1.7716  0.4294 -0.3401
   41CHL1  H19C 3003   4.125   0.110   7.146 -1.1640  0.9397 -0.9649
   41CHL1    C1 3004   3.844   0.093   7.220 -0.7181  0.2436 -0.5057
   41CHL1   H1A 3005   3.850  -0.017   7.229 -0.5312  0.2997  0.0893
   41CHL1   H1B 3006   3.748   0.134   7.258 -1.0729  1.0576 -2.1928
   41CHL1    C2 3007   3.838   0.117   7.072 -0.6721 -0.6343 -0.1387
   41CHL1   H2A 3008   3.738   0.075   7.048 -1.2007 -2.0485  3.7872
   41CHL1   H2B 3009   3.920   0.061   7.022 -0.0727  2.0237 -2.3675
   41CHL1   C20 3010   4.004  -0.022   7.980  0.7562  0.2569  0.0558
   41CHL1   H20 3011   4.108  -0.060   7.979  0.8590  0.1018  3.5709
   41CHL1   C21 3012   3.902  -0.136   7.952  0.2103 -0.0328  0.3534
   41CHL1  H21A 3013   3.935  -0.186   7.858  1.1198 -1.3392  1.3263
   41CHL1  H21B 3014   3.798  -0.104   7.932 -0.1630  0.0184  2.1681
   41CHL1  H21C 3015   3.909  -0.213   8.032 -2.5420 -1.3024 -0.5290
   41CHL1   C22 3016   4.004   0.014   8.133  0.1063  0.3381 -0.3770
   41CHL1  H22A 3017   4.061   0.108   8.144 -1.3201  1.1952  0.0151
   41CHL1  H22B 3018   3.897   0.038   8.151 -0.7704 -2.3827 -1.4543
   41CHL1   C23 3019   4.055  -0.098   8.237 -0.6715 -0.6230 -0.4132
   41CHL1  H23A 3020   4.010  -0.195   8.207  0.9823 -1.1245 -1.4252
   41CHL1  H23B 3021   4.163  -0.114   8.217 -0.4590 -3.5563  2.3245
   41CHL1   C24 3022   4.044  -0.052   8.394 -0.1033  0.0490  0.3802
   41CHL1  H24A 3023   4.117   0.030   8.412  0.1332  0.0494 -0.5251
   41CHL1  H24B 3024   3.938  -0.021   8.403  0.1200  0.6710  0.9776
   41CHL1   C25 3025   4.069  -0.176   8.486 -0.4691 -0.0675 -0.1622
   41CHL1   H25 3026   4.161  -0.235   8.464 -0.4202 -0.1724  0.3096
   41CHL1   C26 3027   4.078  -0.117   8.628  0.0523  0.8550 -0.5816
   41CHL1  H26A 3028   4.169  -0.053   8.633 -1.3007  3.0878 -2.2290
   41CHL1  H26B 3029   3.990  -0.051   8.641 -1.5638 -1.3071  0.0257
   41CHL1  H26C 3030   4.092  -0.198   8.702 -1.2371 -1.0769 -2.3281
   41CHL1   C27 3031   3.945  -0.271   8.485 -0.2777  0.0270 -0.0410
   41CHL1  H27A 3032   3.854  -0.208   8.495  0.6036  1.3449 -0.2457
   41CHL1  H27B 3033   3.932  -0.330   8.392  0.1532  0.1258 -0.1645
   41CHL1  H27C 3034   3.944  -0.354   8.560 -0.1149 -0.1581 -0.2404
   42CHL1    C3 3035   3.969   3.451   7.009  0.4562  0.4206  0.2878
   42CHL1    H3 3036   3.922   3.552   7.014  0.7764  0.7664 -2.3113
   42CHL1    O3 3037   4.058   3.445   6.897  0.1050 -0.1902  0.2170
   42CHL1   H3' 3038   4.085   3.353   6.898 -0.9120 -0.5398 -1.4780
   42CHL1    C4 3039   4.050   3.434   7.135  0.0785 -0.6099  0.0850
   42CHL1   H4A 3040   4.119   3.347   7.128  2.1627  0.7601  2.0830
   42CHL1   H4B 3041   4.121   3.519   7.139 -0.4511 -0.1910  0.8304
   42CHL1    C5 3042   3.954   3.423   7.252 -0.0741  0.1437 -0.8593
   42CHL1    C6 3043   3.966   3.509   7.353 -0.5958  0.2174  0.0131
   42CHL1    H6 3044   4.039   3.592   7.350 -0.2146 -0.1430 -1.2968
   42CHL1    C7 3045   3.876   3.515   7.468  0.0877  0.4139  0.3763
   42CHL1   H7A 3046   3.930   3.553   7.558  0.5739 -1.9655  1.1612
   42CHL1   H7B 3047   3.786   3.578   7.453  0.6030  1.7758  2.5414
   42CHL1    C8 3048   3.821   3.371   7.498 -0.3703  0.2102  0.6988
   42CHL1    H8 3049   3.905   3.311   7.540  2.0219  3.3566  0.8020
   42CHL1   C14 3050   3.719   3.380   7.616 -0.2747 -0.2989  0.0545
   42CHL1   H14 3051   3.636   3.450   7.593  0.6529  1.2054  1.1381
   42CHL1   C15 3052   3.772   3.440   7.746  0.1612 -0.0606  0.0537
   42CHL1  H15A 3053   3.874   3.401   7.770  1.1295 -0.1109 -3.4798
   42CHL1  H15B 3054   3.759   3.550   7.740 -1.2332 -0.2872 -2.3878
   42CHL1   C16 3055   3.671   3.386   7.854  0.3290 -0.5104  0.2439
   42CHL1  H16A 3056   3.720   3.342   7.943  1.0727 -1.0307 -0.4031
   42CHL1  H16B 3057   3.606   3.468   7.889  0.6211 -1.0150  2.0495
   42CHL1   C17 3058   3.580   3.282   7.779 -0.4573 -0.9321 -0.6773
   42CHL1   H17 3059   3.496   3.339   7.734 -0.9498 -0.4377  0.8143
   42CHL1   C13 3060   3.661   3.247   7.655  0.0947 -0.0234 -0.2798
   42CHL1   C18 3061   3.763   3.150   7.708  0.2236  0.4679 -0.6502
   42CHL1  H18A 3062   3.839   3.120   7.633  0.3413  2.0381 -1.2016
   42CHL1  H18B 3063   3.823   3.182   7.796 -0.0952 -1.7842  0.4619
   42CHL1  H18C 3064   3.713   3.057   7.744 -1.7313  0.9737 -1.9002
   42CHL1   C12 3065   3.582   3.196   7.532 -0.4824  0.0506  0.4382
   42CHL1  H12A 3066   3.543   3.093   7.550 -0.3914  0.0644  0.7198
   42CHL1  H12B 3067   3.497   3.264   7.510 -1.7311 -1.5217  0.1497
   42CHL1   C11 3068   3.682   3.187   7.413 -0.4093 -0.4557 -0.3448
   42CHL1  H11A 3069   3.757   3.110   7.439  1.0614  1.2338  0.6435
   42CHL1  H11B 3070   3.631   3.146   7.324  1.6176  0.8713 -2.2081
   42CHL1    C9 3071   3.758   3.317   7.368 -0.1642 -0.0744 -0.7341
   42CHL1    H9 3072   3.676   3.390   7.348 -1.4104 -1.2507 -0.1292
   42CHL1   C10 3073   3.855   3.315   7.253  1.4909  0.7277  1.2812
   42CHL1   C19 3074   3.926   3.173   7.262  0.2208  0.0319 -0.2105
   42CHL1  H19A 3075   3.945   3.157   7.371 -1.9316 -1.5784 -0.0142
   42CHL1  H19B 3076   3.853   3.093   7.238 -0.4304 -0.2534  2.4025
   42CHL1  H19C 3077   4.016   3.148   7.202 -1.1659 -1.1378 -1.8814
   42CHL1    C1 3078   3.770   3.316   7.115  0.8627  0.6177  0.8896
   42CHL1   H1A 3079   3.696   3.234   7.101  0.6333  1.0778 -0.7877
   42CHL1   H1B 3080   3.696   3.398   7.119  0.8400  0.5528  2.7742
   42CHL1    C2 3081   3.860   3.335   6.998  0.1716 -0.6746  0.5815
   42CHL1   H2A 3082   3.798   3.350   6.907  2.1221  0.7719 -0.5948
   42CHL1   H2B 3083   3.908   3.236   6.981  0.8375 -0.3186  0.3215
   42CHL1   C20 3084   3.515   3.173   7.874 -0.2571 -0.1417  0.4907
   42CHL1   H20 3085   3.589   3.114   7.933 -2.7315 -3.6558  0.3903
   42CHL1   C21 3086   3.414   3.094   7.794  0.7746 -0.0055  0.2134
   42CHL1  H21A 3087   3.357   3.174   7.740  1.0471  0.2279  0.2670
   42CHL1  H21B 3088   3.341   3.032   7.850 -1.9900  1.7993 -1.1335
   42CHL1  H21C 3089   3.466   3.027   7.722  1.5149  1.9070 -1.1206
   42CHL1   C22 3090   3.443   3.243   7.984 -0.6799  0.0931  0.0183
   42CHL1  H22A 3091   3.515   3.315   8.029 -0.3383 -1.1122  1.4659
   42CHL1  H22B 3092   3.356   3.291   7.935 -0.2114 -1.0275 -2.0177
   42CHL1   C23 3093   3.407   3.151   8.102  0.0628 -0.4604 -0.1463
   42CHL1  H23A 3094   3.325   3.088   8.061 -1.9698  2.1748 -0.4166
   42CHL1  H23B 3095   3.496   3.096   8.137 -0.5882 -1.3096  0.2129
   42CHL1   C24 3096   3.346   3.236   8.220  0.0110  1.2166 -0.1461
   42CHL1  H24A 3097   3.439   3.281   8.261  2.0090 -0.5716 -2.3848
   42CHL1  H24B 3098   3.291   3.316   8.165 -0.9920  0.5051 -0.2019
   42CHL1   C25 3099   3.268   3.156   8.330  0.4537  0.7114  0.1654
   42CHL1   H25 3100   3.326   3.070   8.371  0.2432  0.1842 -0.6133
   42CHL1   C26 3101   3.251   3.250   8.452 -0.4687  0.6021  0.3885
   42CHL1  H26A 3102   3.205   3.185   8.530 -1.7031  1.4969  0.4329
   42CHL1  H26B 3103   3.347   3.295   8.484  0.0595 -0.4205  0.2856
   42CHL1  H26C 3104   3.172   3.325   8.431 -1.4184  0.1075  2.0367
   42CHL1   C27 3105   3.129   3.107   8.285  0.2772  0.4216  0.1502
   42CHL1  H27A 3106   3.066   3.198   8.273 -0.9758 -0.4626 -0.0848
   42CHL1  H27B 3107   3.090   3.037   8.361  0.5694  0.4685  0.3435
   42CHL1  H27C 3108   3.138   3.071   8.180  0.5596  0.7125  0.0706
   43CHL1    C3 3109   5.061   0.667   6.937 -0.0125 -0.3290 -0.1655
   43CHL1    H3 3110   5.023   0.563   6.933 -4.3877  1.0566  0.0742
   43CHL1    O3 3111   5.100   0.700   6.806  0.1740 -0.7645 -0.1748
   43CHL1   H3' 3112   5.147   0.622   6.774  1.9701  1.0010 -2.1719
   43CHL1    C4 3113   4.954   0.772   6.972 -0.9425 -0.1342 -0.8140
   43CHL1   H4A 3114   5.006   0.869   6.965  0.7199 -0.9981 -0.8137
   43CHL1   H4B 3115   4.864   0.766   6.907 -2.0961  0.9825  0.6148
   43CHL1    C5 3116   4.907   0.743   7.116  0.4770 -0.2556  0.0632
   43CHL1    C6 3117   4.783   0.713   7.157 -0.9870 -0.3175  1.2536
   43CHL1    H6 3118   4.702   0.707   7.082 -1.0966  1.4792  1.1763
   43CHL1    C7 3119   4.745   0.700   7.298  0.8052  0.4798  0.6689
   43CHL1   H7A 3120   4.650   0.755   7.316 -0.3935 -0.6518 -1.7544
   43CHL1   H7B 3121   4.720   0.592   7.308 -1.7750  0.9332 -0.1371
   43CHL1    C8 3122   4.846   0.751   7.403  1.1811 -0.3364  0.2325
   43CHL1    H8 3123   4.837   0.862   7.408 -2.9570 -0.5370  0.1568
   43CHL1   C14 3124   4.812   0.699   7.541 -0.0137  0.6979 -0.4534
   43CHL1   H14 3125   4.827   0.589   7.530 -1.1007  0.6360 -1.6443
   43CHL1   C15 3126   4.665   0.715   7.606 -0.6344  0.8106  0.8203
   43CHL1  H15A 3127   4.629   0.819   7.586  0.8744  1.4374  1.2144
   43CHL1  H15B 3128   4.605   0.631   7.565  0.8536 -1.1996  2.5110
   43CHL1   C16 3129   4.695   0.694   7.763 -0.1143 -0.1608 -0.0924
   43CHL1  H16A 3130   4.661   0.786   7.815  0.4695  0.3182 -0.5440
   43CHL1  H16B 3131   4.653   0.601   7.806  0.1384  0.0356  0.5832
   43CHL1   C17 3132   4.846   0.680   7.772 -1.2360 -0.3921 -0.1486
   43CHL1   H17 3133   4.875   0.574   7.753  1.3322  0.0531  0.8843
   43CHL1   C13 3134   4.908   0.755   7.647  0.5607 -0.1157  0.0941
   43CHL1   C18 3135   4.905   0.906   7.659  0.1381  0.1396 -0.4278
   43CHL1  H18A 3136   4.800   0.926   7.687 -0.5990 -3.2493 -0.2641
   43CHL1  H18B 3137   4.978   0.946   7.732  0.1699 -1.8225  0.6791
   43CHL1  H18C 3138   4.931   0.960   7.565  0.8747  3.3207  1.4784
   43CHL1   C12 3139   5.047   0.708   7.613  0.2157 -0.3132  0.1989
   43CHL1  H12A 3140   5.128   0.744   7.680  1.6400 -0.0845 -1.5652
   43CHL1  H12B 3141   5.059   0.598   7.617  2.9939 -0.0740  2.3617
   43CHL1   C11 3142   5.090   0.757   7.478 -0.2680 -0.6986 -0.7536
   43CHL1  H11A 3143   5.108   0.867   7.473 -1.0723 -0.6016 -2.3910
   43CHL1  H11B 3144   5.191   0.715   7.458 -0.0900 -1.0291  0.7026
   43CHL1    C9 3145   4.987   0.712   7.373 -0.6992  0.0582  0.1483
   43CHL1    H9 3146   4.983   0.601   7.383 -0.5103  0.1851  1.8376
   43CHL1   C10 3147   5.024   0.764   7.225  0.6215 -0.0055 -0.1873
   43CHL1   C19 3148   5.069   0.919   7.227  0.0296 -0.1621 -0.9624
   43CHL1  H19A 3149   5.155   0.911   7.297  0.1416  0.1313 -1.0654
   43CHL1  H19B 3150   5.102   0.955   7.127  1.6334 -0.4102 -0.5479
   43CHL1  H19C 3151   4.993   0.984   7.277  1.8874  2.2380 -1.1054
   43CHL1    C1 3152   5.147   0.679   7.178  0.3136  0.5212  0.1196
   43CHL1   H1A 3153   5.242   0.708   7.229 -0.3480 -0.9911  2.3529
   43CHL1   H1B 3154   5.127   0.574   7.208 -1.2267  1.4268  2.5576
   43CHL1    C2 3155   5.178   0.688   7.031  0.2587  0.1906 -0.3386
   43CHL1   H2A 3156   5.258   0.612   7.016 -0.3874 -0.5016 -0.3352
   43CHL1   H2B 3157   5.217   0.792   7.021 -1.1334  0.7497 -0.0809
   43CHL1   C20 3158   4.902   0.721   7.908 -0.0964 -0.4618 -0.3963
   43CHL1   H20 3159   4.921   0.830   7.910 -1.2274 -0.2621 -0.1814
   43CHL1   C21 3160   5.034   0.646   7.931 -0.4498  0.8226  0.6161
   43CHL1  H21A 3161   5.090   0.626   7.837 -2.6699  0.7660 -0.7522
   43CHL1  H21B 3162   5.008   0.554   7.987 -1.0593  0.7814  0.2746
   43CHL1  H21C 3163   5.113   0.695   7.992  0.6715 -1.0300  0.7268
   43CHL1   C22 3164   4.812   0.692   8.032  0.0728 -0.6416  0.6085
   43CHL1  H22A 3165   4.724   0.752   7.999  1.4883 -0.8011 -4.2706
   43CHL1  H22B 3166   4.793   0.583   8.034  1.1068 -0.8361  2.9944
   43CHL1   C23 3167   4.867   0.745   8.169  0.0742  0.4988 -0.3934
   43CHL1  H23A 3168   4.943   0.685   8.223  2.0589  2.5196 -0.8332
   43CHL1  H23B 3169   4.915   0.843   8.148 -0.2942  0.7928  0.1280
   43CHL1   C24 3170   4.752   0.791   8.258 -1.1232  0.0626 -0.3499
   43CHL1  H24A 3171   4.799   0.846   8.342  0.4257 -1.0838 -0.4190
   43CHL1  H24B 3172   4.691   0.863   8.200 -2.2435  1.7177  2.7073
   43CHL1   C25 3173   4.665   0.680   8.305 -0.3357  0.1023 -0.4082
   43CHL1   H25 3174   4.610   0.630   8.223 -1.1219  0.1282  0.0924
   43CHL1   C26 3175   4.749   0.579   8.387  0.1370  0.7913 -0.1129
   43CHL1  H26A 3176   4.674   0.515   8.438 -2.9432  2.0408 -2.7177
   43CHL1  H26B 3177   4.823   0.520   8.329 -0.5133 -1.7195  1.4726
   43CHL1  H26C 3178   4.803   0.635   8.467  0.2810  0.4666  0.0163
   43CHL1   C27 3179   4.562   0.741   8.396 -0.0224 -0.6518  0.3047
   43CHL1  H27A 3180   4.614   0.792   8.480 -0.4854 -0.6555  0.5939
   43CHL1  H27B 3181   4.498   0.818   8.349 -0.7102 -1.6727 -0.4865
   43CHL1  H27C 3182   4.492   0.663   8.433 -0.4762 -0.3945 -0.0049
   44CHL1    C3 3183   2.956   5.621   6.804 -0.8241 -0.2080 -0.0388
   44CHL1    H3 3184   2.993   5.518   6.819  0.3553  0.3938  1.5640
   44CHL1    O3 3185   2.983   5.639   6.668 -0.5995  0.2420  0.0628
   44CHL1   H3' 3186   2.993   5.732   6.645  0.5323  0.4575  1.3236
   44CHL1    C4 3187   2.808   5.633   6.839 -0.2858 -0.2560 -0.1863
   44CHL1   H4A 3188   2.781   5.740   6.827 -0.1569 -0.2294 -0.2326
   44CHL1   H4B 3189   2.746   5.576   6.767  0.1212 -0.8805 -0.0459
   44CHL1    C5 3190   2.796   5.593   6.984  0.0255 -0.1336  0.3503
   44CHL1    C6 3191   2.715   5.500   7.031 -0.1938  0.2882  0.1024
   44CHL1    H6 3192   2.659   5.429   6.968  0.5177 -0.3250  0.1514
   44CHL1    C7 3193   2.696   5.468   7.173 -1.3120 -0.1252  0.9752
   44CHL1   H7A 3194   2.594   5.437   7.205 -0.0592 -1.9747  3.5605
   44CHL1   H7B 3195   2.764   5.382   7.192  1.0948  1.2099 -0.9827
   44CHL1    C8 3196   2.749   5.579   7.276 -0.2563  0.2504  0.7605
   44CHL1    H8 3197   2.681   5.667   7.274 -0.3671  0.1768  1.2159
   44CHL1   C14 3198   2.770   5.520   7.419 -0.3575  0.0645  0.2684
   44CHL1   H14 3199   2.854   5.449   7.408 -0.3367  0.0216  0.6798
   44CHL1   C15 3200   2.657   5.439   7.478 -0.0924  0.2128  0.1227
   44CHL1  H15A 3201   2.553   5.475   7.464 -0.7386 -0.3368  2.8171
   44CHL1  H15B 3202   2.671   5.338   7.435 -3.4632 -0.0569 -0.5670
   44CHL1   C16 3203   2.682   5.439   7.628 -0.4717 -0.8444 -0.3274
   44CHL1  H16A 3204   2.601   5.493   7.680  1.9154  4.2392 -1.2854
   44CHL1  H16B 3205   2.700   5.337   7.667 -1.0992 -0.8828 -0.1325
   44CHL1   C17 3206   2.809   5.538   7.653  0.0550 -0.5857  0.0023
   44CHL1   H17 3207   2.896   5.472   7.673 -1.2140 -1.6196  2.5151
   44CHL1   C13 3208   2.825   5.621   7.521 -0.6877 -0.0681 -0.1166
   44CHL1   C18 3209   2.720   5.736   7.531  0.1141 -1.0845  0.1171
   44CHL1  H18A 3210   2.757   5.815   7.599 -0.1972  0.9128 -1.9147
   44CHL1  H18B 3211   2.715   5.799   7.440  1.3619 -0.2774  0.5939
   44CHL1  H18C 3212   2.622   5.690   7.559  0.2532 -0.7471  1.2194
   44CHL1   C12 3213   2.966   5.664   7.481  0.0221 -0.0899 -0.2684
   44CHL1  H12A 3214   3.009   5.738   7.552 -0.1005  0.2966 -0.5965
   44CHL1  H12B 3215   3.022   5.568   7.486  0.1573 -0.1163 -1.8987
   44CHL1   C11 3216   2.961   5.719   7.332 -0.4353  0.7060  0.0857
   44CHL1  H11A 3217   2.910   5.818   7.332 -3.4746 -0.6418  3.5650
   44CHL1  H11B 3218   3.065   5.744   7.302  0.6599 -0.7394  2.4072
   44CHL1    C9 3219   2.887   5.628   7.230  0.0626  0.8132  0.1534
   44CHL1    H9 3220   2.951   5.537   7.230  2.0148  2.0931  1.5920
   44CHL1   C10 3221   2.883   5.678   7.083 -0.1864 -0.2823  0.2618
   44CHL1   C19 3222   2.818   5.817   7.082 -0.9374 -0.3786 -0.3954
   44CHL1  H19A 3223   2.708   5.817   7.097 -0.7384  0.5746  1.4354
   44CHL1  H19B 3224   2.872   5.881   7.155 -0.7023 -1.8378  0.7478
   44CHL1  H19C 3225   2.839   5.867   6.985  0.7507 -1.3916 -0.5832
   44CHL1    C1 3226   3.028   5.687   7.042 -0.4583 -0.1772  0.8228
   44CHL1   H1A 3227   3.081   5.767   7.098 -1.1569  1.1149 -0.2868
   44CHL1   H1B 3228   3.070   5.588   7.067  0.4547 -0.0508 -0.1743
   44CHL1    C2 3229   3.044   5.712   6.889 -0.3713  0.3039  0.4073
   44CHL1   H2A 3230   3.151   5.699   6.862 -0.6293  1.1611 -1.1917
   44CHL1   H2B 3231   3.014   5.818   6.871  1.1659  0.6321 -0.4603
   44CHL1   C20 3232   2.816   5.616   7.787 -0.1505  0.2576  0.3208
   44CHL1   H20 3233   2.737   5.694   7.790 -0.1482  0.2447  0.8599
   44CHL1   C21 3234   2.941   5.700   7.798 -0.0514 -0.0137  0.1857
   44CHL1  H21A 3235   2.928   5.788   7.732  1.3863  0.3752  0.3881
   44CHL1  H21B 3236   3.032   5.650   7.760 -1.2198 -1.1995 -1.1832
   44CHL1  H21C 3237   2.955   5.745   7.898 -1.6211 -0.4310  0.6200
   44CHL1   C22 3238   2.794   5.518   7.902  0.7487  0.3885 -0.4709
   44CHL1  H22A 3239   2.696   5.467   7.893  2.2946 -2.8879  0.0374
   44CHL1  H22B 3240   2.870   5.438   7.905 -0.5422 -0.8865 -0.4288
   44CHL1   C23 3241   2.788   5.589   8.040 -0.0322 -0.3167  0.6052
   44CHL1  H23A 3242   2.888   5.629   8.068 -0.5068  0.1568  1.6692
   44CHL1  H23B 3243   2.735   5.686   8.024 -0.7619 -0.7385  0.4388
   44CHL1   C24 3244   2.729   5.505   8.154  0.2706  0.2895 -0.1925
   44CHL1  H24A 3245   2.648   5.444   8.109  2.0178 -0.5933 -2.2882
   44CHL1  H24B 3246   2.795   5.418   8.176  1.1699  0.8727 -0.5244
   44CHL1   C25 3247   2.670   5.582   8.273  0.6025  0.4614 -0.1160
   44CHL1   H25 3248   2.734   5.671   8.286 -0.5477  1.4149 -0.8306
   44CHL1   C26 3249   2.525   5.619   8.235 -0.0354 -0.1434  0.2343
   44CHL1  H26A 3250   2.521   5.679   8.141  3.8495  0.3914  0.2612
   44CHL1  H26B 3251   2.469   5.525   8.214  0.4705 -0.6362  1.0367
   44CHL1  H26C 3252   2.470   5.680   8.309 -0.2215 -0.2298  0.1687
   44CHL1   C27 3253   2.661   5.497   8.397 -0.7042  0.1779  0.4473
   44CHL1  H27A 3254   2.623   5.395   8.371  1.2200 -0.1412 -1.2996
   44CHL1  H27B 3255   2.755   5.470   8.449  0.9024  2.1470 -1.2866
   44CHL1  H27C 3256   2.594   5.544   8.473 -0.9150 -0.4138  0.6411
   45CHL1    C3 3257   4.629   4.632   6.789  0.2711 -1.1086  0.3894
   45CHL1    H3 3258   4.636   4.743   6.778  1.4268 -1.1656  0.4269
   45CHL1    O3 3259   4.591   4.558   6.671 -0.2878  0.1750 -0.5097
   45CHL1   H3' 3260   4.498   4.535   6.672  0.0345 -1.2147 -0.5954
   45CHL1    C4 3261   4.766   4.601   6.845  1.1527  0.1812 -0.0611
   45CHL1   H4A 3262   4.767   4.490   6.843 -0.2477  0.1418 -2.3709
   45CHL1   H4B 3263   4.843   4.639   6.774  0.8318 -1.2908 -1.2572
   45CHL1    C5 3264   4.801   4.648   6.981 -0.4410 -0.8787 -0.5252
   45CHL1    C6 3265   4.919   4.716   7.002 -0.0450  0.0841  0.4028
   45CHL1    H6 3266   4.979   4.739   6.912 -0.1044 -0.3931  0.2415
   45CHL1    C7 3267   4.970   4.748   7.141  0.2648  0.3453  0.2593
   45CHL1   H7A 3268   5.072   4.707   7.153  1.3846  2.6853 -0.5844
   45CHL1   H7B 3269   4.968   4.858   7.156  2.4508  0.5947 -0.9286
   45CHL1    C8 3270   4.883   4.678   7.253 -0.3050  0.3945  0.1957
   45CHL1    H8 3271   4.919   4.573   7.264 -0.9928  0.2863  1.7076
   45CHL1   C14 3272   4.910   4.732   7.391  0.4563  0.2581  0.4414
   45CHL1   H14 3273   4.873   4.837   7.383 -0.4828 -0.2092 -2.0954
   45CHL1   C15 3274   5.057   4.740   7.442  0.0799 -0.1747  0.3723
   45CHL1  H15A 3275   5.107   4.640   7.436  1.9898  0.7463  0.3300
   45CHL1  H15B 3276   5.120   4.809   7.383 -1.5236  2.0930  1.1828
   45CHL1   C16 3277   5.039   4.786   7.587  0.0614 -0.2562  0.0861
   45CHL1  H16A 3278   5.094   4.716   7.653 -1.8083 -1.4460  0.4667
   45CHL1  H16B 3279   5.091   4.883   7.606  1.1066 -0.9931  1.0657
   45CHL1   C17 3280   4.889   4.772   7.627  0.9711  0.5519  0.7770
   45CHL1   H17 3281   4.841   4.870   7.608 -2.1440 -1.1915 -1.2208
   45CHL1   C13 3282   4.825   4.684   7.514 -0.8649  0.9427  0.2985
   45CHL1   C18 3283   4.862   4.536   7.536  0.3934  0.0166  0.3240
   45CHL1  H18A 3284   4.787   4.494   7.606 -0.5557  0.9826 -0.0856
   45CHL1  H18B 3285   4.871   4.479   7.441  2.1658  2.6097 -1.1929
   45CHL1  H18C 3286   4.957   4.521   7.592  1.0906 -0.6003 -0.9932
   45CHL1   C12 3287   4.672   4.694   7.479 -0.0864  0.0421 -0.7943
   45CHL1  H12A 3288   4.603   4.647   7.552 -1.0901  1.0769 -1.0329
   45CHL1  H12B 3289   4.645   4.802   7.485 -0.6208 -0.0283 -1.7063
   45CHL1   C11 3290   4.635   4.650   7.340  0.3918  0.7723  0.3176
   45CHL1  H11A 3291   4.633   4.539   7.350 -0.4828  0.7764  0.3351
   45CHL1  H11B 3292   4.534   4.688   7.312 -0.2677  0.4164  2.0920
   45CHL1    C9 3293   4.731   4.684   7.220 -0.5004 -0.6152  0.2148
   45CHL1    H9 3294   4.716   4.793   7.205  2.9502  0.2276  1.9141
   45CHL1   C10 3295   4.696   4.613   7.089 -0.0033 -0.1051 -0.3227
   45CHL1   C19 3296   4.684   4.457   7.109 -0.1262  0.4239  0.4572
   45CHL1  H19A 3297   4.772   4.417   7.164 -1.2573 -1.5580  0.9177
   45CHL1  H19B 3298   4.593   4.435   7.168  0.2245 -1.1825  0.4671
   45CHL1  H19C 3299   4.667   4.403   7.014  1.2631 -2.5656  1.7789
   45CHL1    C1 3300   4.553   4.654   7.038 -0.1935 -0.0656  0.3738
   45CHL1   H1A 3301   4.469   4.632   7.107 -1.3204  0.6083 -0.7536
   45CHL1   H1B 3302   4.545   4.765   7.032  0.0745 -0.1387 -2.8260
   45CHL1    C2 3303   4.516   4.607   6.898 -1.0431  0.2090  0.0212
   45CHL1   H2A 3304   4.418   4.652   6.871 -0.5284  1.8061  0.6966
   45CHL1   H2B 3305   4.500   4.497   6.893  1.5432 -0.1506 -2.1101
   45CHL1   C20 3306   4.882   4.728   7.774  0.0628  0.1855 -0.0415
   45CHL1   H20 3307   4.949   4.643   7.795 -1.1691 -0.2946  2.2410
   45CHL1   C21 3308   4.738   4.694   7.819 -0.6135  0.3710  0.4576
   45CHL1  H21A 3309   4.697   4.604   7.769  3.5197 -0.5150 -1.8420
   45CHL1  H21B 3310   4.682   4.790   7.817 -0.8757  0.2457  1.5291
   45CHL1  H21C 3311   4.728   4.681   7.929 -1.4428 -0.2879  0.3127
   45CHL1   C22 3312   4.933   4.841   7.870  0.0132 -0.4211 -0.3207
   45CHL1  H22A 3313   5.014   4.895   7.816  2.0021 -1.8333  1.0906
   45CHL1  H22B 3314   4.852   4.916   7.882  1.0741  0.5982  0.8339
   45CHL1   C23 3315   4.978   4.795   8.005 -0.2670  0.0933 -0.1156
   45CHL1  H23A 3316   4.919   4.705   8.032  0.3934 -0.6747 -1.1442
   45CHL1  H23B 3317   5.083   4.767   7.983  0.3798  2.8926 -0.8951
   45CHL1   C24 3318   4.970   4.909   8.116  0.0244 -0.0956 -0.0420
   45CHL1  H24A 3319   5.055   4.977   8.092  0.3274 -0.9759 -1.6467
   45CHL1  H24B 3320   4.876   4.966   8.102 -0.6408 -1.5826 -2.0583
   45CHL1   C25 3321   4.992   4.868   8.267 -0.5329 -0.0264 -0.1469
   45CHL1   H25 3322   4.983   4.971   8.308 -2.3597 -0.3072  0.2443
   45CHL1   C26 3323   4.882   4.773   8.309 -0.2081 -0.3246  0.0935
   45CHL1  H26A 3324   4.785   4.825   8.292 -0.5886 -1.0528 -0.0168
   45CHL1  H26B 3325   4.886   4.672   8.262  0.8274 -0.7590  1.0794
   45CHL1  H26C 3326   4.892   4.742   8.415 -0.7485 -0.5725  0.0734
   45CHL1   C27 3327   5.132   4.801   8.288  0.5196  0.4746  0.2248
   45CHL1  H27A 3328   5.210   4.870   8.249  0.9295  0.3374  0.7848
   45CHL1  H27B 3329   5.146   4.782   8.396  0.3028  1.1709  0.3825
   45CHL1  H27C 3330   5.128   4.711   8.223 -1.9703 -0.6186  1.7221
   46CHL1    C3 3331   5.179   5.362   6.999  0.6265  0.6747 -1.0147
   46CHL1    H3 3332   5.184   5.471   7.016  0.6007  0.4294  0.7860
   46CHL1    O3 3333   5.161   5.332   6.860  0.1336 -0.0048  0.1245
   46CHL1   H3' 3334   5.200   5.246   6.846 -2.6373 -1.2438 -0.6276
   46CHL1    C4 3335   5.306   5.287   7.049 -0.2067  0.4460  0.3980
   46CHL1   H4A 3336   5.312   5.180   7.020  1.9277  0.4517  0.6270
   46CHL1   H4B 3337   5.391   5.337   6.998  0.5917 -0.7115  0.5642
   46CHL1    C5 3338   5.321   5.301   7.205 -0.7669  0.5300  0.2794
   46CHL1    C6 3339   5.432   5.344   7.269  0.8086 -0.0268  0.0925
   46CHL1    H6 3340   5.521   5.373   7.211 -0.5207 -2.1588 -3.2755
   46CHL1    C7 3341   5.447   5.352   7.416 -0.0663  0.3892 -0.5279
   46CHL1   H7A 3342   5.543   5.299   7.433  0.5771  1.3374 -1.1236
   46CHL1   H7B 3343   5.443   5.459   7.445 -2.5805  0.6457 -1.5979
   46CHL1    C8 3344   5.334   5.276   7.490 -0.3163 -0.2337 -0.8019
   46CHL1    H8 3345   5.363   5.169   7.482 -0.8046 -0.4755  0.4566
   46CHL1   C14 3346   5.335   5.321   7.637  0.1126 -0.5661 -0.1149
   46CHL1   H14 3347   5.308   5.428   7.626  1.6661  0.0383  1.4732
   46CHL1   C15 3348   5.473   5.322   7.706  0.6198  0.3939 -0.5839
   46CHL1  H15A 3349   5.535   5.232   7.684  0.9794 -0.0474  1.9692
   46CHL1  H15B 3350   5.531   5.416   7.696 -0.0791  0.7717 -1.2150
   46CHL1   C16 3351   5.432   5.303   7.851  0.2851  0.0849 -0.0811
   46CHL1  H16A 3352   5.469   5.213   7.904  1.2603  2.0889  2.8722
   46CHL1  H16B 3353   5.468   5.391   7.909 -2.6491  0.8282  0.7625
   46CHL1   C17 3354   5.270   5.316   7.855 -0.5204  0.4121  0.1123
   46CHL1   H17 3355   5.246   5.425   7.861  0.3783  0.5475  3.7900
   46CHL1   C13 3356   5.226   5.257   7.722 -0.4802 -0.0756  0.7670
   46CHL1   C18 3357   5.235   5.103   7.725  0.1925  0.1062  0.3456
   46CHL1  H18A 3358   5.221   5.057   7.625  1.0883 -1.2053  0.7869
   46CHL1  H18B 3359   5.332   5.072   7.770 -1.1537 -2.1892  1.9390
   46CHL1  H18C 3360   5.159   5.053   7.790  0.7093 -0.0309  0.8553
   46CHL1   C12 3361   5.093   5.308   7.665  0.6130  0.0073 -0.2582
   46CHL1  H12A 3362   5.008   5.262   7.719  1.3086 -0.7904  0.1950
   46CHL1  H12B 3363   5.089   5.418   7.677  1.2027 -0.2570  3.5687
   46CHL1   C11 3364   5.081   5.265   7.515 -0.2900  0.6145 -0.3873
   46CHL1  H11A 3365   5.063   5.155   7.513  2.7095 -0.1970  3.9022
   46CHL1  H11B 3366   4.991   5.316   7.476 -0.9596  0.1599  0.5278
   46CHL1    C9 3367   5.197   5.304   7.431 -0.1900  0.4022  0.4451
   46CHL1    H9 3368   5.197   5.415   7.426 -1.4980  0.3600 -1.9510
   46CHL1   C10 3369   5.193   5.253   7.280  0.0086  0.3099 -0.1279
   46CHL1   C19 3370   5.167   5.102   7.267  0.5778  0.2498 -0.0347
   46CHL1  H19A 3371   5.234   5.050   7.339 -0.4739 -0.4037  0.4887
   46CHL1  H19B 3372   5.064   5.091   7.307 -0.1350  0.0548 -1.8645
   46CHL1  H19C 3373   5.158   5.059   7.165 -1.4046  0.3366  0.0701
   46CHL1    C1 3374   5.071   5.331   7.222  0.0740  0.3579  0.1523
   46CHL1   H1A 3375   4.981   5.273   7.254  0.8281 -0.5437  0.7086
   46CHL1   H1B 3376   5.079   5.438   7.251  0.3110  0.6505 -0.9729
   46CHL1    C2 3377   5.059   5.313   7.068  0.0248  0.3854  0.2931
   46CHL1   H2A 3378   4.968   5.369   7.038 -0.8545 -1.4725 -0.7061
   46CHL1   H2B 3379   5.043   5.207   7.038  2.4764  0.4880 -1.7255
   46CHL1   C20 3380   5.216   5.256   7.989 -0.2168 -0.2184 -0.4343
   46CHL1   H20 3381   5.256   5.152   7.993  1.0229  0.2825  1.0471
   46CHL1   C21 3382   5.062   5.239   7.991  0.0141 -0.5612 -0.1595
   46CHL1  H21A 3383   5.032   5.171   7.909 -0.8137  1.6585 -1.7716
   46CHL1  H21B 3384   5.015   5.334   7.958  0.4901  0.1287  1.0710
   46CHL1  H21C 3385   5.029   5.211   8.094 -1.1569  0.4075 -0.2609
   46CHL1   C22 3386   5.260   5.340   8.111 -0.7137 -0.5405 -0.7530
   46CHL1  H22A 3387   5.369   5.352   8.099 -0.7616  0.0118 -0.6590
   46CHL1  H22B 3388   5.218   5.442   8.094 -1.2146 -0.4564  0.8566
   46CHL1   C23 3389   5.219   5.301   8.249  0.2261  0.3674  0.2785
   46CHL1  H23A 3390   5.108   5.299   8.247  0.2390 -0.8811 -1.2481
   46CHL1  H23B 3391   5.246   5.194   8.263 -2.0798 -0.5596 -1.6807
   46CHL1   C24 3392   5.274   5.387   8.366  0.2716 -0.0659 -0.0425
   46CHL1  H24A 3393   5.384   5.397   8.369  0.2215  0.3713  1.5283
   46CHL1  H24B 3394   5.239   5.493   8.357 -0.1232  0.0363  2.0101
   46CHL1   C25 3395   5.235   5.337   8.507  0.3247 -0.4421  0.5314
   46CHL1   H25 3396   5.124   5.348   8.515  0.3420  1.3198 -1.0867
   46CHL1   C26 3397   5.271   5.198   8.533  0.4083  0.1584 -0.2219
   46CHL1  H26A 3398   5.201   5.127   8.485  2.4037 -0.3111 -2.6611
   46CHL1  H26B 3399   5.376   5.176   8.505  1.5027  3.0004  1.2769
   46CHL1  H26C 3400   5.264   5.185   8.643  3.2334 -0.9575 -0.0663
   46CHL1   C27 3401   5.298   5.418   8.623  0.3792  0.1112  0.2804
   46CHL1  H27A 3402   5.408   5.407   8.615  0.2405 -0.6767 -0.7252
   46CHL1  H27B 3403   5.268   5.525   8.622 -0.0144  0.0014  0.1187
   46CHL1  H27C 3404   5.259   5.374   8.717  1.1915 -0.8979  0.1600
   47CHL1    C3 3405   3.242   5.343   6.759 -0.5663  0.4789  0.3489
   47CHL1    H3 3406   3.157   5.413   6.752 -0.9633 -0.1338 -1.8750
   47CHL1    O3 3407   3.278   5.300   6.630  0.2088 -0.1482 -0.6677
   47CHL1   H3' 3408   3.319   5.380   6.597 -0.9553 -0.1870 -2.3217
   47CHL1    C4 3409   3.368   5.413   6.815  0.2480 -0.0245 -0.4226
   47CHL1   H4A 3410   3.462   5.363   6.784  0.1723  0.6716 -1.8493
   47CHL1   H4B 3411   3.383   5.510   6.764  3.3065 -1.3362 -2.3155
   47CHL1    C5 3412   3.351   5.438   6.972  1.0444  0.4247  0.3829
   47CHL1    C6 3413   3.374   5.556   7.038 -0.2234  0.2107 -0.3020
   47CHL1    H6 3414   3.422   5.640   6.985  0.6662 -1.1793 -1.7977
   47CHL1    C7 3415   3.347   5.575   7.184 -0.5058  0.2622 -0.1425
   47CHL1   H7A 3416   3.414   5.643   7.242  0.8362  1.6318 -3.0873
   47CHL1   H7B 3417   3.248   5.626   7.184  1.2173  3.9336 -1.0648
   47CHL1    C8 3418   3.351   5.437   7.264 -0.7655 -0.7217 -0.1921
   47CHL1    H8 3419   3.451   5.393   7.243 -0.6164 -1.7242  2.3224
   47CHL1   C14 3420   3.324   5.455   7.414  0.3527  0.4873  0.4020
   47CHL1   H14 3421   3.226   5.506   7.409 -1.7575 -3.1396  1.3564
   47CHL1   C15 3422   3.424   5.541   7.489 -0.4024 -0.6648  0.6286
   47CHL1  H15A 3423   3.532   5.521   7.472 -0.5719  0.0190 -1.5616
   47CHL1  H15B 3424   3.418   5.646   7.453 -0.7242 -0.9929 -0.2774
   47CHL1   C16 3425   3.386   5.523   7.634  0.3499 -0.3374  0.3780
   47CHL1  H16A 3426   3.482   5.501   7.685  1.3168 -0.7768 -1.5700
   47CHL1  H16B 3427   3.334   5.611   7.678  1.4155 -0.1473  1.3008
   47CHL1   C17 3428   3.285   5.407   7.637 -0.0349  0.1307 -0.1538
   47CHL1   H17 3429   3.187   5.458   7.653 -0.1689 -0.6699  1.8975
   47CHL1   C13 3430   3.296   5.334   7.501  0.1006 -0.7832  0.9116
   47CHL1   C18 3431   3.419   5.236   7.514  0.5146 -0.3601 -0.4652
   47CHL1  H18A 3432   3.403   5.151   7.583 -2.9679  0.0787 -0.5773
   47CHL1  H18B 3433   3.447   5.195   7.415  1.4137  0.2575 -0.4825
   47CHL1  H18C 3434   3.506   5.295   7.551 -1.2820  2.5809 -0.6368
   47CHL1   C12 3435   3.176   5.269   7.435  0.5821 -0.0435 -0.0971
   47CHL1  H12A 3436   3.143   5.183   7.497  1.0554  0.4189  0.8155
   47CHL1  H12B 3437   3.090   5.340   7.430 -0.5751 -1.4258 -0.3151
   47CHL1   C11 3438   3.204   5.231   7.288  0.3054  0.4606 -0.1384
   47CHL1  H11A 3439   3.276   5.146   7.294 -1.1204 -0.7039  4.2454
   47CHL1  H11B 3440   3.106   5.206   7.244  1.4011  1.4628 -3.4748
   47CHL1    C9 3441   3.246   5.351   7.202  0.0009 -0.4760 -0.2088
   47CHL1    H9 3442   3.161   5.422   7.191  0.0214 -0.2908  0.6833
   47CHL1   C10 3443   3.290   5.317   7.051  0.2665  0.1973  0.7238
   47CHL1   C19 3444   3.400   5.204   7.050 -0.4798  0.2299  0.1429
   47CHL1  H19A 3445   3.445   5.176   6.953  0.4526 -0.0434  0.6365
   47CHL1  H19B 3446   3.492   5.237   7.103  2.1606 -2.7243 -2.2291
   47CHL1  H19C 3447   3.369   5.115   7.110 -1.0578  1.2825  1.4760
   47CHL1    C1 3448   3.168   5.255   6.985 -0.3894 -0.1141  0.6319
   47CHL1   H1A 3449   3.125   5.168   7.040  0.2586  0.2440  1.7084
   47CHL1   H1B 3450   3.082   5.326   6.984 -1.1900 -1.0212 -1.1664
   47CHL1    C2 3451   3.193   5.213   6.841 -0.2576 -1.0492  0.2817
   47CHL1   H2A 3452   3.095   5.186   6.796  0.2678  0.1719 -1.7024
   47CHL1   H2B 3453   3.272   5.136   6.830  0.7680 -0.0437  0.3673
   47CHL1   C20 3454   3.300   5.325   7.768 -0.2596 -0.3111  0.2833
   47CHL1   H20 3455   3.406   5.298   7.787 -0.6056 -1.4599  0.6622
   47CHL1   C21 3456   3.213   5.197   7.778  0.1484  0.6522 -0.2532
   47CHL1  H21A 3457   3.233   5.121   7.700  0.7705 -0.0937  0.5997
   47CHL1  H21B 3458   3.104   5.214   7.768 -0.1316  0.5086  1.9265
   47CHL1  H21C 3459   3.219   5.147   7.877 -0.3245  0.6000 -0.2487
   47CHL1   C22 3460   3.267   5.411   7.888  0.0625  0.7276  1.2077
   47CHL1  H22A 3461   3.328   5.503   7.898 -2.5073  2.4107  2.3123
   47CHL1  H22B 3462   3.164   5.447   7.867  0.0165 -0.3699 -0.7587
   47CHL1   C23 3463   3.286   5.352   8.033  0.2562  0.4497 -0.1665
   47CHL1  H23A 3464   3.227   5.258   8.030  2.0599 -0.7935  1.2145
   47CHL1  H23B 3465   3.394   5.336   8.055  0.4523  1.8471  0.0105
   47CHL1   C24 3466   3.229   5.450   8.134 -0.2090  0.0224 -0.3687
   47CHL1  H24A 3467   3.280   5.549   8.126  0.2289 -0.0347  1.2540
   47CHL1  H24B 3468   3.125   5.468   8.102  0.1356  0.5338 -1.2470
   47CHL1   C25 3469   3.234   5.413   8.280  0.4210 -0.0207  0.3502
   47CHL1   H25 3470   3.335   5.380   8.311  0.0018  0.9827  3.1571
   47CHL1   C26 3471   3.187   5.523   8.376 -0.2761 -0.0894 -0.2737
   47CHL1  H26A 3472   3.248   5.613   8.355 -0.2000 -0.4611 -1.7157
   47CHL1  H26B 3473   3.081   5.551   8.358 -0.0768  0.4926 -0.5421
   47CHL1  H26C 3474   3.204   5.492   8.482  2.9874  0.5496 -0.5276
   47CHL1   C27 3475   3.146   5.289   8.307 -0.0704 -0.0656  0.0828
   47CHL1  H27A 3476   3.051   5.288   8.250  0.7283  0.5371 -1.3131
   47CHL1  H27B 3477   3.191   5.194   8.271 -0.5913 -0.3564  0.1871
   47CHL1  H27C 3478   3.125   5.284   8.416  4.3413 -1.4932  1.0751
   48CHL1    C3 3479   0.434   1.011   6.354  0.3014 -0.5555  0.6285
   48CHL1    H3 3480   0.508   1.091   6.332 -2.4809  1.5088 -2.0104
   48CHL1    O3 3481   0.371   0.979   6.226  0.2114  0.0701 -0.0794
   48CHL1   H3' 3482   0.307   0.914   6.254  0.0199 -0.0107 -0.6924
   48CHL1    C4 3483   0.515   0.888   6.408 -0.1251 -0.5836 -0.0310
   48CHL1   H4A 3484   0.444   0.804   6.418 -0.4352 -0.3266 -0.0365
   48CHL1   H4B 3485   0.587   0.851   6.332  0.9994 -0.1569  0.7872
   48CHL1    C5 3486   0.576   0.922   6.539 -0.4458  1.1110 -0.4806
   48CHL1    C6 3487   0.712   0.910   6.549  0.9677  0.5471  0.1881
   48CHL1    H6 3488   0.770   0.876   6.462 -0.0090 -1.1564  0.1670
   48CHL1    C7 3489   0.786   0.947   6.671 -0.2313  0.1649  0.7844
   48CHL1   H7A 3490   0.858   0.866   6.697 -1.1112 -1.3114 -1.0905
   48CHL1   H7B 3491   0.848   1.037   6.653 -0.8001  0.4108 -0.0319
   48CHL1    C8 3492   0.692   0.955   6.804  0.0620  0.3687  0.3339
   48CHL1    H8 3493   0.659   0.853   6.830 -0.2241  0.3892  0.0625
   48CHL1   C14 3494   0.769   1.021   6.918  0.0626 -0.4916 -0.4322
   48CHL1   H14 3495   0.797   1.122   6.881  1.0659 -0.1590  1.1386
   48CHL1   C15 3496   0.904   0.958   6.945 -0.4890 -0.0236  0.0996
   48CHL1  H15A 3497   0.910   0.847   6.946 -2.6263 -0.1825  1.6360
   48CHL1  H15B 3498   0.974   0.973   6.861  0.3531 -0.8586  0.6288
   48CHL1   C16 3499   0.946   1.022   7.078 -0.0844 -0.0418  0.0064
   48CHL1  H16A 3500   0.942   0.947   7.160  0.2654  0.7465  0.7652
   48CHL1  H16B 3501   1.048   1.067   7.080 -0.2459  0.4211 -1.2999
   48CHL1   C17 3502   0.825   1.111   7.126 -0.1185 -0.3048 -0.7476
   48CHL1   H17 3503   0.830   1.215   7.089 -0.0658  0.8250  2.1709
   48CHL1   C13 3504   0.700   1.050   7.046 -0.3732 -1.0661 -0.5050
   48CHL1   C18 3505   0.648   0.918   7.108  0.6158 -0.3586 -0.0299
   48CHL1  H18A 3506   0.590   0.938   7.200  0.5764 -2.9541  0.5719
   48CHL1  H18B 3507   0.583   0.866   7.035 -1.2362  2.8671 -0.8744
   48CHL1  H18C 3508   0.739   0.857   7.129  0.7500 -0.2593 -0.3141
   48CHL1   C12 3509   0.580   1.139   7.015  0.1212  0.2910 -0.4014
   48CHL1  H12A 3510   0.521   1.153   7.108  2.6519 -0.8809  1.5072
   48CHL1  H12B 3511   0.625   1.226   6.962  1.1138  0.3950  0.5745
   48CHL1   C11 3512   0.491   1.074   6.904  0.0360 -0.2114 -0.6363
   48CHL1  H11A 3513   0.439   0.981   6.937 -0.2261  0.0994 -0.1516
   48CHL1  H11B 3514   0.406   1.139   6.875 -1.2168 -1.8508 -0.8230
   48CHL1    C9 3515   0.572   1.042   6.771  0.1912 -0.1615  0.0749
   48CHL1    H9 3516   0.618   1.137   6.736 -0.1748 -0.1264 -0.3247
   48CHL1   C10 3517   0.485   0.983   6.649  0.6783 -0.3554 -0.6773
   48CHL1   C19 3518   0.393   0.872   6.703 -0.0612 -0.3239  0.7973
   48CHL1  H19A 3519   0.326   0.909   6.784  1.7120  3.5209  0.7517
   48CHL1  H19B 3520   0.324   0.839   6.622  0.8177  0.6365 -0.3829
   48CHL1  H19C 3521   0.447   0.779   6.730 -1.3698 -2.3314 -2.7553
   48CHL1    C1 3522   0.410   1.101   6.585 -0.1558  0.3670 -0.3932
   48CHL1   H1A 3523   0.333   1.123   6.662 -2.1658 -0.8220 -1.9793
   48CHL1   H1B 3524   0.475   1.190   6.572  0.1587  0.5544  1.9877
   48CHL1    C2 3525   0.332   1.067   6.462  0.3501  0.3653 -0.1916
   48CHL1   H2A 3526   0.282   1.162   6.434  0.0835  1.2656  2.9310
   48CHL1   H2B 3527   0.255   0.991   6.485  1.3300 -0.7860 -0.5807
   48CHL1   C20 3528   0.801   1.132   7.277  1.1066  0.5081 -0.7256
   48CHL1   H20 3529   0.773   1.038   7.328  0.4774  1.5477  0.9568
   48CHL1   C21 3530   0.696   1.234   7.310  0.2095 -0.1906 -0.9891
   48CHL1  H21A 3531   0.677   1.306   7.228  1.5599  2.6665  1.0166
   48CHL1  H21B 3532   0.736   1.301   7.390 -2.7293 -1.0605  1.4214
   48CHL1  H21C 3533   0.599   1.191   7.342 -1.0741  0.8965 -3.1741
   48CHL1   C22 3534   0.936   1.175   7.354 -0.0374 -0.0633  0.7930
   48CHL1  H22A 3535   1.014   1.104   7.317 -1.8997 -0.3207 -3.1318
   48CHL1  H22B 3536   0.974   1.270   7.312 -0.2989 -0.7494 -1.0896
   48CHL1   C23 3537   0.924   1.165   7.503  0.1696 -0.0591  0.0783
   48CHL1  H23A 3538   0.866   1.249   7.547 -1.8818 -1.1083 -0.5034
   48CHL1  H23B 3539   0.867   1.075   7.533  1.0772 -0.5617  0.3482
   48CHL1   C24 3540   1.071   1.160   7.568  0.3065  0.0078  1.0187
   48CHL1  H24A 3541   1.131   1.079   7.521  0.4966  0.0180  1.2428
   48CHL1  H24B 3542   1.121   1.258   7.554  1.7039 -0.3702  2.9215
   48CHL1   C25 3543   1.070   1.125   7.716  0.0930  0.0167 -0.5761
   48CHL1   H25 3544   1.011   1.032   7.727  0.8289 -0.5402 -1.2214
   48CHL1   C26 3545   1.211   1.099   7.765  0.2004  0.1489 -0.1751
   48CHL1  H26A 3546   1.260   1.199   7.765 -0.4702  0.4857 -0.1082
   48CHL1  H26B 3547   1.190   1.078   7.872  1.3681  0.6175  0.1638
   48CHL1  H26C 3548   1.276   1.025   7.714 -0.1994  0.5564 -1.3055
   48CHL1   C27 3549   1.006   1.239   7.809 -0.6321 -0.0916  0.1747
   48CHL1  H27A 3550   0.896   1.239   7.802 -0.6048  1.1939 -0.3690
   48CHL1  H27B 3551   1.033   1.219   7.915  1.3629  0.0932 -0.2545
   48CHL1  H27C 3552   1.046   1.339   7.784  1.4043 -1.4408 -2.6313
   49CHL1    C3 3553   6.659   2.976   6.655  0.0358 -0.2150  0.0122
   49CHL1    H3 3554   6.626   3.082   6.659 -1.0659 -0.5359 -0.3742
   49CHL1    O3 3555   6.691   2.952   6.518  0.1449  0.7230  0.8750
   49CHL1   H3' 3556   6.735   2.867   6.519 -0.8476  0.1955  0.9591
   49CHL1    C4 3557   6.788   2.982   6.739  0.2653  0.5527  0.2718
   49CHL1   H4A 3558   6.846   2.889   6.721 -0.5182 -0.0012  0.5441
   49CHL1   H4B 3559   6.856   3.060   6.700  0.0746  1.1540  1.1077
   49CHL1    C5 3560   6.768   3.009   6.888  0.1962  0.1522  0.6747
   49CHL1    C6 3561   6.821   3.115   6.956 -0.7013  0.3187  1.1174
   49CHL1    H6 3562   6.896   3.184   6.915 -0.0609 -0.5603  0.7898
   49CHL1    C7 3563   6.813   3.136   7.103  0.5074 -0.0468 -0.5455
   49CHL1   H7A 3564   6.915   3.141   7.147  0.1855 -2.0672  0.5266
   49CHL1   H7B 3565   6.762   3.232   7.128 -2.6005 -1.2222 -1.9371
   49CHL1    C8 3566   6.752   3.017   7.184 -0.2692 -0.7659  0.6126
   49CHL1    H8 3567   6.827   2.935   7.188  1.5117  0.8489  1.8841
   49CHL1   C14 3568   6.712   3.061   7.318 -0.8546 -0.3344 -0.2845
   49CHL1   H14 3569   6.649   3.152   7.309 -1.6560 -0.7710  0.6698
   49CHL1   C15 3570   6.831   3.120   7.404  0.8180  0.1952  0.8179
   49CHL1  H15A 3571   6.908   3.040   7.402  0.3729 -0.2249 -0.2909
   49CHL1  H15B 3572   6.865   3.215   7.358 -2.1361  0.4967 -0.9618
   49CHL1   C16 3573   6.762   3.112   7.543 -0.5511  0.2875  0.0757
   49CHL1  H16A 3574   6.823   3.071   7.626 -1.1108  0.8955  0.7983
   49CHL1  H16B 3575   6.740   3.218   7.567  2.0174  0.7616  0.6223
   49CHL1   C17 3576   6.623   3.031   7.540  0.3779 -0.0322 -0.5978
   49CHL1   H17 3577   6.541   3.105   7.526  0.0480 -0.7830 -3.0429
   49CHL1   C13 3578   6.637   2.958   7.399 -0.0346  0.5510  0.0602
   49CHL1   C18 3579   6.735   2.833   7.421  0.0628  1.0059 -0.5089
   49CHL1  H18A 3580   6.778   2.808   7.322 -0.3260  2.1002 -0.9761
   49CHL1  H18B 3581   6.820   2.859   7.488 -0.4982 -1.3078  1.2019
   49CHL1  H18C 3582   6.688   2.741   7.462  2.0304  0.1770 -0.0048
   49CHL1   C12 3583   6.501   2.931   7.327  0.2381  0.2490 -0.6026
   49CHL1  H12A 3584   6.433   2.866   7.387  0.5441  0.1877 -0.3232
   49CHL1  H12B 3585   6.451   3.030   7.330  1.8397  1.0893 -0.5817
   49CHL1   C11 3586   6.521   2.892   7.177 -0.1015 -0.2998  1.2582
   49CHL1  H11A 3587   6.559   2.788   7.179 -0.3290 -0.3889  1.0444
   49CHL1  H11B 3588   6.424   2.895   7.122  0.7527  0.9439 -0.2620
   49CHL1    C9 3589   6.629   2.980   7.099  0.3971 -0.2144 -0.8098
   49CHL1    H9 3590   6.582   3.078   7.078  0.2821 -0.2873 -0.8958
   49CHL1   C10 3591   6.667   2.925   6.959 -0.3094 -0.1051  0.6662
   49CHL1   C19 3592   6.739   2.784   6.966  0.7137  0.6866 -0.4733
   49CHL1  H19A 3593   6.843   2.796   7.005  1.2664 -0.5775 -1.4897
   49CHL1  H19B 3594   6.694   2.720   7.045  1.0422 -0.8533 -1.4856
   49CHL1  H19C 3595   6.752   2.738   6.865  0.6207 -1.0598  0.2769
   49CHL1    C1 3596   6.542   2.908   6.867  0.0524 -0.6884 -0.3747
   49CHL1   H1A 3597   6.473   2.833   6.911 -0.8690 -0.5386 -1.5205
   49CHL1   H1B 3598   6.480   3.000   6.870  1.0715  0.0320 -0.7146
   49CHL1    C2 3599   6.558   2.870   6.719  0.4056 -0.1850  0.6686
   49CHL1   H2A 3600   6.468   2.871   6.655  1.4005  0.1125 -0.7681
   49CHL1   H2B 3601   6.595   2.765   6.722 -1.0624 -0.7929 -0.8392
   49CHL1   C20 3602   6.589   2.961   7.667  0.3078 -0.7116 -0.5263
   49CHL1   H20 3603   6.671   2.893   7.699  0.4698 -0.7071 -0.9292
   49CHL1   C21 3604   6.477   2.858   7.641  0.3300  0.0867  0.8803
   49CHL1  H21A 3605   6.433   2.819   7.735  2.0482  2.0450  2.6118
   49CHL1  H21B 3606   6.520   2.769   7.590 -0.0905  0.3357  0.0831
   49CHL1  H21C 3607   6.395   2.912   7.590  1.5822  0.9834 -0.2348
   49CHL1   C22 3608   6.561   3.072   7.768  0.5097  0.4683  0.1246
   49CHL1  H22A 3609   6.645   3.143   7.782  0.9271 -0.2229  1.2686
   49CHL1  H22B 3610   6.480   3.123   7.712  2.3495  0.9078 -2.2975
   49CHL1   C23 3611   6.510   3.028   7.904  0.4240 -0.4267  0.0140
   49CHL1  H23A 3612   6.424   2.959   7.892  1.4458 -1.7146 -0.1571
   49CHL1  H23B 3613   6.585   2.965   7.958  0.4484 -0.1074  0.3544
   49CHL1   C24 3614   6.460   3.147   7.981 -0.4760  0.3358 -0.1067
   49CHL1  H24A 3615   6.543   3.215   8.010 -0.7051  0.2011  0.8978
   49CHL1  H24B 3616   6.385   3.210   7.928 -1.3877  0.3208  1.1218
   49CHL1   C25 3617   6.383   3.107   8.113  0.5829 -0.6627  0.8937
   49CHL1   H25 3618   6.277   3.090   8.084 -0.1617  1.5007  2.0970
   49CHL1   C26 3619   6.435   2.979   8.192 -0.4760 -0.0237 -0.4520
   49CHL1  H26A 3620   6.542   2.994   8.218 -0.9754 -1.0607  2.5907
   49CHL1  H26B 3621   6.385   2.972   8.291  1.1234 -0.5038  0.3510
   49CHL1  H26C 3622   6.423   2.882   8.139 -0.7209  1.0933 -2.5182
   49CHL1   C27 3623   6.370   3.223   8.213 -0.2289  1.1964  0.2142
   49CHL1  H27A 3624   6.347   3.320   8.164  1.7530 -0.2400 -4.0529
   49CHL1  H27B 3625   6.290   3.187   8.281  0.1565 -2.3488 -0.9922
   49CHL1  H27C 3626   6.471   3.241   8.256  1.8010  1.6691 -4.2179
   50CHL1    C3 3627   6.720   3.650   6.888  1.3261 -0.6385 -0.1572
   50CHL1    H3 3628   6.615   3.624   6.913  1.7059  1.2891  4.3513
   50CHL1    O3 3629   6.736   3.645   6.743  0.1836 -0.4631 -0.6891
   50CHL1   H3' 3630   6.823   3.606   6.736  2.0902  2.8615  1.5195
   50CHL1    C4 3631   6.763   3.779   6.957  0.2148 -0.2020  0.3848
   50CHL1   H4A 3632   6.869   3.788   6.926  0.2058  0.3209  0.4844
   50CHL1   H4B 3633   6.704   3.865   6.917 -0.0766 -1.1795 -1.4063
   50CHL1    C5 3634   6.766   3.783   7.107 -0.2896  0.8301 -0.4207
   50CHL1    C6 3635   6.700   3.873   7.179 -0.1298 -0.2671  0.3972
   50CHL1    H6 3636   6.636   3.952   7.136  0.6087 -0.9725 -2.1835
   50CHL1    C7 3637   6.702   3.880   7.328 -0.0747 -0.4901  1.3455
   50CHL1   H7A 3638   6.725   3.985   7.357  0.7420 -0.8095  1.8750
   50CHL1   H7B 3639   6.596   3.874   7.363  0.0942 -0.3776  1.8846
   50CHL1    C8 3640   6.797   3.780   7.410 -0.3226 -0.6646  0.0391
   50CHL1    H8 3641   6.901   3.819   7.419 -1.0997  1.5527 -0.0662
   50CHL1   C14 3642   6.729   3.741   7.543 -0.2789  0.2800  0.2631
   50CHL1   H14 3643   6.628   3.696   7.531 -0.0968 -0.8831  2.4607
   50CHL1   C15 3644   6.700   3.859   7.636 -0.0601 -0.1552  0.3065
   50CHL1  H15A 3645   6.789   3.925   7.649 -1.0728  0.8718  2.6224
   50CHL1  H15B 3646   6.620   3.925   7.598 -0.5615 -0.6031  0.5679
   50CHL1   C16 3647   6.671   3.791   7.775  0.0564  0.4146  1.0859
   50CHL1  H16A 3648   6.742   3.831   7.851 -1.4385  1.1314  2.1461
   50CHL1  H16B 3649   6.569   3.811   7.815  0.0639  0.0533  1.2924
   50CHL1   C17 3650   6.709   3.641   7.751  0.4633  0.4286 -0.0374
   50CHL1   H17 3651   6.606   3.604   7.728  0.4197 -0.9289  2.0953
   50CHL1   C13 3652   6.803   3.636   7.632 -0.4056 -0.5320 -0.4546
   50CHL1   C18 3653   6.941   3.696   7.677  0.5709 -0.3028  0.1845
   50CHL1  H18A 3654   7.004   3.722   7.589 -1.2840  3.6042 -0.2133
   50CHL1  H18B 3655   6.920   3.787   7.736 -2.1278  0.1001 -1.2244
   50CHL1  H18C 3656   6.994   3.618   7.735  0.0076  0.7522  2.1898
   50CHL1   C12 3657   6.823   3.505   7.545 -0.0157  0.1881 -0.0545
   50CHL1  H12A 3658   6.908   3.455   7.596  0.1918 -0.4636 -1.0322
   50CHL1  H12B 3659   6.731   3.444   7.537 -1.7789  2.6802  0.1190
   50CHL1   C11 3660   6.875   3.530   7.404 -0.1417 -0.8569  0.0455
   50CHL1  H11A 3661   6.983   3.555   7.408 -0.2562  0.1627 -1.8926
   50CHL1  H11B 3662   6.880   3.434   7.349 -0.4881 -1.0091  0.2754
   50CHL1    C9 3663   6.798   3.644   7.331 -0.1520  0.6114 -0.2692
   50CHL1    H9 3664   6.692   3.609   7.335 -0.5541  1.3840 -2.4064
   50CHL1   C10 3665   6.834   3.663   7.182 -0.4737 -0.5474  0.9079
   50CHL1   C19 3666   6.986   3.695   7.178 -0.0519  0.3657 -0.0344
   50CHL1  H19A 3667   7.011   3.801   7.201  0.5853  0.4539 -1.0779
   50CHL1  H19B 3668   7.053   3.629   7.237  0.3906  1.2630  0.4862
   50CHL1  H19C 3669   7.024   3.680   7.075  1.9589  0.1354  0.6991
   50CHL1    C1 3670   6.789   3.538   7.100 -0.3350 -0.2094 -0.3215
   50CHL1   H1A 3671   6.846   3.452   7.142  2.8812  3.3076  3.3038
   50CHL1   H1B 3672   6.682   3.512   7.115 -0.0643 -1.6289 -0.6584
   50CHL1    C2 3673   6.804   3.546   6.948 -0.6224  0.1453  0.3574
   50CHL1   H2A 3674   6.788   3.450   6.896  1.1452  0.4245 -0.8154
   50CHL1   H2B 3675   6.911   3.572   6.929 -0.7652 -0.8298 -2.1566
   50CHL1   C20 3676   6.752   3.583   7.886 -0.0204  0.8419  1.1935
   50CHL1   H20 3677   6.836   3.644   7.926  1.3309 -0.8109  0.9657
   50CHL1   C21 3678   6.799   3.443   7.866 -0.4197 -0.4221  0.2589
   50CHL1  H21A 3679   6.741   3.396   7.784  1.2584 -2.2059  0.0102
   50CHL1  H21B 3680   6.790   3.376   7.954  0.1797 -0.1237  0.5549
   50CHL1  H21C 3681   6.900   3.437   7.821 -1.6061  0.1699 -2.6749
   50CHL1   C22 3682   6.636   3.589   7.987 -0.0582  0.1389 -0.1284
   50CHL1  H22A 3683   6.588   3.689   7.985 -0.0212  0.1492 -1.5925
   50CHL1  H22B 3684   6.566   3.510   7.953 -0.0471  0.4672 -0.9362
   50CHL1   C23 3685   6.683   3.567   8.140  0.0178 -0.1241 -0.2842
   50CHL1  H23A 3686   6.694   3.457   8.150 -0.5293 -0.2576 -1.0187
   50CHL1  H23B 3687   6.771   3.628   8.167 -0.6570  0.0121  1.8088
   50CHL1   C24 3688   6.581   3.606   8.238 -0.5666 -0.6380 -0.0014
   50CHL1  H24A 3689   6.536   3.704   8.213  1.0379  0.0370 -0.3936
   50CHL1  H24B 3690   6.495   3.536   8.233  0.1903 -1.5107 -3.0213
   50CHL1   C25 3691   6.622   3.599   8.391  0.0299 -0.0010  0.2838
   50CHL1   H25 3692   6.718   3.649   8.414  0.0812 -0.6122  1.4932
   50CHL1   C26 3693   6.509   3.646   8.482 -1.1409  0.3735  0.0387
   50CHL1  H26A 3694   6.550   3.620   8.582  1.7314 -0.6330 -1.2627
   50CHL1  H26B 3695   6.496   3.755   8.467 -2.8191  0.4156  1.5718
   50CHL1  H26C 3696   6.420   3.583   8.465 -1.4638  0.0409  2.5654
   50CHL1   C27 3697   6.637   3.447   8.423  0.1615 -0.0144 -0.4785
   50CHL1  H27A 3698   6.539   3.394   8.427 -1.4816  2.9037  1.8692
   50CHL1  H27B 3699   6.699   3.380   8.359 -1.1788 -2.0612  0.2283
   50CHL1  H27C 3700   6.671   3.433   8.528 -0.1259 -1.1590 -0.5201
   51CHL1    C3 3701   0.328   2.684   6.906  0.1940 -0.4682  0.1462
   51CHL1    H3 3702   0.223   2.672   6.940 -0.4052 -1.4865 -1.8875
   51CHL1    O3 3703   0.342   2.714   6.767 -0.4138 -0.0426 -0.1926
   51CHL1   H3' 3704   0.277   2.668   6.713 -0.5653 -0.9283  0.7241
   51CHL1    C4 3705   0.387   2.796   6.986  0.5068 -1.0180 -0.6077
   51CHL1   H4A 3706   0.493   2.809   6.958  0.3018 -0.2335 -1.0578
   51CHL1   H4B 3707   0.343   2.895   6.962  0.2206 -1.6963 -3.2641
   51CHL1    C5 3708   0.394   2.769   7.133 -0.1826 -0.1109  0.0715
   51CHL1    C6 3709   0.349   2.854   7.226  1.1713 -0.0630 -0.0208
   51CHL1    H6 3710   0.292   2.944   7.200  0.4006  0.9574  4.4025
   51CHL1    C7 3711   0.354   2.835   7.378 -0.2704  0.6883  0.2527
   51CHL1   H7A 3712   0.388   2.930   7.424  0.0495  1.6877 -1.9259
   51CHL1   H7B 3713   0.259   2.796   7.420  0.2072 -0.2420  0.5054
   51CHL1    C8 3714   0.463   2.726   7.410  0.0381 -0.3000 -0.0853
   51CHL1    H8 3715   0.560   2.776   7.388 -0.0810 -0.5045 -1.0846
   51CHL1   C14 3716   0.468   2.692   7.555  0.1461  0.1787 -0.5946
   51CHL1   H14 3717   0.371   2.659   7.597  1.2741 -1.9894  0.4756
   51CHL1   C15 3718   0.495   2.814   7.651  0.6179  0.1172 -0.2722
   51CHL1  H15A 3719   0.587   2.856   7.605  0.7694 -0.4519 -0.4983
   51CHL1  H15B 3720   0.405   2.879   7.654  1.9268  1.9920  0.4563
   51CHL1   C16 3721   0.536   2.744   7.781 -0.1333 -0.4561 -0.3837
   51CHL1  H16A 3722   0.634   2.792   7.802 -1.1725  1.6276 -0.0819
   51CHL1  H16B 3723   0.480   2.764   7.875 -0.9285  0.4361 -1.0298
   51CHL1   C17 3724   0.558   2.597   7.752 -0.2682  0.8372  0.8332
   51CHL1   H17 3725   0.469   2.537   7.779 -0.3686  1.0048  0.8696
   51CHL1   C13 3726   0.569   2.589   7.600  0.0955 -0.7060  0.3098
   51CHL1   C18 3727   0.715   2.621   7.553 -0.0209 -0.0468  0.3683
   51CHL1  H18A 3728   0.753   2.713   7.601  2.9039  1.0890 -3.5766
   51CHL1  H18B 3729   0.794   2.547   7.579  0.0577  0.5741  1.9880
   51CHL1  H18C 3730   0.730   2.642   7.445  3.0190  0.1370  0.7330
   51CHL1   C12 3731   0.530   2.462   7.520 -0.0995  0.1349 -0.4301
   51CHL1  H12A 3732   0.589   2.371   7.546 -2.8057 -1.4634  0.5194
   51CHL1  H12B 3733   0.433   2.429   7.562 -0.4249 -1.1450 -2.0697
   51CHL1   C11 3734   0.519   2.473   7.372  0.3270 -0.5003  0.4062
   51CHL1  H11A 3735   0.618   2.467   7.323 -1.3725  2.0651 -3.8837
   51CHL1  H11B 3736   0.462   2.386   7.332  0.2363  0.1217 -0.8645
   51CHL1    C9 3737   0.440   2.601   7.325 -0.2708  0.5798  0.2396
   51CHL1    H9 3738   0.335   2.567   7.341 -0.6239  1.8824  0.8381
   51CHL1   C10 3739   0.459   2.631   7.167  0.0862 -0.8715 -0.1450
   51CHL1   C19 3740   0.609   2.639   7.135 -0.1096 -0.4723  0.1395
   51CHL1  H19A 3741   0.665   2.545   7.155 -4.4950 -3.4097  0.1426
   51CHL1  H19B 3742   0.615   2.657   7.026 -0.5922  0.5447  0.2654
   51CHL1  H19C 3743   0.663   2.728   7.173 -1.5891  1.3375 -1.7417
   51CHL1    C1 3744   0.387   2.514   7.085 -0.6648 -0.0913  0.1297
   51CHL1   H1A 3745   0.440   2.420   7.110 -0.1593  1.0110  3.8943
   51CHL1   H1B 3746   0.285   2.507   7.128 -0.6929  0.0185  0.0819
   51CHL1    C2 3747   0.396   2.549   6.941 -0.0964  0.1901  0.8018
   51CHL1   H2A 3748   0.341   2.474   6.880 -0.7617  1.1193  0.2143
   51CHL1   H2B 3749   0.498   2.556   6.898 -0.6218  1.7838 -0.3076
   51CHL1   C20 3750   0.668   2.532   7.840  0.2509  0.6767  0.0652
   51CHL1   H20 3751   0.766   2.570   7.805  1.6093 -1.8332  0.9159
   51CHL1   C21 3752   0.656   2.377   7.833  0.3291  0.2298  0.3407
   51CHL1  H21A 3753   0.548   2.354   7.841  0.6001 -1.4452 -0.4354
   51CHL1  H21B 3754   0.712   2.336   7.919  3.2368  2.4496 -0.3447
   51CHL1  H21C 3755   0.686   2.336   7.734 -0.5405 -0.9402  0.5466
   51CHL1   C22 3756   0.651   2.572   7.990 -0.0102 -0.0771 -0.4317
   51CHL1  H22A 3757   0.745   2.535   8.035 -0.3927 -1.2793 -0.5897
   51CHL1  H22B 3758   0.655   2.682   8.006  0.2050  0.2005 -2.2114
   51CHL1   C23 3759   0.541   2.501   8.072 -0.1318  0.0706 -0.3581
   51CHL1  H23A 3760   0.445   2.527   8.024 -1.4589  0.8984  2.5251
   51CHL1  H23B 3761   0.551   2.391   8.063 -3.4144 -0.1977 -1.9481
   51CHL1   C24 3762   0.531   2.542   8.225 -0.5732  0.0713  0.1263
   51CHL1  H24A 3763   0.502   2.649   8.231 -2.3276 -0.1671 -2.3081
   51CHL1  H24B 3764   0.451   2.483   8.276 -0.6596  0.8341  0.8971
   51CHL1   C25 3765   0.665   2.518   8.307  0.2450  0.3543  0.6961
   51CHL1   H25 3766   0.741   2.583   8.259 -0.4432  0.7783  0.1507
   51CHL1   C26 3767   0.644   2.556   8.452 -0.2607  0.2305 -0.2200
   51CHL1  H26A 3768   0.727   2.530   8.521 -1.3889  0.6395  1.3593
   51CHL1  H26B 3769   0.628   2.663   8.477 -0.0894 -0.4262  3.2193
   51CHL1  H26C 3770   0.550   2.515   8.494 -0.4495  0.9730  0.0938
   51CHL1   C27 3771   0.714   2.369   8.293  0.2635  0.5469 -0.2097
   51CHL1  H27A 3772   0.638   2.296   8.329 -0.0740  0.4450 -1.0948
   51CHL1  H27B 3773   0.743   2.354   8.187  1.5236 -1.0013  0.3096
   51CHL1  H27C 3774   0.811   2.361   8.347  0.5800 -1.1872 -0.9648
   52CHL1    C3 3775   2.116   4.106   6.965 -0.3833 -0.2566 -0.0821
   52CHL1    H3 3776   2.187   4.027   6.995 -1.3629 -1.3944 -0.6844
   52CHL1    O3 3777   2.103   4.105   6.823  0.2424 -0.2121 -0.3125
   52CHL1   H3' 3778   2.046   4.179   6.802 -1.3809 -1.6755 -1.3075
   52CHL1    C4 3779   1.976   4.070   7.025 -0.3350  0.3841  0.2660
   52CHL1   H4A 3780   1.899   4.134   6.977  1.3949  0.8998 -2.0292
   52CHL1   H4B 3781   1.958   3.965   6.994 -1.3542  0.8939 -0.9709
   52CHL1    C5 3782   1.966   4.076   7.177  0.0343  0.4213  1.0121
   52CHL1    C6 3783   1.926   3.967   7.250  0.6834 -0.3222 -0.3070
   52CHL1    H6 3784   1.913   3.869   7.202  2.3264 -0.9704  0.4827
   52CHL1    C7 3785   1.915   3.971   7.405 -0.4920  0.2479  0.6131
   52CHL1   H7A 3786   1.815   3.925   7.418 -0.5220 -0.4172 -1.5508
   52CHL1   H7B 3787   1.982   3.907   7.466  1.5906  1.0034 -0.7463
   52CHL1    C8 3788   1.915   4.118   7.460 -0.3337  0.0735  0.2888
   52CHL1    H8 3789   1.820   4.170   7.432 -0.3661  0.2048  0.6327
   52CHL1   C14 3790   1.938   4.126   7.610 -0.0510  0.0620 -0.4311
   52CHL1   H14 3791   2.042   4.094   7.632  1.1428  3.1346 -1.1267
   52CHL1   C15 3792   1.843   4.038   7.697 -0.0452  0.0214 -0.3812
   52CHL1  H15A 3793   1.738   4.045   7.660 -0.3640 -1.3478  0.1925
   52CHL1  H15B 3794   1.875   3.934   7.675  0.1003 -0.1112  0.4239
   52CHL1   C16 3795   1.864   4.098   7.837 -0.2885 -0.0144 -0.1496
   52CHL1  H16A 3796   1.765   4.109   7.888  0.6164  2.5596  1.2440
   52CHL1  H16B 3797   1.929   4.028   7.894 -0.5271 -0.0319  0.1048
   52CHL1   C17 3798   1.943   4.232   7.822 -0.0886  0.1640  0.0408
   52CHL1   H17 3799   2.052   4.215   7.838  0.3744  1.6911 -1.2952
   52CHL1   C13 3800   1.936   4.265   7.673 -0.4016 -0.2403 -0.2749
   52CHL1   C18 3801   1.810   4.345   7.636 -0.3429  0.6891 -0.3503
   52CHL1  H18A 3802   1.712   4.311   7.677  0.2748  2.1326  2.6103
   52CHL1  H18B 3803   1.823   4.446   7.682 -1.1593 -0.5361  2.8544
   52CHL1  H18C 3804   1.799   4.357   7.526  1.0168  0.5362 -0.5145
   52CHL1   C12 3805   2.061   4.326   7.616  0.7516 -0.2565 -0.3802
   52CHL1  H12A 3806   2.090   4.429   7.647 -1.6479 -0.0934  1.6368
   52CHL1  H12B 3807   2.144   4.264   7.656 -0.6559 -1.0439  1.4668
   52CHL1   C11 3808   2.053   4.332   7.462 -0.5899  0.0855  0.7598
   52CHL1  H11A 3809   1.986   4.415   7.433 -0.9849 -0.0668  1.2344
   52CHL1  H11B 3810   2.156   4.364   7.432 -1.1637  1.3377  0.0476
   52CHL1    C9 3811   2.024   4.200   7.393 -0.0591  0.1211  0.2131
   52CHL1    H9 3812   2.117   4.145   7.416  1.2677  1.3874 -1.8259
   52CHL1   C10 3813   2.006   4.208   7.241  0.3683  0.6221  1.2763
   52CHL1   C19 3814   1.897   4.313   7.206 -0.0602 -0.9399  0.2854
   52CHL1  H19A 3815   1.853   4.295   7.105 -2.8369  1.5980  0.8984
   52CHL1  H19B 3816   1.817   4.320   7.282 -1.0592 -0.5393 -0.7694
   52CHL1  H19C 3817   1.934   4.417   7.194 -0.9884 -0.6309 -0.0188
   52CHL1    C1 3818   2.146   4.247   7.178 -0.6798  0.2700  0.1855
   52CHL1   H1A 3819   2.164   4.348   7.220 -0.7692  0.3099  0.1277
   52CHL1   H1B 3820   2.221   4.182   7.229  0.9562  3.9249  2.8552
   52CHL1    C2 3821   2.161   4.248   7.025  0.3430  0.8838 -0.0058
   52CHL1   H2A 3822   2.264   4.266   6.986  1.0603 -0.1537  1.3548
   52CHL1   H2B 3823   2.096   4.327   6.982 -0.5014 -0.6632 -1.7308
   52CHL1   C20 3824   1.894   4.337   7.929 -0.7016  0.0250  0.0168
   52CHL1   H20 3825   1.790   4.372   7.913 -0.5071  0.1497 -0.9966
   52CHL1   C21 3826   1.969   4.469   7.911 -0.7141  0.0278 -0.4077
   52CHL1  H21A 3827   1.979   4.502   7.806 -0.2024 -1.6191 -0.9002
   52CHL1  H21B 3828   2.072   4.448   7.947 -1.4188  0.0680  1.8520
   52CHL1  H21C 3829   1.926   4.540   7.986 -1.5990 -0.0589 -0.8127
   52CHL1   C22 3830   1.912   4.279   8.074  0.6048 -1.0691  0.2425
   52CHL1  H22A 3831   1.854   4.185   8.088  0.4295 -0.9477  0.3286
   52CHL1  H22B 3832   2.019   4.249   8.080  0.4526 -2.0935 -1.5678
   52CHL1   C23 3833   1.856   4.369   8.181  0.3095  0.2211 -0.6105
   52CHL1  H23A 3834   1.929   4.451   8.200 -1.1952  1.0006  2.3485
   52CHL1  H23B 3835   1.758   4.408   8.147  0.8563  2.0736 -0.1655
   52CHL1   C24 3836   1.832   4.306   8.321 -0.3172 -0.0890  0.4559
   52CHL1  H24A 3837   1.782   4.208   8.310 -0.9040  0.3712 -1.4523
   52CHL1  H24B 3838   1.932   4.296   8.366 -0.7239 -4.2655  0.8260
   52CHL1   C25 3839   1.758   4.391   8.421  0.4520 -0.0885  0.1177
   52CHL1   H25 3840   1.663   4.421   8.372  0.8292  0.9529 -0.0085
   52CHL1   C26 3841   1.727   4.304   8.547 -0.8773  0.4833 -0.2328
   52CHL1  H26A 3842   1.822   4.253   8.575 -0.0788  2.3629  0.6691
   52CHL1  H26B 3843   1.684   4.365   8.630 -0.6941  0.3844 -0.0626
   52CHL1  H26C 3844   1.650   4.228   8.524  0.4487 -1.5751  1.6378
   52CHL1   C27 3845   1.842   4.514   8.467  0.0060  0.1532  0.8496
   52CHL1  H27A 3846   1.876   4.576   8.381  0.8782 -1.8606 -0.3360
   52CHL1  H27B 3847   1.784   4.574   8.540  1.6248  1.3567  1.1951
   52CHL1  H27C 3848   1.931   4.474   8.520  0.3191  2.4771  2.1895
   53CHL1    C3 3849   5.467   6.589   6.947 -0.0618 -0.7578  0.4017
   53CHL1    H3 3850   5.407   6.501   6.978  0.9175 -1.4219  0.4694
   53CHL1    O3 3851   5.465   6.608   6.804 -0.3591  0.2292 -0.5706
   53CHL1   H3' 3852   5.516   6.687   6.784  0.1363 -0.1770 -0.9640
   53CHL1    C4 3853   5.404   6.719   7.011 -0.3931  0.1360 -0.4900
   53CHL1   H4A 3854   5.474   6.799   6.977  2.8170 -2.2352  0.0205
   53CHL1   H4B 3855   5.298   6.726   6.982 -0.7108  0.5604  0.7045
   53CHL1    C5 3856   5.420   6.711   7.167 -0.3354 -0.0903  0.9944
   53CHL1    C6 3857   5.312   6.733   7.241 -0.4108  0.4232 -0.1795
   53CHL1    H6 3858   5.222   6.766   7.186 -0.6437 -1.4640 -1.0279
   53CHL1    C7 3859   5.298   6.709   7.395 -0.5332  0.1261  0.0540
   53CHL1   H7A 3860   5.242   6.795   7.438  0.0753  2.4431 -3.3815
   53CHL1   H7B 3861   5.250   6.610   7.414 -0.7822  0.4378  1.1147
   53CHL1    C8 3862   5.440   6.711   7.459 -0.0608  0.1088  0.4973
   53CHL1    H8 3863   5.488   6.812   7.458 -0.4538  0.4671  3.8528
   53CHL1   C14 3864   5.432   6.668   7.605  0.1645  1.0975  0.7265
   53CHL1   H14 3865   5.387   6.567   7.598 -2.1837  2.2196 -2.6033
   53CHL1   C15 3866   5.343   6.742   7.704 -0.1409 -0.9262 -0.0495
   53CHL1  H15A 3867   5.361   6.851   7.696 -0.8201 -0.6307  1.9526
   53CHL1  H15B 3868   5.236   6.740   7.675  0.4627 -0.5066 -2.5501
   53CHL1   C16 3869   5.385   6.692   7.840  0.2514  0.0146 -0.3915
   53CHL1  H16A 3870   5.410   6.786   7.894 -0.0199  0.7294 -1.4675
   53CHL1  H16B 3871   5.298   6.642   7.888  1.6081 -1.0504  1.0577
   53CHL1   C17 3872   5.516   6.613   7.820  0.3235  0.0232  0.0890
   53CHL1   H17 3873   5.490   6.505   7.819 -1.0516  0.3067  1.0965
   53CHL1   C13 3874   5.563   6.651   7.681 -0.7920  0.4326  0.3825
   53CHL1   C18 3875   5.639   6.788   7.694  0.5390 -0.0317  1.0819
   53CHL1  H18A 3876   5.744   6.774   7.727  0.1961 -0.2937  2.1132
   53CHL1  H18B 3877   5.642   6.834   7.593  0.3341 -0.8102  0.7126
   53CHL1  H18C 3878   5.592   6.857   7.768 -1.1101  0.7396 -0.5975
   53CHL1   C12 3879   5.657   6.561   7.604 -0.0293  0.2030 -0.0128
   53CHL1  H12A 3880   5.755   6.542   7.653  0.9444  0.5904 -1.7245
   53CHL1  H12B 3881   5.629   6.454   7.609  1.1758 -0.0714  1.4042
   53CHL1   C11 3882   5.672   6.602   7.453 -0.5319 -0.3061 -0.2849
   53CHL1  H11A 3883   5.731   6.696   7.452 -1.6672  0.4373 -2.0496
   53CHL1  H11B 3884   5.737   6.524   7.408  1.7582  1.3775 -0.0962
   53CHL1    C9 3885   5.541   6.623   7.379 -0.4072 -0.3126  0.7027
   53CHL1    H9 3886   5.498   6.521   7.379  0.0004 -0.4855  1.1108
   53CHL1   C10 3887   5.558   6.665   7.223  0.2554  1.1405 -0.7059
   53CHL1   C19 3888   5.643   6.791   7.221  0.1087 -0.0191 -0.7464
   53CHL1  H19A 3889   5.602   6.880   7.273  3.2277  1.6753 -0.9879
   53CHL1  H19B 3890   5.746   6.777   7.259  0.1944  0.1223 -0.9262
   53CHL1  H19C 3891   5.652   6.822   7.115 -0.4968 -1.1092 -1.1328
   53CHL1    C1 3892   5.615   6.541   7.142  0.7273 -0.1105 -0.0509
   53CHL1   H1A 3893   5.715   6.521   7.185  0.5354 -0.1068  0.4025
   53CHL1   H1B 3894   5.559   6.447   7.159  1.1667 -0.5354 -0.9172
   53CHL1    C2 3895   5.616   6.576   6.992 -0.0865 -0.2662  0.3646
   53CHL1   H2A 3896   5.669   6.498   6.933  0.3004  0.0495  0.2955
   53CHL1   H2B 3897   5.654   6.675   6.961  0.5866 -0.8960 -0.8907
   53CHL1   C20 3898   5.602   6.622   7.952  0.3991  0.0412  1.4859
   53CHL1   H20 3899   5.631   6.730   7.949  2.4908 -0.4762  1.6384
   53CHL1   C21 3900   5.725   6.533   7.933  0.4479 -0.4346 -0.2843
   53CHL1  H21A 3901   5.790   6.581   7.857  1.9669  1.8013  2.2692
   53CHL1  H21B 3902   5.703   6.426   7.911  1.2387 -0.6430 -0.0749
   53CHL1  H21C 3903   5.791   6.537   8.022 -1.1274  4.7084  1.0091
   53CHL1   C22 3904   5.510   6.598   8.074 -0.6199  0.3959  0.5777
   53CHL1  H22A 3905   5.441   6.681   8.099  0.8555  2.4282 -1.6658
   53CHL1  H22B 3906   5.463   6.498   8.059 -4.1904  1.9354  0.5490
   53CHL1   C23 3907   5.588   6.572   8.203  0.2264  0.0525  0.3568
   53CHL1  H23A 3908   5.520   6.549   8.287 -1.4245 -0.8887 -1.1797
   53CHL1  H23B 3909   5.656   6.483   8.204 -2.1491 -1.8662  1.0457
   53CHL1   C24 3910   5.680   6.688   8.247  0.2431  0.5918 -0.1249
   53CHL1  H24A 3911   5.749   6.704   8.161  0.9609  0.5859  0.4383
   53CHL1  H24B 3912   5.631   6.786   8.258  1.8619  1.3117  1.1131
   53CHL1   C25 3913   5.756   6.649   8.377  0.7630 -0.5367 -0.5779
   53CHL1   H25 3914   5.807   6.551   8.363  2.1464 -0.1228  1.2424
   53CHL1   C26 3915   5.876   6.741   8.410  0.7110  0.0339 -0.6670
   53CHL1  H26A 3916   5.942   6.691   8.484 -0.8939 -1.0892  0.0634
   53CHL1  H26B 3917   5.944   6.754   8.323  1.1119 -1.3267 -0.5761
   53CHL1  H26C 3918   5.833   6.838   8.446 -1.9864 -1.8474  1.6079
   53CHL1   C27 3919   5.666   6.623   8.502 -0.4431 -0.4990 -0.5072
   53CHL1  H27A 3920   5.597   6.540   8.475  0.7669 -0.9933 -2.2803
   53CHL1  H27B 3921   5.729   6.580   8.583 -0.4339  1.2610  0.4570
   53CHL1  H27C 3922   5.614   6.711   8.544 -0.0335 -0.0963 -0.8419
   54CHL1    C3 3923   5.795   1.744   6.823  0.2376 -0.2674 -0.0704
   54CHL1    H3 3924   5.741   1.660   6.871 -0.9087  0.4042 -0.1373
   54CHL1    O3 3925   5.781   1.752   6.684  0.5214 -1.0095 -0.3102
   54CHL1   H3' 3926   5.827   1.834   6.663  0.3753 -0.9473 -0.3875
   54CHL1    C4 3927   5.735   1.877   6.886  0.0500 -0.4818 -0.5805
   54CHL1   H4A 3928   5.777   1.966   6.835 -1.2838  0.1337 -0.6475
   54CHL1   H4B 3929   5.630   1.872   6.847  0.4610 -0.8826 -1.6910
   54CHL1    C5 3930   5.751   1.875   7.034  0.3827  0.3256 -0.0507
   54CHL1    C6 3931   5.641   1.881   7.115 -0.0805  0.3799  0.1439
   54CHL1    H6 3932   5.541   1.904   7.074  0.8214  1.7622 -1.4420
   54CHL1    C7 3933   5.649   1.891   7.264  0.1218 -0.2562 -0.6662
   54CHL1   H7A 3934   5.584   1.970   7.306 -1.4174 -0.2020 -2.9394
   54CHL1   H7B 3935   5.607   1.795   7.300 -2.3288  0.4073 -1.5699
   54CHL1    C8 3936   5.794   1.904   7.323 -0.3585  0.0229 -0.2890
   54CHL1    H8 3937   5.821   2.011   7.308 -0.7796  0.0342 -0.9822
   54CHL1   C14 3938   5.805   1.868   7.471 -0.0980  0.6181  0.0440
   54CHL1   H14 3939   5.766   1.764   7.475  0.1572  0.3484 -2.5801
   54CHL1   C15 3940   5.722   1.951   7.571  0.4239 -0.0520  0.0291
   54CHL1  H15A 3941   5.733   2.059   7.546  0.1617  0.0652  0.4241
   54CHL1  H15B 3942   5.614   1.927   7.561  0.6805 -2.2054  1.6941
   54CHL1   C16 3943   5.789   1.920   7.712  0.0395 -0.0889  0.3488
   54CHL1  H16A 3944   5.821   2.018   7.752  1.5798 -0.1238 -0.7245
   54CHL1  H16B 3945   5.716   1.871   7.779 -1.4226  2.3883  0.7085
   54CHL1   C17 3946   5.919   1.830   7.677  0.6541 -0.4590 -0.2368
   54CHL1   H17 3947   5.876   1.727   7.682 -1.0996  0.2832  0.7740
   54CHL1   C13 3948   5.949   1.863   7.530  0.3956 -0.0805 -0.5127
   54CHL1   C18 3949   6.013   1.996   7.516  0.0206  0.3847 -0.2814
   54CHL1  H18A 3950   6.002   2.054   7.423 -0.4872  1.0763  0.1969
   54CHL1  H18B 3951   5.975   2.064   7.595 -1.8845  0.0974 -0.8967
   54CHL1  H18C 3952   6.122   1.979   7.529 -0.0300 -0.3769 -0.7741
   54CHL1   C12 3953   6.025   1.758   7.448 -0.4340  0.1249  0.1444
   54CHL1  H12A 3954   6.123   1.731   7.492  0.3250 -0.5750 -1.8312
   54CHL1  H12B 3955   5.965   1.665   7.441 -2.6374  1.5914 -2.8403
   54CHL1   C11 3956   6.035   1.804   7.301  0.1549 -0.0957  0.5432
   54CHL1  H11A 3957   6.091   1.900   7.297  0.1807 -0.0964  0.8721
   54CHL1  H11B 3958   6.090   1.725   7.245 -1.2632  0.0959 -1.1840
   54CHL1    C9 3959   5.890   1.827   7.239 -0.5748  0.3291 -0.5806
   54CHL1    H9 3960   5.847   1.725   7.253  0.1151  0.2910  1.7101
   54CHL1   C10 3961   5.894   1.853   7.084  0.6814  0.8740 -0.2186
   54CHL1   C19 3962   5.962   1.990   7.066 -0.1453 -0.3161 -0.0758
   54CHL1  H19A 3963   6.071   1.983   7.090 -0.5472  1.0977  2.5977
   54CHL1  H19B 3964   5.963   2.037   6.965  0.9462  0.0938  0.1092
   54CHL1  H19C 3965   5.907   2.059   7.134  1.5558 -0.0714  1.1323
   54CHL1    C1 3966   5.974   1.738   7.009  0.7683  0.4314  0.0543
   54CHL1   H1A 3967   6.081   1.755   7.033  1.3019  1.0424 -2.4907
   54CHL1   H1B 3968   5.952   1.638   7.051 -1.1252  0.2322 -1.2937
   54CHL1    C2 3969   5.945   1.726   6.864  0.1951 -0.4809  0.7157
   54CHL1   H2A 3970   5.984   1.630   6.823 -0.6825 -1.6086  2.4226
   54CHL1   H2B 3971   5.998   1.810   6.816 -0.4145 -1.4637 -1.8600
   54CHL1   C20 3972   6.030   1.848   7.783 -0.1507 -0.5965 -0.3142
   54CHL1   H20 3973   6.066   1.953   7.772  1.6100 -1.2762 -1.5996
   54CHL1   C21 3974   6.150   1.759   7.754 -0.0288 -1.0650 -0.5432
   54CHL1  H21A 3975   6.208   1.803   7.670  0.9247  0.1537  0.6982
   54CHL1  H21B 3976   6.125   1.658   7.717  3.2466 -1.7185 -1.2474
   54CHL1  H21C 3977   6.216   1.757   7.843 -0.5063  1.5185 -0.0300
   54CHL1   C22 3978   5.991   1.828   7.935  0.0154  0.1666  0.5414
   54CHL1  H22A 3979   6.080   1.858   7.994 -0.8251  0.5165  1.6603
   54CHL1  H22B 3980   5.907   1.894   7.965  0.1290  0.9491 -0.7918
   54CHL1   C23 3981   5.946   1.682   7.959  0.2279 -0.0924 -0.1521
   54CHL1  H23A 3982   5.894   1.641   7.870  1.0592  0.1250 -0.7453
   54CHL1  H23B 3983   6.040   1.624   7.971  0.5450  0.4869  0.2475
   54CHL1   C24 3984   5.862   1.657   8.084  0.3075  0.0657  0.1051
   54CHL1  H24A 3985   5.779   1.730   8.069  0.8952  0.7357  0.0451
   54CHL1  H24B 3986   5.810   1.559   8.080 -1.2540  0.8839 -1.9007
   54CHL1   C25 3987   5.930   1.684   8.217 -0.2681  0.5003 -0.1072
   54CHL1   H25 3988   5.971   1.788   8.220 -0.1984  0.4996 -0.8664
   54CHL1   C26 3989   5.836   1.656   8.335 -0.2358 -0.1424  0.2838
   54CHL1  H26A 3990   5.802   1.552   8.314  1.1327 -0.2741 -1.5386
   54CHL1  H26B 3991   5.879   1.664   8.437  1.1650 -1.4118 -0.1837
   54CHL1  H26C 3992   5.743   1.715   8.322  0.2178  0.9506  1.7727
   54CHL1   C27 3993   6.048   1.584   8.239 -0.4081 -0.6563 -0.1609
   54CHL1  H27A 3994   6.095   1.601   8.338  0.6622 -1.7368 -0.4649
   54CHL1  H27B 3995   6.007   1.481   8.231 -2.1558  0.1332 -4.1019
   54CHL1  H27C 3996   6.125   1.599   8.161  1.4810  3.0862  2.1402
   55CHL1    C3 3997   3.967   4.556   6.950  0.5556  0.2662 -0.0562
   55CHL1    H3 3998   3.902   4.644   6.965 -0.8694 -0.9917  1.6389
   55CHL1    O3 3999   3.934   4.504   6.820  0.2959 -0.1550 -0.3632
   55CHL1   H3' 4000   4.014   4.451   6.816  2.0781  2.0694  2.1525
   55CHL1    C4 4001   4.110   4.596   6.957  0.4758 -0.8303  0.6698
   55CHL1   H4A 4002   4.172   4.505   6.949  1.4184 -0.0732 -1.1486
   55CHL1   H4B 4003   4.134   4.655   6.866  2.6993 -1.3234  0.8959
   55CHL1    C5 4004   4.138   4.679   7.085  0.3577 -0.4618 -0.4584
   55CHL1    C6 4005   4.176   4.809   7.096 -0.2670 -0.0966  0.1094
   55CHL1    H6 4006   4.182   4.865   7.002  0.6665  0.7129  0.6451
   55CHL1    C7 4007   4.203   4.881   7.221 -0.1116 -0.2367  0.0652
   55CHL1   H7A 4008   4.296   4.940   7.207  0.4477 -0.9214  0.8182
   55CHL1   H7B 4009   4.124   4.958   7.232 -0.4964 -0.6200  0.0145
   55CHL1    C8 4010   4.213   4.791   7.345 -0.6939  0.3904 -0.0415
   55CHL1    H8 4011   4.314   4.745   7.341 -1.8999 -2.4089 -0.9174
   55CHL1   C14 4012   4.180   4.865   7.475 -0.1309  0.0615 -0.1554
   55CHL1   H14 4013   4.075   4.900   7.463  0.9968  3.2147 -2.0884
   55CHL1   C15 4014   4.255   4.998   7.489  0.0148 -0.1637 -0.0540
   55CHL1  H15A 4015   4.361   4.991   7.459 -0.6643  1.0475 -3.0815
   55CHL1  H15B 4016   4.212   5.088   7.439  0.0275  0.2734  0.6981
   55CHL1   C16 4017   4.254   5.021   7.638 -0.1047  0.9635 -0.1238
   55CHL1  H16A 4018   4.352   5.031   7.689 -0.5952  1.6457  0.7383
   55CHL1  H16B 4019   4.197   5.116   7.653 -2.7197 -0.5953  0.3467
   55CHL1   C17 4020   4.175   4.901   7.705 -0.3736 -0.1231  0.4088
   55CHL1   H17 4021   4.067   4.926   7.709 -0.6647 -1.3460  0.5288
   55CHL1   C13 4022   4.189   4.784   7.603 -0.9127 -0.4279  0.7368
   55CHL1   C18 4023   4.334   4.727   7.616  1.0469 -1.0405  0.0849
   55CHL1  H18A 4024   4.405   4.812   7.624 -1.6727  1.3506  0.4125
   55CHL1  H18B 4025   4.347   4.663   7.706 -0.5096  0.1759  1.2232
   55CHL1  H18C 4026   4.363   4.653   7.538 -1.0319 -1.8373  0.0115
   55CHL1   C12 4027   4.073   4.683   7.594 -0.5230  0.9933 -1.2333
   55CHL1  H12A 4028   4.061   4.627   7.689  0.6567  2.9944  0.1565
   55CHL1  H12B 4029   3.983   4.747   7.583  0.8217  3.4848  0.9485
   55CHL1   C11 4030   4.098   4.596   7.473  0.5021  0.0932 -0.3113
   55CHL1  H11A 4031   4.191   4.538   7.490  0.9306  0.5985 -0.8965
   55CHL1  H11B 4032   4.014   4.523   7.470 -0.0600  0.6309  1.2171
   55CHL1    C9 4033   4.107   4.676   7.340 -0.0458  0.4654 -0.8206
   55CHL1    H9 4034   4.016   4.738   7.329 -0.4723 -0.2032 -1.1052
   55CHL1   C10 4035   4.107   4.588   7.211  0.2936 -0.2571 -0.2135
   55CHL1   C19 4036   4.214   4.470   7.224  0.5112 -0.0732  0.1176
   55CHL1  H19A 4037   4.201   4.415   7.319  2.2991 -2.0514 -0.7203
   55CHL1  H19B 4038   4.202   4.402   7.137 -2.6548  0.7732 -0.2545
   55CHL1  H19C 4039   4.317   4.513   7.226  0.9163 -1.0303  0.0737
   55CHL1    C1 4040   3.968   4.520   7.195  0.0460 -0.0097 -0.6827
   55CHL1   H1A 4041   3.957   4.444   7.275 -0.5374 -0.2545 -0.9910
   55CHL1   H1B 4042   3.886   4.593   7.214  0.3551  0.3320 -0.6411
   55CHL1    C2 4043   3.937   4.458   7.060  0.1214 -0.6230  0.1922
   55CHL1   H2A 4044   3.828   4.434   7.058  0.2676 -1.4356  1.3052
   55CHL1   H2B 4045   3.994   4.366   7.037  0.9175 -1.2601  4.0410
   55CHL1   C20 4046   4.210   4.868   7.852 -0.7215  0.1570 -0.5621
   55CHL1   H20 4047   4.320   4.857   7.856 -0.7011  0.3393  3.6192
   55CHL1   C21 4048   4.167   4.726   7.909 -0.3122 -0.1640 -0.2602
   55CHL1  H21A 4049   4.187   4.722   8.018  0.3135 -1.4617 -0.4042
   55CHL1  H21B 4050   4.219   4.644   7.855 -0.1118  0.3470 -0.8701
   55CHL1  H21C 4051   4.057   4.712   7.907 -0.7900  2.4444  1.8113
   55CHL1   C22 4052   4.187   4.984   7.947  0.2498  0.1345 -0.0465
   55CHL1  H22A 4053   4.200   5.079   7.892  0.4598  0.0436 -0.1575
   55CHL1  H22B 4054   4.078   4.983   7.968  0.2677  2.5796  0.4441
   55CHL1   C23 4055   4.261   4.980   8.076  0.0536  0.0625  0.2249
   55CHL1  H23A 4056   4.232   4.887   8.130 -0.0453 -0.1026 -0.1101
   55CHL1  H23B 4057   4.367   4.954   8.057  0.7018  2.2982  0.5138
   55CHL1   C24 4058   4.243   5.102   8.163 -0.5234 -0.2662  0.4281
   55CHL1  H24A 4059   4.285   5.191   8.112  2.7427 -0.3437  2.6734
   55CHL1  H24B 4060   4.132   5.110   8.170 -0.7895 -2.7837  0.0117
   55CHL1   C25 4061   4.298   5.096   8.309  0.2150  0.1415 -0.5442
   55CHL1   H25 4062   4.407   5.078   8.306  0.1569 -1.1050  2.0251
   55CHL1   C26 4063   4.286   5.233   8.379  0.4607  0.2846  0.5446
   55CHL1  H26A 4064   4.324   5.305   8.303  0.4075 -1.4485 -1.2018
   55CHL1  H26B 4065   4.179   5.249   8.405 -0.8146 -0.7955 -3.4092
   55CHL1  H26C 4066   4.348   5.234   8.471  1.5961 -0.6507 -0.1785
   55CHL1   C27 4067   4.238   4.992   8.405  0.1131  0.4395 -0.4857
   55CHL1  H27A 4068   4.286   4.995   8.505 -1.0770 -0.1073  0.1235
   55CHL1  H27B 4069   4.128   4.994   8.422  0.1289 -0.9186 -0.1169
   55CHL1  H27C 4070   4.259   4.894   8.357 -1.9251  0.4511 -1.5524
   56CHL1    C3 4071   4.049   2.183   6.862 -0.4541  0.5461  0.1296
   56CHL1    H3 4072   3.975   2.108   6.827  0.2331  1.1262 -2.8208
   56CHL1    O3 4073   4.154   2.211   6.774 -0.4931 -0.0818  0.6077
   56CHL1   H3' 4074   4.195   2.124   6.777 -2.9682 -1.3880 -0.5769
   56CHL1    C4 4075   3.983   2.318   6.907 -0.6794 -0.5220 -0.3828
   56CHL1   H4A 4076   4.057   2.398   6.930 -0.7368 -0.2813 -1.0446
   56CHL1   H4B 4077   3.929   2.368   6.824 -0.6805  1.9438  1.0061
   56CHL1    C5 4078   3.890   2.312   7.027  0.4764  0.9744  0.5142
   56CHL1    C6 4079   3.762   2.353   7.018 -0.0441 -0.0014 -0.2983
   56CHL1    H6 4080   3.742   2.418   6.932  1.5558  1.1491  0.1527
   56CHL1    C7 4081   3.663   2.347   7.131  0.0697 -0.0209 -1.0294
   56CHL1   H7A 4082   3.610   2.444   7.136 -0.6998 -0.4809  0.4481
   56CHL1   H7B 4083   3.599   2.262   7.099  2.9762 -1.5552 -3.2632
   56CHL1    C8 4084   3.726   2.314   7.271 -0.1403  0.4264 -0.1488
   56CHL1    H8 4085   3.775   2.406   7.312 -0.2700  0.1032  0.7418
   56CHL1   C14 4086   3.618   2.263   7.373  0.4846  0.1942  0.5464
   56CHL1   H14 4087   3.572   2.174   7.324  2.0132 -0.7869  0.8084
   56CHL1   C15 4088   3.504   2.362   7.404  0.2433 -0.2272 -0.0112
   56CHL1  H15A 4089   3.551   2.458   7.434 -0.5890 -0.3666  1.9252
   56CHL1  H15B 4090   3.440   2.371   7.314 -0.8325  0.1877  0.7700
   56CHL1   C16 4091   3.437   2.294   7.527 -0.5652  0.7767 -0.4545
   56CHL1  H16A 4092   3.411   2.373   7.601 -1.0407  0.5089 -0.3285
   56CHL1  H16B 4093   3.340   2.252   7.491 -0.9622  0.1557  1.2524
   56CHL1   C17 4094   3.543   2.188   7.586 -0.0532 -0.6664  0.0711
   56CHL1   H17 4095   3.516   2.090   7.541  0.8190  0.2949 -2.7460
   56CHL1   C13 4096   3.671   2.211   7.505  0.1040  0.5647 -0.5257
   56CHL1   C18 4097   3.752   2.310   7.582 -0.1352 -0.5994 -1.5677
   56CHL1  H18A 4098   3.826   2.365   7.519 -0.8211  3.2060  0.7069
   56CHL1  H18B 4099   3.686   2.394   7.612 -0.0295 -0.6678 -1.1434
   56CHL1  H18C 4100   3.798   2.263   7.672 -2.6454 -1.7940 -0.8342
   56CHL1   C12 4101   3.750   2.081   7.474 -0.2095 -0.2328 -0.0940
   56CHL1  H12A 4102   3.796   2.040   7.567  0.7497 -1.5473 -1.1178
   56CHL1  H12B 4103   3.682   2.005   7.431 -1.7567  0.2434  1.3892
   56CHL1   C11 4104   3.872   2.120   7.377  0.1576 -0.7075  0.3245
   56CHL1  H11A 4105   3.942   2.183   7.436 -1.1041  0.4722  0.6310
   56CHL1  H11B 4106   3.924   2.026   7.349 -0.7859 -0.9344 -0.7014
   56CHL1    C9 4107   3.824   2.193   7.246  0.5240 -0.5247 -0.0295
   56CHL1    H9 4108   3.765   2.112   7.199 -0.2261 -2.3877  3.7579
   56CHL1   C10 4109   3.942   2.237   7.148 -0.2484 -0.2676  0.5587
   56CHL1   C19 4110   4.037   2.339   7.208  0.2732  0.9080  0.7742
   56CHL1  H19A 4111   4.127   2.357   7.146 -0.5347 -1.0211 -1.0791
   56CHL1  H19B 4112   3.991   2.436   7.238  0.2458  0.5319  2.0222
   56CHL1  H19C 4113   4.073   2.310   7.309 -2.0531 -1.5754  1.0001
   56CHL1    C1 4114   4.014   2.106   7.099 -0.1386  0.6092  0.0354
   56CHL1   H1A 4115   4.058   2.065   7.192 -0.9458 -0.6471 -0.1081
   56CHL1   H1B 4116   3.934   2.034   7.073  0.5923  0.0303 -0.6956
   56CHL1    C2 4117   4.120   2.123   6.983 -0.2443 -0.1724 -0.4864
   56CHL1   H2A 4118   4.167   2.022   6.983 -0.3283 -0.3565  3.1783
   56CHL1   H2B 4119   4.205   2.189   7.010 -0.8123  0.1039  0.6913
   56CHL1   C20 4120   3.548   2.170   7.736  0.2048  0.1696 -0.6976
   56CHL1   H20 4121   3.648   2.138   7.775  0.9610  1.1526 -1.7586
   56CHL1   C21 4122   3.448   2.059   7.777 -0.7989 -1.3104  0.1455
   56CHL1  H21A 4123   3.484   1.962   7.737  3.4697 -0.9406  2.4555
   56CHL1  H21B 4124   3.344   2.077   7.743 -0.4269 -0.2356 -0.4651
   56CHL1  H21C 4125   3.435   2.051   7.887 -0.1928 -2.1670  0.1643
   56CHL1   C22 4126   3.518   2.299   7.826  0.1200  0.0966  0.3212
   56CHL1  H22A 4127   3.595   2.377   7.810  2.9844 -2.8457 -1.5649
   56CHL1  H22B 4128   3.417   2.343   7.814  0.9583  2.6325  1.9119
   56CHL1   C23 4129   3.535   2.270   7.970  0.3520  0.6258  0.0572
   56CHL1  H23A 4130   3.454   2.206   8.013  0.9752 -0.3751 -0.2140
   56CHL1  H23B 4131   3.631   2.215   7.978  0.6037  1.2567  1.8301
   56CHL1   C24 4132   3.555   2.397   8.056 -0.8235 -0.4069  0.2653
   56CHL1  H24A 4133   3.650   2.440   8.017 -0.1176 -1.5882  0.6325
   56CHL1  H24B 4134   3.472   2.467   8.038  2.2318  4.0287  1.7490
   56CHL1   C25 4135   3.563   2.371   8.216  0.0107  0.4564  0.1115
   56CHL1   H25 4136   3.459   2.344   8.241  0.6381 -2.2706  0.0645
   56CHL1   C26 4137   3.656   2.254   8.250 -0.5187 -0.3687  0.1573
   56CHL1  H26A 4138   3.680   2.245   8.359  0.3303  0.8499  0.0961
   56CHL1  H26B 4139   3.755   2.279   8.205 -1.3952  1.4968 -0.8372
   56CHL1  H26C 4140   3.623   2.161   8.199  0.4539 -0.2013 -0.8270
   56CHL1   C27 4141   3.600   2.508   8.283 -0.2250  0.5057 -0.0071
   56CHL1  H27A 4142   3.597   2.490   8.392  1.0247 -1.4340 -0.2269
   56CHL1  H27B 4143   3.701   2.539   8.247  3.2930 -5.6663  2.7890
   56CHL1  H27C 4144   3.513   2.571   8.256  0.0562  0.3342 -1.4119
   57SAPC     N 4145   2.472   0.148  10.829 -0.0124  0.4503 -0.1276
   57SAPC   C12 4146   2.415   0.092  10.707 -1.0417 -0.4143  0.0622
   57SAPC  H12A 4147   2.354   0.164  10.655  2.0503  0.8098 -2.1745
   57SAPC  H12B 4148   2.353   0.012  10.746  1.2389 -1.9997  0.7027
   57SAPC   C13 4149   2.363   0.216  10.907 -0.8888  0.9128  0.2585
   57SAPC  H13A 4150   2.404   0.255  10.999  0.5565  0.9893 -0.3898
   57SAPC  H13B 4151   2.322   0.292  10.843  0.9201  1.8729  0.1902
   57SAPC  H13C 4152   2.278   0.156  10.940 -0.8751  0.4610 -0.4995
   57SAPC   C14 4153   2.536   0.040  10.909  0.1158  0.8478 -1.0602
   57SAPC  H14A 4154   2.458  -0.032  10.929  3.5959 -2.7043  1.1621
   57SAPC  H14B 4155   2.611  -0.008  10.848  0.5767  0.1003  0.0533
   57SAPC  H14C 4156   2.580   0.062  11.005  2.2048 -0.9143 -1.5308
   57SAPC   C15 4157   2.567   0.258  10.805 -0.0038 -0.0992 -0.9581
   57SAPC  H15A 4158   2.647   0.223  10.740  1.0484  0.5544 -0.0527
   57SAPC  H15B 4159   2.526   0.348  10.760  0.5391  3.2555  4.4371
   57SAPC  H15C 4160   2.606   0.295  10.898 -2.2202  3.6105 -1.3212
   57SAPC   C11 4161   2.508   0.014  10.599  0.1384  0.4755 -0.4669
   57SAPC  H11A 4162   2.592   0.081  10.569  1.8571 -1.5192 -0.3619
   57SAPC  H11B 4163   2.444  -0.008  10.511  0.2756  0.1140 -0.4821
   57SAPC     P 4164   2.471  -0.224  10.670  0.0569  0.2416  0.1854
   57SAPC   O13 4165   2.539  -0.332  10.746  0.3575 -0.4271 -0.0503
   57SAPC   O14 4166   2.347  -0.177  10.743  0.1933  0.1143  0.3821
   57SAPC   O12 4167   2.574  -0.108  10.643 -0.5007 -0.7621  0.6368
   57SAPC   O11 4168   2.436  -0.276  10.521  0.1075  0.2631 -0.3083
   57SAPC    C1 4169   2.529  -0.339  10.440  1.1645 -0.2618  0.2785
   57SAPC    HA 4170   2.630  -0.293  10.447  1.7389 -1.4935  0.2643
   57SAPC    HB 4171   2.542  -0.442  10.481  1.1543 -0.3565  0.0409
   57SAPC    C2 4172   2.467  -0.334  10.299 -0.4463  0.7028  0.5713
   57SAPC    HS 4173   2.373  -0.394  10.298 -0.2220  0.3111  1.3943
   57SAPC   O21 4174   2.569  -0.407  10.220  0.5303  0.1637 -0.3901
   57SAPC   C21 4175   2.530  -0.464  10.106  0.1222 -0.5993 -0.0813
   57SAPC   O22 4176   2.414  -0.496  10.076  0.0596  0.5248 -0.7164
   57SAPC   C22 4177   2.654  -0.449  10.011  0.2182  0.3675  0.4085
   57SAPC   H2R 4178   2.663  -0.342   9.983 -0.5351  0.3251 -0.0134
   57SAPC   H2S 4179   2.747  -0.469  10.068  0.8827  1.1725 -0.3601
   57SAPC    C3 4180   2.448  -0.194  10.246  0.3438 -0.4724 -0.4904
   57SAPC    HX 4181   2.548  -0.145  10.252 -0.0449  0.1470  1.7876
   57SAPC    HY 4182   2.377  -0.129  10.301 -1.0061  1.5450 -4.2090
   57SAPC   O31 4183   2.425  -0.197  10.105 -0.1666  0.7351 -0.0706
   57SAPC   C31 4184   2.299  -0.230  10.075 -0.2204 -0.1067 -0.3360
   57SAPC   O32 4185   2.212  -0.242  10.157 -0.0880 -0.4386  0.3001
   57SAPC   C32 4186   2.279  -0.239   9.927 -0.1408 -0.1550  0.8784
   57SAPC   H2X 4187   2.254  -0.344   9.899 -0.0264 -0.1038  0.5813
   57SAPC   H2Y 4188   2.368  -0.202   9.873 -0.1334  0.5574  1.3617
   57SAPC   C23 4189   2.643  -0.534   9.880  0.6576  0.0307  0.4958
   57SAPC   H3R 4190   2.595  -0.631   9.910  1.3969 -0.9620 -1.3547
   57SAPC   H3S 4191   2.737  -0.551   9.824  1.1288  2.8681  0.2823
   57SAPC   C24 4192   2.545  -0.482   9.769 -1.0219  1.0831 -0.8030
   57SAPC   H4R 4193   2.446  -0.459   9.815 -1.1839 -0.4054 -0.3417
   57SAPC   H4S 4194   2.531  -0.567   9.699  0.9876 -0.0175  0.0392
   57SAPC   C25 4195   2.611  -0.372   9.697  0.0010  0.0196 -0.1627
   57SAPC   H5R 4196   2.635  -0.286   9.762 -1.2068  0.7862 -0.6821
   57SAPC   C26 4197   2.619  -0.341   9.569 -0.5276  0.5267 -0.2882
   57SAPC   H6R 4198   2.664  -0.244   9.542 -0.5617  0.4218 -0.7362
   57SAPC   C27 4199   2.563  -0.421   9.453  0.2906 -0.1987 -0.2432
   57SAPC   H7R 4200   2.490  -0.353   9.404 -0.3897 -0.2377  0.6970
   57SAPC   H7S 4201   2.501  -0.507   9.487 -0.9168  1.2277  1.3064
   57SAPC   C28 4202   2.678  -0.457   9.367  0.3648  0.1667 -0.6881
   57SAPC   H8R 4203   2.728  -0.548   9.402  0.6190 -0.4390 -2.5081
   57SAPC   C29 4204   2.712  -0.387   9.252  0.6893 -0.0298 -0.0115
   57SAPC   H9R 4205   2.804  -0.420   9.201  0.8007 -0.5626  0.5220
   57SAPC  C210 4206   2.652  -0.259   9.205 -0.9702  0.1277 -0.6181
   57SAPC  H10R 4207   2.728  -0.181   9.179  0.3535 -0.0170  2.4469
   57SAPC  H10S 4208   2.597  -0.212   9.288  2.8199  0.8430  1.7380
   57SAPC  C211 4209   2.571  -0.291   9.088 -0.1748  0.0603 -0.4439
   57SAPC  H11R 4210   2.511  -0.383   9.087 -1.2985  0.7561  0.3417
   57SAPC  C212 4211   2.532  -0.207   8.992 -0.2154  0.1248  1.2319
   57SAPC  H12R 4212   2.452  -0.235   8.923  0.3124 -0.2915  0.7757
   57SAPC  C213 4213   2.563  -0.060   8.971 -0.0881  0.5228 -0.3140
   57SAPC  H13R 4214   2.609  -0.028   9.067  0.5349 -2.8186  0.6363
   57SAPC  H13S 4215   2.468  -0.004   8.960 -2.0194 -2.6378 -0.9311
   57SAPC  C214 4216   2.668  -0.051   8.862 -0.5238  0.0001 -0.4058
   57SAPC  H14R 4217   2.763  -0.102   8.882 -0.3084  0.7058  0.4317
   57SAPC  C215 4218   2.648   0.024   8.751 -0.0506  0.4265  0.4204
   57SAPC  H15R 4219   2.729   0.018   8.676  0.4338 -2.1498  1.0399
   57SAPC  C216 4220   2.526   0.111   8.713  0.1652  0.2705  0.0816
   57SAPC  H16R 4221   2.534   0.209   8.766 -1.7585  1.1555 -1.1627
   57SAPC  H16S 4222   2.428   0.068   8.741 -0.0553 -0.9244 -2.3056
   57SAPC  C217 4223   2.520   0.144   8.561 -0.3392 -0.5522  0.4252
   57SAPC  H17R 4224   2.624   0.164   8.529 -0.3107 -2.0616 -0.5105
   57SAPC  H17S 4225   2.463   0.236   8.537  2.5083  1.7214  1.7404
   57SAPC  C218 4226   2.454   0.022   8.489 -0.0025  0.1771  0.3454
   57SAPC  H18R 4227   2.363  -0.012   8.544 -0.9441  0.5586 -0.9276
   57SAPC  H18S 4228   2.526  -0.062   8.488  0.1077  0.2736  0.0381
   57SAPC  C219 4229   2.416   0.050   8.343 -0.0130  0.6197 -0.0437
   57SAPC  H19R 4230   2.332   0.122   8.345 -0.9367 -0.4265  0.9690
   57SAPC  H19S 4231   2.365  -0.043   8.309 -1.1384  0.4024  2.0427
   57SAPC  C220 4232   2.529   0.100   8.252  0.3679 -0.8857  0.7075
   57SAPC  H20R 4233   2.495   0.130   8.151 -0.8124 -0.5491  1.1915
   57SAPC  H20S 4234   2.601   0.016   8.236  0.2314 -0.5964 -1.8696
   57SAPC  H20T 4235   2.585   0.185   8.296 -0.0026  0.0974 -0.6444
   57SAPC   C33 4236   2.158  -0.163   9.873  0.1456  0.0109  0.0899
   57SAPC   H3X 4237   2.150  -0.067   9.929  0.0475  0.2425 -0.3219
   57SAPC   H3Y 4238   2.065  -0.218   9.899  0.3984  0.0151  1.0505
   57SAPC   C34 4239   2.171  -0.133   9.724 -0.1778 -0.0481 -0.5418
   57SAPC   H4X 4240   2.263  -0.073   9.704  1.4328 -2.2867 -0.3468
   57SAPC   H4Y 4241   2.091  -0.061   9.699  0.6102  1.5853  1.3989
   57SAPC   C35 4242   2.160  -0.251   9.631 -0.5113  0.6709  0.8257
   57SAPC   H5X 4243   2.074  -0.311   9.666 -0.7479 -1.2475 -2.5972
   57SAPC   H5Y 4244   2.249  -0.318   9.626 -1.3126 -0.3206 -2.2312
   57SAPC   C36 4245   2.106  -0.214   9.485 -0.2251 -0.4010 -0.2772
   57SAPC   H6X 4246   2.013  -0.155   9.478  0.8448  1.1831 -2.2280
   57SAPC   H6Y 4247   2.072  -0.309   9.438  0.9903 -0.9771 -0.0498
   57SAPC   C37 4248   2.205  -0.147   9.388  0.1850 -0.0189 -0.5448
   57SAPC   H7X 4249   2.280  -0.225   9.360  0.9144 -0.1469  1.5769
   57SAPC   H7Y 4250   2.250  -0.063   9.445 -0.8493  0.8800 -1.0262
   57SAPC   C38 4251   2.126  -0.096   9.267  0.0502 -0.1309 -0.3001
   57SAPC   H8X 4252   2.065  -0.009   9.298  3.0443  2.3024 -0.7687
   57SAPC   H8Y 4253   2.057  -0.174   9.229 -1.2335  1.1953 -0.7711
   57SAPC   C39 4254   2.205  -0.051   9.145 -0.0841  0.7806 -0.2173
   57SAPC   H9X 4255   2.265  -0.132   9.097 -1.5243 -1.1259  1.0463
   57SAPC   H9Y 4256   2.267   0.034   9.181 -0.9097  0.9562  0.8250
   57SAPC  C310 4257   2.118   0.007   9.029 -0.2247 -0.7057 -0.3464
   57SAPC  H10X 4258   2.062   0.093   9.071  2.1949  0.7070  0.1895
   57SAPC  H10Y 4259   2.047  -0.077   9.015  1.5987 -2.3775  0.0373
   57SAPC  C311 4260   2.201   0.043   8.911  0.2048  0.0084  0.3209
   57SAPC  H11X 4261   2.267  -0.045   8.901 -1.2765 -1.1198  0.1436
   57SAPC  H11Y 4262   2.276   0.116   8.949  1.4187 -1.4622  0.8296
   57SAPC  C312 4263   2.137   0.070   8.775 -0.0248  0.3683 -0.7961
   57SAPC  H12X 4264   2.071  -0.014   8.743 -1.6948  1.9563 -1.6847
   57SAPC  H12Y 4265   2.209   0.060   8.691 -1.6453 -1.0012 -2.1076
   57SAPC  C313 4266   2.057   0.202   8.768 -0.5594  0.3333  0.3258
   57SAPC  H13X 4267   2.109   0.296   8.795 -1.1461  0.1020  2.4673
   57SAPC  H13Y 4268   1.984   0.197   8.852  0.3444 -0.4291  1.0978
   57SAPC  C314 4269   1.989   0.215   8.635  0.2490 -0.8198  0.5121
   57SAPC  H14X 4270   1.935   0.121   8.610 -4.2278  1.7575 -0.6736
   57SAPC  H14Y 4271   2.068   0.229   8.558  0.7959  1.9989  1.4460
   57SAPC  C315 4272   1.896   0.342   8.606 -0.1530  0.3980 -0.3454
   57SAPC  H15X 4273   1.803   0.328   8.665 -0.3104  2.8098  0.0825
   57SAPC  H15Y 4274   1.864   0.324   8.502 -0.6767  1.6874 -0.4237
   57SAPC  C316 4275   1.953   0.478   8.626  0.1865 -1.3120  0.2661
   57SAPC  H16X 4276   2.052   0.488   8.577  0.0803  0.9499  0.4368
   57SAPC  H16Y 4277   1.953   0.505   8.734 -2.2184  1.3141 -0.2791
   57SAPC  C317 4278   1.871   0.594   8.564 -0.1573  0.4930  0.3106
   57SAPC  H17X 4279   1.778   0.610   8.623 -2.0575 -1.2871 -1.9391
   57SAPC  H17Y 4280   1.835   0.558   8.465 -0.9809 -0.9060  1.0863
   57SAPC  C318 4281   1.941   0.729   8.544 -0.3541 -0.6472 -0.3249
   57SAPC  H18X 4282   1.951   0.783   8.641  0.0960  2.1224 -1.8169
   57SAPC  H18Y 4283   1.892   0.796   8.471  0.3625 -0.3979 -0.5856
   57SAPC  H18Z 4284   2.039   0.705   8.498  0.0466  0.1777  0.0810
   58SAPC     N 4285   5.183   2.004  11.158  0.3882 -0.2901  0.1763
   58SAPC   C12 4286   5.200   2.086  11.037  0.3378 -0.1564  0.4234
   58SAPC  H12A 4287   5.277   2.158  11.063 -0.2069  0.9373 -0.8587
   58SAPC  H12B 4288   5.113   2.143  11.006  0.7093 -0.0879 -0.5336
   58SAPC   C13 4289   5.114   2.078  11.270 -0.6708 -0.1489 -0.3645
   58SAPC  H13A 4290   5.023   2.131  11.248 -2.3236 -1.1528  3.2944
   58SAPC  H13B 4291   5.087   2.010  11.350  1.5952 -0.4326  0.2441
   58SAPC  H13C 4292   5.183   2.143  11.323 -0.4089 -1.2716  0.7220
   58SAPC   C14 4293   5.082   1.901  11.124 -0.2174  0.5488  0.2595
   58SAPC  H14A 4294   4.979   1.933  11.124 -1.0113 -1.7527 -0.2119
   58SAPC  H14B 4295   5.102   1.855  11.028 -1.0424  1.2670 -0.2639
   58SAPC  H14C 4296   5.076   1.816  11.190  1.1532 -0.0854 -0.3708
   58SAPC   C15 4297   5.314   1.930  11.188  0.1641 -0.2088  0.0545
   58SAPC  H15A 4298   5.312   1.891  11.289  2.3771 -1.6342 -0.3799
   58SAPC  H15B 4299   5.338   1.854  11.116  0.1120 -1.8456  1.6859
   58SAPC  H15C 4300   5.398   1.998  11.193  1.9643 -2.1578 -1.6644
   58SAPC   C11 4301   5.253   2.016  10.914  0.1776  0.1932 -0.2602
   58SAPC  H11A 4302   5.347   1.959  10.933  0.4999  0.7914 -0.0536
   58SAPC  H11B 4303   5.289   2.090  10.839  1.3806  2.2214  2.1939
   58SAPC     P 4304   5.045   1.983  10.758 -0.4958  0.0690  0.5200
   58SAPC   O13 4305   4.972   1.877  10.686  0.7425  0.0149  0.1194
   58SAPC   O14 4306   4.965   2.081  10.834  0.6922 -0.4404 -0.4257
   58SAPC   O12 4307   5.157   1.923  10.855  0.3499  0.2767 -0.0749
   58SAPC   O11 4308   5.138   2.065  10.652  0.4347  0.1552  0.0516
   58SAPC    C1 4309   5.139   2.206  10.647 -0.6553 -0.1924 -0.3023
   58SAPC    HA 4310   5.136   2.253  10.748  0.6025 -0.6921 -0.0173
   58SAPC    HB 4311   5.239   2.233  10.607  0.2472  0.5052  2.2334
   58SAPC    C2 4312   5.034   2.267  10.555 -0.4541 -0.1024 -0.0410
   58SAPC    HS 4313   4.938   2.231  10.597  0.1773  1.4041  3.0416
   58SAPC   O21 4314   5.079   2.234  10.418  0.0277  0.1708  0.2569
   58SAPC   C21 4315   4.975   2.199  10.343  0.0972  0.6335  0.5682
   58SAPC   O22 4316   4.856   2.212  10.374 -0.3063 -0.0691 -0.2706
   58SAPC   C22 4317   5.022   2.127  10.216  0.0325 -0.7244  0.6575
   58SAPC   H2R 4318   5.128   2.145  10.188  0.0295  0.4219  1.3324
   58SAPC   H2S 4319   5.013   2.018  10.236  0.7222 -0.4965  2.3374
   58SAPC    C3 4320   5.030   2.429  10.582 -0.1355 -0.1310  0.7988
   58SAPC    HX 4321   5.133   2.467  10.566 -0.5010  0.8170  0.6816
   58SAPC    HY 4322   5.005   2.438  10.690 -1.5029  1.3721  0.3936
   58SAPC   O31 4323   4.932   2.501  10.502  0.1109 -0.0655  0.4691
   58SAPC   C31 4324   4.810   2.509  10.549 -0.2937  0.2843 -0.0155
   58SAPC   O32 4325   4.764   2.458  10.651  0.4022  0.2183 -0.4075
   58SAPC   C32 4326   4.736   2.610  10.462  0.4810  0.1332  0.0470
   58SAPC   H2X 4327   4.774   2.711  10.489  0.8144  0.3883 -1.3130
   58SAPC   H2Y 4328   4.626   2.590  10.470  0.4986  0.3201  0.9425
   58SAPC   C23 4329   4.929   2.163  10.103  0.8911  0.0268  0.1765
   58SAPC   H3R 4330   4.827   2.134  10.137  0.8798 -1.4683 -1.0313
   58SAPC   H3S 4331   4.935   2.104  10.010  0.0509  1.4908 -0.8501
   58SAPC   C24 4332   4.952   2.311  10.066  0.8115  0.1879 -0.5109
   58SAPC   H4R 4333   4.933   2.370  10.158 -1.0082 -1.8256  0.4852
   58SAPC   H4S 4334   4.876   2.355   9.999  0.1287  1.9394  1.2993
   58SAPC   C25 4335   5.084   2.332  10.006  0.3525  0.6620 -0.3350
   58SAPC   H5R 4336   5.160   2.333  10.085 -1.8866 -0.8230  1.9732
   58SAPC   C26 4337   5.123   2.344   9.876  0.2103  0.4844 -0.2826
   58SAPC   H6R 4338   5.227   2.367   9.848  0.9530 -1.2973  0.7983
   58SAPC   C27 4339   5.031   2.347   9.758  0.6386  0.4764 -0.0086
   58SAPC   H7R 4340   4.948   2.282   9.791  0.4374  1.4636  1.5360
   58SAPC   H7S 4341   5.085   2.298   9.674 -1.1499  1.4761 -1.8276
   58SAPC   C28 4342   4.993   2.486   9.723  0.2057  0.3365 -0.5149
   58SAPC   H8R 4343   4.965   2.543   9.812 -5.0004 -0.0241 -1.6195
   58SAPC   C29 4344   4.972   2.538   9.605 -0.9248  0.1680  0.2486
   58SAPC   H9R 4345   4.948   2.645   9.597  0.1124  0.4323  0.5831
   58SAPC  C210 4346   4.972   2.467   9.472 -0.3388 -0.0816 -0.6477
   58SAPC  H10R 4347   4.935   2.366   9.502  0.4127 -0.1596  0.0662
   58SAPC  H10S 4348   5.078   2.446   9.446 -0.8752 -1.7866 -1.6240
   58SAPC  C211 4349   4.886   2.522   9.368 -0.3272  0.5578  0.2302
   58SAPC  H11R 4350   4.798   2.578   9.404 -0.4335  0.2749  0.4138
   58SAPC  C212 4351   4.896   2.504   9.234  0.0982 -0.3246 -0.5817
   58SAPC  H12R 4352   4.826   2.564   9.174  0.1414  0.8263  0.4835
   58SAPC  C213 4353   5.000   2.419   9.169 -0.2324  0.7908 -0.1632
   58SAPC  H13R 4354   4.960   2.337   9.107  1.1531 -0.2728  0.2918
   58SAPC  H13S 4355   5.081   2.371   9.227  0.7185  2.5715  0.0766
   58SAPC  C214 4356   5.096   2.510   9.101  0.1231 -0.6676  0.9180
   58SAPC  H14R 4357   5.167   2.568   9.162  1.5262  0.1265 -1.3087
   58SAPC  C215 4358   5.127   2.512   8.970 -0.4647  0.7410 -0.6480
   58SAPC  H15R 4359   5.207   2.577   8.931 -0.1954  1.6221  1.2660
   58SAPC  C216 4360   5.045   2.428   8.873 -0.4346 -0.6741  0.9866
   58SAPC  H16R 4361   4.934   2.428   8.885 -0.5475  0.6862  0.1419
   58SAPC  H16S 4362   5.082   2.323   8.876  0.8407 -0.2873 -0.1189
   58SAPC  C217 4363   5.063   2.461   8.724  0.3356 -0.4663 -0.3495
   58SAPC  H17R 4364   5.165   2.436   8.688  1.0762  2.3043 -0.4153
   58SAPC  H17S 4365   5.050   2.570   8.707 -0.8595 -0.8184 -1.9174
   58SAPC  C218 4366   4.941   2.398   8.641  0.0411  0.4514 -0.4093
   58SAPC  H18R 4367   4.844   2.441   8.673  1.2232  2.8745  0.1061
   58SAPC  H18S 4368   4.946   2.291   8.671  0.6586  1.0425  1.7241
   58SAPC  C219 4369   4.960   2.417   8.492  0.1197 -0.4642  0.0632
   58SAPC  H19R 4370   4.963   2.527   8.479  1.2992 -0.3079  1.4335
   58SAPC  H19S 4371   4.867   2.378   8.446  1.1761 -1.6068 -1.1792
   58SAPC  C220 4372   5.074   2.338   8.429  0.1378 -0.0042 -0.3475
   58SAPC  H20R 4373   5.106   2.379   8.331  0.8943  1.5928  0.5258
   58SAPC  H20S 4374   5.050   2.229   8.426 -1.9506  0.3952  0.3219
   58SAPC  H20T 4375   5.167   2.357   8.488  0.1480  0.3570 -0.4752
   58SAPC   C33 4376   4.765   2.611  10.310 -0.9552  0.2812 -0.8949
   58SAPC   H3X 4377   4.753   2.506  10.278  0.6616  0.0659 -0.8700
   58SAPC   H3Y 4378   4.866   2.646  10.280 -0.2566 -0.5659  0.3914
   58SAPC   C34 4379   4.656   2.676  10.232 -0.0882 -0.5980 -0.2031
   58SAPC   H4X 4380   4.666   2.784  10.257  0.8377 -0.5944 -0.5465
   58SAPC   H4Y 4381   4.553   2.644  10.255 -0.2357 -1.6236 -2.0933
   58SAPC   C35 4382   4.684   2.661  10.086  0.1890 -0.1101  0.9877
   58SAPC   H5X 4383   4.699   2.554  10.060  2.8275  0.2233  0.9193
   58SAPC   H5Y 4384   4.785   2.707  10.078  0.1547 -0.1970 -0.1891
   58SAPC   C36 4385   4.587   2.742   9.996  0.2109  0.3281 -0.5251
   58SAPC   H6X 4386   4.600   2.848  10.025  1.1729  0.0278  0.1658
   58SAPC   H6Y 4387   4.487   2.699  10.021  0.8122 -0.5028  0.5183
   58SAPC   C37 4388   4.612   2.718   9.844 -0.1241 -0.6966  0.5118
   58SAPC   H7X 4389   4.573   2.616   9.830  2.1104 -1.6416  0.7285
   58SAPC   H7Y 4390   4.721   2.724   9.824 -0.3215 -1.8266 -1.0704
   58SAPC   C38 4391   4.547   2.810   9.739  0.1403 -0.0854 -0.4733
   58SAPC   H8X 4392   4.583   2.915   9.751 -0.6379  0.0675  0.6707
   58SAPC   H8Y 4393   4.443   2.829   9.771  0.5382 -0.8774  1.4179
   58SAPC   C39 4394   4.552   2.765   9.600 -0.0330  0.1804 -0.3286
   58SAPC   H9X 4395   4.658   2.737   9.580  1.0705  2.5670  1.6564
   58SAPC   H9Y 4396   4.543   2.855   9.536  1.5851  1.2919  0.9167
   58SAPC  C310 4397   4.462   2.642   9.566  0.9027  0.4284  0.3046
   58SAPC  H10X 4398   4.361   2.689   9.567  0.4494 -0.4855  2.3043
   58SAPC  H10Y 4399   4.464   2.564   9.646 -1.1061 -0.2998 -0.2860
   58SAPC  C311 4400   4.486   2.572   9.437  0.4435  0.7750 -0.0472
   58SAPC  H11X 4401   4.401   2.501   9.426  1.8809 -0.7391 -2.2012
   58SAPC  H11Y 4402   4.584   2.522   9.447 -0.1748 -1.7529 -4.1323
   58SAPC  C312 4403   4.490   2.668   9.321 -0.7047  0.6993  0.1023
   58SAPC  H12X 4404   4.585   2.725   9.331 -0.3711 -0.2624  3.5203
   58SAPC  H12Y 4405   4.403   2.733   9.299 -2.8105 -1.8217  0.6304
   58SAPC  C313 4406   4.504   2.580   9.199 -0.2383 -0.6459 -0.5503
   58SAPC  H13X 4407   4.418   2.512   9.179 -0.6394  0.1262 -1.5365
   58SAPC  H13Y 4408   4.597   2.520   9.212 -0.0376 -0.2796 -0.2911
   58SAPC  C314 4409   4.533   2.663   9.079 -0.8975 -0.0084  0.5724
   58SAPC  H14X 4410   4.627   2.720   9.096  0.0984 -1.4809  0.2118
   58SAPC  H14Y 4411   4.451   2.735   9.056 -0.7478  0.4830  1.5248
   58SAPC  C315 4412   4.539   2.580   8.956 -0.9612  0.7345  0.9044
   58SAPC  H15X 4413   4.449   2.517   8.939  1.1984 -2.2820 -0.0101
   58SAPC  H15Y 4414   4.628   2.514   8.961 -1.1522  0.5025  1.2656
   58SAPC  C316 4415   4.558   2.660   8.819  1.0643  0.3693  0.1069
   58SAPC  H16X 4416   4.659   2.707   8.824  1.2689  0.1636 -1.4748
   58SAPC  H16Y 4417   4.479   2.737   8.817 -0.3097 -0.9925 -1.5035
   58SAPC  C317 4418   4.538   2.578   8.694 -0.3015  0.4886  0.4676
   58SAPC  H17X 4419   4.442   2.522   8.682  0.6355 -0.8783 -1.0920
   58SAPC  H17Y 4420   4.625   2.509   8.693  0.7978  1.8197 -1.0204
   58SAPC  C318 4421   4.553   2.656   8.564  0.3430  0.1212 -0.5153
   58SAPC  H18X 4422   4.551   2.596   8.470  2.1135 -0.8399  0.0205
   58SAPC  H18Y 4423   4.657   2.695   8.562 -0.5771  2.9374  1.4071
   58SAPC  H18Z 4424   4.491   2.748   8.559  0.4427  0.1271 -3.0319
   59SAPC     N 4425   6.201   3.408  11.019  0.1596 -0.1532  0.5689
   59SAPC   C12 4426   6.154   3.545  11.013  0.4041 -0.9038 -0.3476
   59SAPC  H12A 4427   6.088   3.551  10.927  0.4584  0.1772 -0.3274
   59SAPC  H12B 4428   6.232   3.619  11.018 -0.8318  0.4209  0.3264
   59SAPC   C13 4429   6.256   3.370  11.155 -0.1933  0.0596 -0.1270
   59SAPC  H13A 4430   6.326   3.443  11.192 -0.0420  0.2233 -0.7239
   59SAPC  H13B 4431   6.174   3.345  11.222 -2.3682 -0.0391 -2.6734
   59SAPC  H13C 4432   6.312   3.278  11.147  1.7388  1.2588 -0.9596
   59SAPC   C14 4433   6.092   3.312  10.993 -0.5756 -0.6606 -0.2665
   59SAPC  H14A 4434   6.140   3.217  11.011 -0.5068 -0.7111 -0.7208
   59SAPC  H14B 4435   6.004   3.332  11.052 -1.2293  0.2638 -1.5020
   59SAPC  H14C 4436   6.062   3.303  10.890 -2.1494  0.3113  0.0778
   59SAPC   C15 4437   6.311   3.388  10.918  0.3009  0.4300  0.3325
   59SAPC  H15A 4438   6.384   3.467  10.925  1.0507 -0.1493 -0.6476
   59SAPC  H15B 4439   6.363   3.293  10.926 -0.9311 -0.3874 -0.9343
   59SAPC  H15C 4440   6.267   3.383  10.820  0.0590  1.4188  0.3853
   59SAPC   C11 4441   6.064   3.596  11.126  0.2017 -0.9260 -0.6669
   59SAPC  H11A 4442   6.045   3.703  11.105  0.6019 -0.6486  0.3422
   59SAPC  H11B 4443   6.114   3.601  11.225 -1.8851 -0.7560  0.4471
   59SAPC     P 4444   5.825   3.573  11.045  0.1062  0.1341 -0.0976
   59SAPC   O13 4445   5.715   3.475  11.025  0.0634 -0.8481  0.2972
   59SAPC   O14 4446   5.788   3.694  11.120  0.2054  0.6629 -0.0199
   59SAPC   O12 4447   5.945   3.521  11.129  0.1453 -0.3584  0.0433
   59SAPC   O11 4448   5.887   3.617  10.911 -0.0649  0.1601  0.0677
   59SAPC    C1 4449   5.835   3.570  10.780  0.0344  0.3232 -0.3393
   59SAPC    HA 4450   5.868   3.465  10.764  0.4210  0.5050 -0.7633
   59SAPC    HB 4451   5.724   3.567  10.777  0.0383  0.6460 -0.9122
   59SAPC    C2 4452   5.864   3.661  10.659  0.3127  0.5435 -0.2139
   59SAPC    HS 4453   5.815   3.614  10.571 -0.2793  1.3478 -0.3302
   59SAPC   O21 4454   6.003   3.684  10.636  0.0322 -0.0656  0.3706
   59SAPC   C21 4455   6.064   3.570  10.601 -0.2089 -0.1353  0.0157
   59SAPC   O22 4456   6.015   3.465  10.577 -0.2071  0.3381  0.0193
   59SAPC   C22 4457   6.212   3.591  10.610 -0.3665 -0.1009  0.0727
   59SAPC   H2R 4458   6.233   3.700  10.600 -1.3509  0.1152  0.2601
   59SAPC   H2S 4459   6.256   3.552  10.704  1.5848 -0.3031 -0.8802
   59SAPC    C3 4460   5.793   3.798  10.663 -0.1442  0.2532  0.0130
   59SAPC    HX 4461   5.810   3.853  10.759 -0.8659 -2.1860  1.6233
   59SAPC    HY 4462   5.684   3.778  10.669 -0.0045 -0.3401  0.7098
   59SAPC   O31 4463   5.819   3.877  10.543 -0.3105  0.0688 -0.0486
   59SAPC   C31 4464   5.925   3.957  10.555 -0.4257 -0.9421 -0.3895
   59SAPC   O32 4465   5.982   3.982  10.661  0.2403  0.5917 -0.3142
   59SAPC   C32 4466   5.964   4.020  10.423 -0.0076 -0.1112 -0.2658
   59SAPC   H2X 4467   5.968   3.938  10.349  0.5782  0.5885 -1.0376
   59SAPC   H2Y 4468   6.067   4.057  10.442  1.1958 -2.0829 -2.4734
   59SAPC   C23 4469   6.292   3.518  10.491  0.1749 -0.0735 -0.3331
   59SAPC   H3R 4470   6.273   3.410  10.512 -0.3573 -0.0474 -0.6819
   59SAPC   H3S 4471   6.401   3.529  10.512  0.8046 -4.7694  0.0937
   59SAPC   C24 4472   6.244   3.556  10.356 -0.1004  0.5654  0.2962
   59SAPC   H4R 4473   6.137   3.532  10.342 -0.0902  0.4024  0.4985
   59SAPC   H4S 4474   6.294   3.491  10.281 -2.2612  0.3462 -1.0475
   59SAPC   C25 4475   6.265   3.695  10.316 -0.1326  0.7999  0.5960
   59SAPC   H5R 4476   6.337   3.751  10.379  0.4796 -0.3795  0.9696
   59SAPC   C26 4477   6.213   3.743  10.204  1.0932 -0.6885 -0.1278
   59SAPC   H6R 4478   6.240   3.846  10.175  0.7753 -0.5493  0.0630
   59SAPC   C27 4479   6.107   3.666  10.122 -0.0054 -0.4245  0.0779
   59SAPC   H7R 4480   6.079   3.567  10.161  0.5429 -0.4575  0.4013
   59SAPC   H7S 4481   6.163   3.635  10.031  0.9795 -2.2875  1.2578
   59SAPC   C28 4482   5.989   3.753  10.102  0.0059  1.0558  0.2055
   59SAPC   H8R 4483   5.944   3.792  10.194 -1.0177 -1.2937  0.7667
   59SAPC   C29 4484   5.952   3.805   9.984 -0.3108  0.6378 -0.0644
   59SAPC   H9R 4485   5.864   3.870   9.986 -1.4332 -0.8155 -0.2130
   59SAPC  C210 4486   6.014   3.774   9.844  0.5641  0.2345 -0.0713
   59SAPC  H10R 4487   6.122   3.800   9.847  0.6874 -0.3409  0.8686
   59SAPC  H10S 4488   5.976   3.837   9.761 -1.7475  0.4175  1.0553
   59SAPC  C211 4489   5.995   3.625   9.806 -1.1917 -0.0599 -0.2882
   59SAPC  H11R 4490   5.987   3.555   9.890  0.0938 -0.6027 -0.5814
   59SAPC  C212 4491   5.977   3.568   9.689  0.2920  0.2435  0.2681
   59SAPC  H12R 4492   5.942   3.463   9.689  0.5150  0.1618  1.1028
   59SAPC  C213 4493   5.978   3.635   9.549  0.9160 -0.0532  0.1833
   59SAPC  H13R 4494   6.060   3.589   9.491 -1.3128 -2.5207 -1.2288
   59SAPC  H13S 4495   6.000   3.744   9.558 -0.1125  0.2287 -0.4470
   59SAPC  C214 4496   5.853   3.606   9.459  0.3599 -0.5606 -0.5349
   59SAPC  H14R 4497   5.785   3.527   9.493  0.4682 -0.5069 -0.1876
   59SAPC  C215 4498   5.835   3.656   9.339 -0.7422  0.0659  0.0112
   59SAPC  H15R 4499   5.739   3.639   9.287 -0.2456 -0.8660 -0.6153
   59SAPC  C216 4500   5.921   3.759   9.277  0.0609  0.2391  0.3589
   59SAPC  H16R 4501   6.013   3.789   9.332  0.2818  0.6081 -0.2039
   59SAPC  H16S 4502   5.860   3.850   9.260  0.8760  0.7745  0.2295
   59SAPC  C217 4503   5.969   3.706   9.140  0.3940 -0.3849  0.0143
   59SAPC  H17R 4504   6.019   3.608   9.157  0.0500 -0.5943 -0.1677
   59SAPC  H17S 4505   6.052   3.767   9.099  0.7986 -0.8418  0.1448
   59SAPC  C218 4506   5.872   3.685   9.025 -0.2297  0.4158 -0.1695
   59SAPC  H18R 4507   5.798   3.614   9.067 -0.1027  1.8898  2.8388
   59SAPC  H18S 4508   5.916   3.629   8.941  3.1404 -0.9245  2.2968
   59SAPC  C219 4509   5.802   3.819   8.980  0.1960 -0.0586  0.3396
   59SAPC  H19R 4510   5.750   3.851   9.072 -2.5152  0.8774 -1.4055
   59SAPC  H19S 4511   5.730   3.789   8.900  0.1974  1.6299 -0.3392
   59SAPC  C220 4512   5.890   3.932   8.936  0.5750 -0.2101  0.0517
   59SAPC  H20R 4513   5.944   3.962   9.028  0.0304 -2.4542  1.1639
   59SAPC  H20S 4514   5.837   4.015   8.885 -0.3765  0.2804  1.7653
   59SAPC  H20T 4515   5.964   3.895   8.861  0.2195 -0.0505 -0.3862
   59SAPC   C33 4516   5.880   4.137  10.371 -0.3858  0.0248  0.0277
   59SAPC   H3X 4517   5.937   4.233  10.374 -1.2540  0.5387  1.8064
   59SAPC   H3Y 4518   5.789   4.151  10.433 -0.4762 -0.3942 -0.0101
   59SAPC   C34 4519   5.831   4.110  10.229  0.3057 -0.5441 -0.0869
   59SAPC   H4X 4520   5.744   4.172  10.199 -0.0686 -0.9804  0.1069
   59SAPC   H4Y 4521   5.789   4.008  10.236 -2.5546  0.5283 -0.3603
   59SAPC   C35 4522   5.947   4.109  10.133 -1.2463  0.0614 -0.1244
   59SAPC   H5X 4523   5.989   4.007  10.124  2.0065  1.0687  1.9318
   59SAPC   H5Y 4524   6.033   4.173  10.163 -0.5622 -0.3448 -1.1609
   59SAPC   C36 4525   5.893   4.139   9.990  0.0643 -0.3993 -0.1508
   59SAPC   H6X 4526   5.850   4.242   9.994  1.0986  0.0201  0.5206
   59SAPC   H6Y 4527   5.809   4.069   9.974  1.4923 -2.1071 -0.4197
   59SAPC   C37 4528   6.004   4.140   9.882  0.4247  0.1231 -0.0047
   59SAPC   H7X 4529   6.056   4.043   9.897 -2.5794 -1.5570  0.5068
   59SAPC   H7Y 4530   6.074   4.226   9.890 -0.3692  0.6800  1.3571
   59SAPC   C38 4531   5.946   4.150   9.741  0.1681  0.9458 -0.1197
   59SAPC   H8X 4532   5.892   4.247   9.735 -0.4471  0.7107  1.2490
   59SAPC   H8Y 4533   5.874   4.066   9.727  1.1798 -0.0052  0.2717
   59SAPC   C39 4534   6.062   4.142   9.631 -0.5966 -0.1812 -0.1254
   59SAPC   H9X 4535   6.110   4.045   9.654  2.9889  1.1347 -1.3462
   59SAPC   H9Y 4536   6.134   4.225   9.646  0.1616 -1.3831  4.1131
   59SAPC  C310 4537   6.002   4.149   9.496  0.7308 -0.3957  0.0758
   59SAPC  H10X 4538   5.948   4.244   9.475 -1.4810 -1.7834 -0.8453
   59SAPC  H10Y 4539   5.940   4.058   9.482  2.0150 -1.1596 -0.9390
   59SAPC  C311 4540   6.109   4.149   9.389 -0.3774  0.3557 -0.8470
   59SAPC  H11X 4541   6.167   4.055   9.387 -0.5109  0.1864  1.4209
   59SAPC  H11Y 4542   6.186   4.222   9.420  1.1725 -1.2512 -0.7807
   59SAPC  C312 4543   6.061   4.179   9.243  0.0061 -0.2636 -0.2380
   59SAPC  H12X 4544   6.003   4.274   9.247  0.3498 -0.0359 -0.5273
   59SAPC  H12Y 4545   5.993   4.098   9.212 -1.7790  0.2480  2.0566
   59SAPC  C313 4546   6.181   4.200   9.147  0.4355 -0.5169  0.3944
   59SAPC  H13X 4547   6.255   4.119   9.161 -1.3058 -2.5873 -1.5441
   59SAPC  H13Y 4548   6.233   4.295   9.173  0.0969 -0.0212 -0.6640
   59SAPC  C314 4549   6.150   4.207   8.998  0.3783 -0.1317  0.3057
   59SAPC  H14X 4550   6.069   4.283   8.987  0.3369 -0.0788  0.9235
   59SAPC  H14Y 4551   6.107   4.107   8.975 -0.0489 -0.3778  2.0470
   59SAPC  C315 4552   6.278   4.251   8.918 -0.1368  0.5005 -0.2056
   59SAPC  H15X 4553   6.264   4.232   8.810  2.4043 -1.6594 -0.2521
   59SAPC  H15Y 4554   6.357   4.175   8.936 -0.9950 -0.0079  1.6840
   59SAPC  C316 4555   6.335   4.394   8.930  0.3045  0.2402 -0.2953
   59SAPC  H16X 4556   6.388   4.398   9.027 -0.3185 -0.4491  0.0804
   59SAPC  H16Y 4557   6.250   4.465   8.929 -0.8101 -1.0415 -0.8718
   59SAPC  C317 4558   6.422   4.444   8.815  0.4428  0.1330 -0.5611
   59SAPC  H17X 4559   6.454   4.548   8.836 -1.1061  0.5625 -0.1759
   59SAPC  H17Y 4560   6.356   4.438   8.725 -1.0938  0.3223  0.5120
   59SAPC  C318 4561   6.549   4.367   8.791 -0.6079 -0.3594  0.2268
   59SAPC  H18X 4562   6.620   4.375   8.875 -1.0337  0.0730  0.5501
   59SAPC  H18Y 4563   6.597   4.400   8.696 -0.8015 -2.7536 -0.7794
   59SAPC  H18Z 4564   6.525   4.259   8.776 -1.4813 -0.1363 -0.0942
   60SAPC     N 4565   1.511   2.553  10.884 -0.0226  0.2932 -0.1092
   60SAPC   C12 4566   1.627   2.646  10.940 -0.1984 -0.1517  0.5398
   60SAPC  H12A 4567   1.710   2.631  10.872 -0.5603  4.9631 -1.4733
   60SAPC  H12B 4568   1.672   2.597  11.026  1.5285 -1.1321 -0.8357
   60SAPC   C13 4569   1.387   2.568  10.969  0.3255  0.5613  0.4815
   60SAPC  H13A 4570   1.414   2.543  11.071  1.5962 -0.3725 -0.0602
   60SAPC  H13B 4571   1.353   2.670  10.960  1.4608  1.2024  2.6244
   60SAPC  H13C 4572   1.311   2.498  10.937  2.0375 -0.0795 -2.5098
   60SAPC   C14 4573   1.476   2.588  10.748 -0.0232 -0.1558 -0.1352
   60SAPC  H14A 4574   1.429   2.685  10.754  1.1363  0.3348  4.0502
   60SAPC  H14B 4575   1.557   2.582  10.677 -0.1527 -0.4667 -0.2564
   60SAPC  H14C 4576   1.396   2.524  10.712 -0.5838  0.8707 -0.7682
   60SAPC   C15 4577   1.558   2.413  10.885 -0.4065  0.0764  0.1105
   60SAPC  H15A 4578   1.501   2.334  10.839  2.2383 -2.4813  0.9282
   60SAPC  H15B 4579   1.641   2.419  10.816 -0.9072 -0.5172 -0.5576
   60SAPC  H15C 4580   1.590   2.384  10.984 -1.2618  1.0902  0.7075
   60SAPC   C11 4581   1.608   2.799  10.958 -0.4316  0.7265 -0.5318
   60SAPC  H11A 4582   1.685   2.843  11.026  0.4372 -0.5923 -0.6374
   60SAPC  H11B 4583   1.521   2.800  11.028  1.6612 -2.2075  2.4384
   60SAPC     P 4584   1.448   2.947  10.806 -0.4752 -0.2595  0.3895
   60SAPC   O13 4585   1.338   2.849  10.812  0.3199  0.3581 -0.4497
   60SAPC   O14 4586   1.442   3.065  10.893  0.5373 -0.0079  0.2637
   60SAPC   O12 4587   1.580   2.871  10.840 -0.1985 -0.2565  0.0804
   60SAPC   O11 4588   1.481   2.995  10.662  0.4952  0.1681  0.1635
   60SAPC    C1 4589   1.594   3.072  10.624 -0.1756  0.0163 -0.1866
   60SAPC    HA 4590   1.571   3.180  10.640 -0.7077 -0.2730  1.1327
   60SAPC    HB 4591   1.688   3.048  10.678 -0.4648 -4.4098 -1.2397
   60SAPC    C2 4592   1.640   3.057  10.475  1.2076  1.0112  0.0940
   60SAPC    HS 4593   1.728   3.120  10.454  3.6063 -2.3175 -0.6643
   60SAPC   O21 4594   1.530   3.082  10.385  0.1481  0.2785  0.0653
   60SAPC   C21 4595   1.500   3.212  10.357  0.1410 -0.5265  0.2040
   60SAPC   O22 4596   1.561   3.309  10.399 -0.4701 -0.4066  0.3289
   60SAPC   C22 4597   1.391   3.216  10.249 -0.2240 -0.3471 -0.8088
   60SAPC   H2R 4598   1.313   3.276  10.301  0.7404 -0.5217  0.8965
   60SAPC   H2S 4599   1.438   3.284  10.175 -0.6413  3.3702  2.0444
   60SAPC    C3 4600   1.692   2.910  10.450 -0.5979 -0.0907  0.7178
   60SAPC    HX 4601   1.617   2.835  10.482 -1.2097 -0.1951 -0.8284
   60SAPC    HY 4602   1.773   2.880  10.519 -2.3897 -2.8344  1.7999
   60SAPC   O31 4603   1.739   2.884  10.316 -0.1804  0.1532 -0.4183
   60SAPC   C31 4604   1.643   2.859  10.229 -0.2644 -0.4708  0.0784
   60SAPC   O32 4605   1.527   2.830  10.262  0.4685  0.1361  0.2944
   60SAPC   C32 4606   1.699   2.863  10.080  0.2376  0.0663 -0.4185
   60SAPC   H2X 4607   1.805   2.837  10.101 -0.4073 -0.6998  2.2207
   60SAPC   H2Y 4608   1.691   2.967  10.044  1.2504  0.4586  0.4399
   60SAPC   C23 4609   1.335   3.085  10.184  0.3396  0.3595  0.3195
   60SAPC   H3R 4610   1.296   3.030  10.273 -1.9065 -0.9084 -1.3284
   60SAPC   H3S 4611   1.419   3.021  10.149 -1.2379 -0.9409 -1.3219
   60SAPC   C24 4612   1.222   3.108  10.088 -1.0003 -0.5739  0.6144
   60SAPC   H4R 4613   1.140   3.167  10.134 -1.0036  2.2907 -2.6639
   60SAPC   H4S 4614   1.175   3.011  10.061  1.6273 -1.4610 -1.0877
   60SAPC   C25 4615   1.272   3.186   9.964  0.0277 -0.1324  0.1541
   60SAPC   H5R 4616   1.261   3.295   9.979  0.4621 -0.1673  0.7575
   60SAPC   C26 4617   1.321   3.140   9.846 -0.0531  0.3332  0.3996
   60SAPC   H6R 4618   1.364   3.220   9.784  1.0506  0.1674  0.9206
   60SAPC   C27 4619   1.333   2.998   9.800 -0.2369  0.1657  0.7946
   60SAPC   H7R 4620   1.238   2.961   9.757  0.3269  0.3866 -0.6971
   60SAPC   H7S 4621   1.357   2.927   9.882  1.0193  1.8038  1.9062
   60SAPC   C28 4622   1.456   2.985   9.707 -0.1524 -0.6953 -0.3431
   60SAPC   H8R 4623   1.551   3.009   9.757  0.5572 -2.8134 -0.5704
   60SAPC   C29 4624   1.462   2.959   9.575  0.0948 -0.1442 -0.2985
   60SAPC   H9R 4625   1.564   2.948   9.534 -0.3000 -0.7050 -1.1328
   60SAPC  C210 4626   1.345   2.927   9.487  0.3014  0.2016  0.6054
   60SAPC  H10R 4627   1.341   3.010   9.413 -0.6547  1.2063  1.7298
   60SAPC  H10S 4628   1.251   2.915   9.545  0.3354 -0.5803  0.5150
   60SAPC  C211 4629   1.376   2.802   9.403 -0.2507  0.2625 -0.3320
   60SAPC  H11R 4630   1.395   2.716   9.469 -1.0172  0.1831 -0.2127
   60SAPC  C212 4631   1.362   2.775   9.271  0.0050  0.1715  0.2866
   60SAPC  H12R 4632   1.397   2.680   9.227  0.6535 -0.7584  2.6709
   60SAPC  C213 4633   1.303   2.872   9.178 -0.4086  0.3017  0.2938
   60SAPC  H13R 4634   1.298   2.973   9.223  0.3692 -0.2730  1.7467
   60SAPC  H13S 4635   1.199   2.850   9.144  0.0094 -0.2217 -0.6875
   60SAPC  C214 4636   1.394   2.885   9.052  0.0900 -0.1470  0.1623
   60SAPC  H14R 4637   1.470   2.965   9.043 -1.4033  1.3365  0.2652
   60SAPC  C215 4638   1.386   2.808   8.938  0.1269  0.1594 -0.4446
   60SAPC  H15R 4639   1.451   2.831   8.852  0.2843  1.1630 -0.0724
   60SAPC  C216 4640   1.288   2.694   8.916  0.3062  0.1399  0.4611
   60SAPC  H16R 4641   1.229   2.673   9.008  1.1274 -4.1335  0.2365
   60SAPC  H16S 4642   1.355   2.607   8.898 -0.3982 -0.5017  0.8914
   60SAPC  C217 4643   1.194   2.701   8.794 -0.1600 -0.5535 -0.6658
   60SAPC  H17R 4644   1.128   2.789   8.794  0.2454 -0.2428 -1.2341
   60SAPC  H17S 4645   1.132   2.609   8.798  0.4618 -1.0195 -1.3152
   60SAPC  C218 4646   1.272   2.679   8.661 -0.1023 -0.2489 -0.7108
   60SAPC  H18R 4647   1.319   2.580   8.676  0.0151 -0.1396 -0.3380
   60SAPC  H18S 4648   1.353   2.756   8.655  0.6122 -0.9998 -0.8650
   60SAPC  C219 4649   1.195   2.676   8.528  0.5650 -0.1531  0.1157
   60SAPC  H19R 4650   1.162   2.780   8.509 -1.6053 -0.8662 -0.3661
   60SAPC  H19S 4651   1.103   2.615   8.542  0.9439 -0.6277  0.6092
   60SAPC  C220 4652   1.281   2.632   8.409  0.1487  0.5700  0.1683
   60SAPC  H20R 4653   1.358   2.562   8.446  2.3018  1.2947 -2.5881
   60SAPC  H20S 4654   1.342   2.701   8.347  1.5395  0.9569  1.8859
   60SAPC  H20T 4655   1.225   2.573   8.333  2.6434  2.2632 -3.2674
   60SAPC   C33 4656   1.634   2.757   9.989  0.3556  0.6214 -0.0061
   60SAPC   H3X 4657   1.525   2.773   9.972  0.3596 -0.1371 -0.8411
   60SAPC   H3Y 4658   1.635   2.653  10.028  0.4445  0.7969  0.4562
   60SAPC   C34 4659   1.701   2.755   9.846 -0.4338  0.4792 -0.2793
   60SAPC   H4X 4660   1.806   2.719   9.858 -1.0981 -1.2877  0.6439
   60SAPC   H4Y 4661   1.703   2.857   9.801 -0.7686  0.1661 -1.0172
   60SAPC   C35 4662   1.628   2.659   9.751 -0.0825  0.6395  0.1597
   60SAPC   H5X 4663   1.523   2.694   9.740 -0.1360  0.4371  0.0263
   60SAPC   H5Y 4664   1.622   2.559   9.799  2.3589  1.2583  1.9871
   60SAPC   C36 4665   1.709   2.638   9.618  0.5551  0.3505  0.4913
   60SAPC   H6X 4666   1.815   2.607   9.622  0.8381  1.3499  1.3682
   60SAPC   H6Y 4667   1.706   2.741   9.578  2.1083  0.2025 -0.0640
   60SAPC   C37 4668   1.635   2.544   9.516 -0.1037 -0.7019  0.0208
   60SAPC   H7X 4669   1.534   2.587   9.505 -0.8739 -2.3069  0.5309
   60SAPC   H7Y 4670   1.630   2.449   9.574  0.4476 -0.6404  0.1775
   60SAPC   C38 4671   1.703   2.543   9.370  0.4841  0.7212 -0.7074
   60SAPC   H8X 4672   1.813   2.536   9.379  0.2840 -0.6933  1.7888
   60SAPC   H8Y 4673   1.680   2.645   9.332 -2.9778  0.6294  0.7763
   60SAPC   C39 4674   1.643   2.430   9.287 -0.0801 -0.2585 -1.0500
   60SAPC   H9X 4675   1.533   2.426   9.301  0.0829 -0.3352  0.3135
   60SAPC   H9Y 4676   1.694   2.341   9.330 -0.1911 -0.0698 -0.5208
   60SAPC  C310 4677   1.680   2.449   9.137 -0.3056 -0.1064  0.0274
   60SAPC  H10X 4678   1.778   2.501   9.141 -1.4327  2.2902 -1.2398
   60SAPC  H10Y 4679   1.611   2.525   9.094  0.3003  0.2795 -0.2827
   60SAPC  C311 4680   1.682   2.321   9.060 -0.3439  0.4654 -0.0541
   60SAPC  H11X 4681   1.589   2.260   9.056  0.0764 -0.2810  0.9435
   60SAPC  H11Y 4682   1.756   2.253   9.109 -2.2102 -1.0367  0.7955
   60SAPC  C312 4683   1.725   2.346   8.914  0.1559 -0.3530  1.1995
   60SAPC  H12X 4684   1.742   2.250   8.861  1.9008  0.5454  0.0504
   60SAPC  H12Y 4685   1.820   2.404   8.911  1.1306 -1.8702  1.6084
   60SAPC  C313 4686   1.620   2.425   8.825  0.2881  0.3771  0.1704
   60SAPC  H13X 4687   1.593   2.513   8.887  1.4366  1.0351 -0.2223
   60SAPC  H13Y 4688   1.528   2.365   8.813  0.7506 -0.6713  1.5160
   60SAPC  C314 4689   1.690   2.473   8.701 -0.6425  0.4187  0.4394
   60SAPC  H14X 4690   1.720   2.383   8.645  1.0374  2.4794 -2.2025
   60SAPC  H14Y 4691   1.780   2.532   8.729  0.7867 -1.3456 -0.3074
   60SAPC  C315 4692   1.604   2.559   8.615 -0.2212  0.0643  0.0704
   60SAPC  H15X 4693   1.578   2.648   8.676 -0.8331 -1.0630  1.5222
   60SAPC  H15Y 4694   1.516   2.504   8.576  1.2221 -0.0351 -3.4708
   60SAPC  C316 4695   1.683   2.620   8.497 -0.5556  0.6814  0.0268
   60SAPC  H16X 4696   1.606   2.670   8.434 -0.6361  0.5010 -0.0206
   60SAPC  H16Y 4697   1.728   2.537   8.438 -2.4425  0.7734 -1.6784
   60SAPC  C317 4698   1.790   2.725   8.529  0.0246 -0.2200 -0.1170
   60SAPC  H17X 4699   1.817   2.772   8.432  0.3340  1.5545  0.7742
   60SAPC  H17Y 4700   1.882   2.677   8.569  1.5733  0.9069 -2.1262
   60SAPC  C318 4701   1.727   2.840   8.608  0.2206  0.5655 -0.3704
   60SAPC  H18X 4702   1.633   2.885   8.569  0.1379  0.3876 -0.3760
   60SAPC  H18Y 4703   1.800   2.923   8.625  0.8702 -0.3545  1.6323
   60SAPC  H18Z 4704   1.698   2.817   8.713 -1.9304 -0.9912 -1.2384
   61SAPC     N 4705   3.391   2.056  11.258 -0.0207  0.3710  0.6208
   61SAPC   C12 4706   3.395   1.917  11.185 -0.0292  0.2086 -0.0469
   61SAPC  H12A 4707   3.302   1.862  11.192  1.2018 -2.3659 -2.2803
   61SAPC  H12B 4708   3.459   1.856  11.248  0.2308 -0.6032 -1.0759
   61SAPC   C13 4709   3.299   2.146  11.186  0.1141  0.7149  0.3571
   61SAPC  H13A 4710   3.199   2.106  11.181 -0.5724  2.4562 -0.4362
   61SAPC  H13B 4711   3.293   2.249  11.217  1.7860  0.5106  1.4963
   61SAPC  H13C 4712   3.334   2.146  11.084 -0.1296  2.9119  0.2283
   61SAPC   C14 4713   3.348   2.037  11.407  0.1397  0.5211  1.0396
   61SAPC  H14A 4714   3.327   2.123  11.469 -2.7648 -0.1049  1.0686
   61SAPC  H14B 4715   3.262   1.973  11.394  0.2564  0.8082 -1.7884
   61SAPC  H14C 4716   3.416   1.966  11.452 -0.0731  0.2869  0.9926
   61SAPC   C15 4717   3.531   2.115  11.264  0.5190  0.2571 -0.7952
   61SAPC  H15A 4718   3.574   2.136  11.167  2.2936  2.8994  0.4355
   61SAPC  H15B 4719   3.524   2.210  11.314  2.2516 -0.9722  1.9964
   61SAPC  H15C 4720   3.591   2.049  11.325 -2.7641 -1.8454  0.4073
   61SAPC   C11 4721   3.454   1.901  11.038 -0.1071 -0.4145 -0.0539
   61SAPC  H11A 4722   3.444   1.796  11.005 -1.7424  0.5683 -3.0688
   61SAPC  H11B 4723   3.557   1.941  11.047 -0.2445  0.4357 -1.7856
   61SAPC     P 4724   3.252   1.929  10.863  0.1777 -0.0653  0.2396
   61SAPC   O13 4725   3.276   1.783  10.842  0.1023 -0.2696  0.3042
   61SAPC   O14 4726   3.120   1.963  10.914  0.1232 -0.3765  0.6066
   61SAPC   O12 4727   3.375   1.990  10.960 -0.1635  0.1706  0.1045
   61SAPC   O11 4728   3.295   2.010  10.732 -0.0840 -0.2154 -0.4229
   61SAPC    C1 4729   3.401   1.970  10.652  0.0287 -0.9207  0.2053
   61SAPC    HA 4730   3.485   2.036  10.681  0.5593 -2.1918  1.7332
   61SAPC    HB 4731   3.429   1.862  10.658  2.4427 -0.6608 -3.3439
   61SAPC    C2 4732   3.364   1.964  10.500 -0.0259 -0.4267  0.1764
   61SAPC    HS 4733   3.454   1.948  10.437  0.3393 -0.6367  0.7435
   61SAPC   O21 4734   3.307   2.088  10.464 -0.2061 -0.1617 -0.0477
   61SAPC   C21 4735   3.389   2.188  10.447  0.0783  0.2995 -0.1383
   61SAPC   O22 4736   3.509   2.184  10.451  0.3395 -0.1390 -0.0053
   61SAPC   C22 4737   3.316   2.320  10.435  0.3858 -0.4984 -0.0404
   61SAPC   H2R 4738   3.207   2.306  10.449  0.1191 -0.8115 -2.0132
   61SAPC   H2S 4739   3.348   2.392  10.513  1.7698 -1.2759  0.1327
   61SAPC    C3 4740   3.254   1.855  10.481 -0.4039  0.0657  0.6069
   61SAPC    HX 4741   3.160   1.867  10.540 -2.1300  0.3604 -2.0276
   61SAPC    HY 4742   3.288   1.758  10.524  1.4874 -1.5201 -3.8856
   61SAPC   O31 4743   3.218   1.845  10.336 -0.1911 -0.0962 -0.5178
   61SAPC   C31 4744   3.295   1.747  10.279 -0.7180 -0.5323  0.4284
   61SAPC   O32 4745   3.373   1.678  10.339  0.3858 -0.1588 -0.3464
   61SAPC   C32 4746   3.265   1.763  10.124  0.5994 -0.6655 -0.5587
   61SAPC   H2X 4747   3.309   1.861  10.096 -0.6400  0.4221  1.1291
   61SAPC   H2Y 4748   3.155   1.755  10.114  0.5335 -0.5205  0.0290
   61SAPC   C23 4749   3.342   2.392  10.298 -0.0735  0.3947  0.0101
   61SAPC   H3R 4750   3.308   2.314  10.227  1.4950 -0.4057  0.1020
   61SAPC   H3S 4751   3.449   2.405  10.274  0.8587 -1.2785  2.7784
   61SAPC   C24 4752   3.254   2.517  10.279  0.1557 -0.6561  0.4596
   61SAPC   H4R 4753   3.278   2.593  10.355  1.8634 -1.6107  0.9393
   61SAPC   H4S 4754   3.150   2.481  10.292 -0.2497  0.3148  0.0164
   61SAPC   C25 4755   3.279   2.581  10.148 -0.5686  0.3354  0.1192
   61SAPC   H5R 4756   3.377   2.629  10.133 -0.5360  0.2601  0.0915
   61SAPC   C26 4757   3.201   2.579  10.038 -0.0567  0.7629 -0.0039
   61SAPC   H6R 4758   3.234   2.653   9.964  1.0893 -1.5662 -1.9736
   61SAPC   C27 4759   3.067   2.519  10.008 -0.3661  0.0337  0.0215
   61SAPC   H7R 4760   3.018   2.527  10.107  1.8700  1.5488  1.0889
   61SAPC   H7S 4761   3.080   2.410   9.989 -0.7286  0.0301 -0.2117
   61SAPC   C28 4762   2.978   2.573   9.894 -0.0442 -0.0065  0.0483
   61SAPC   H8R 4763   2.897   2.629   9.942 -0.2222 -0.3445  0.1443
   61SAPC   C29 4764   2.989   2.549   9.765 -0.0317 -0.0942 -0.7474
   61SAPC   H9R 4765   2.913   2.591   9.698  1.1561  0.9068 -1.5177
   61SAPC  C210 4766   3.084   2.449   9.704  0.3612  0.4409 -0.6119
   61SAPC  H10R 4767   3.020   2.372   9.657  1.5435  0.3776 -2.2071
   61SAPC  H10S 4768   3.136   2.387   9.782  0.2940 -0.9887 -1.6603
   61SAPC  C211 4769   3.187   2.502   9.608 -0.0007  0.1724  0.1294
   61SAPC  H11R 4770   3.281   2.529   9.659 -0.6443  2.6669  0.1220
   61SAPC  C212 4771   3.168   2.531   9.475 -0.6927  0.2482 -0.4262
   61SAPC  H12R 4772   3.253   2.576   9.422  2.3376  0.8183  4.3441
   61SAPC  C213 4773   3.038   2.506   9.412  0.1076  0.6709 -0.2354
   61SAPC  H13R 4774   2.957   2.554   9.472  0.5239  0.0305  0.8694
   61SAPC  H13S 4775   3.009   2.398   9.411 -1.1729  0.9947 -0.6692
   61SAPC  C214 4776   3.048   2.552   9.274 -0.1566 -0.1812  0.3225
   61SAPC  H14R 4777   3.112   2.491   9.209  1.6413 -1.0652  2.7587
   61SAPC  C215 4778   2.986   2.660   9.222 -0.0460  0.2576 -0.0793
   61SAPC  H15R 4779   2.992   2.677   9.114 -1.7179 -0.4430 -0.3175
   61SAPC  C216 4780   2.894   2.748   9.310 -0.2784  0.0361  0.4117
   61SAPC  H16R 4781   2.921   2.854   9.291  2.4479 -0.6466  0.1304
   61SAPC  H16S 4782   2.903   2.735   9.420 -2.2728 -0.5581  0.5551
   61SAPC  C217 4783   2.750   2.719   9.267 -0.9966 -0.5918 -0.4996
   61SAPC  H17R 4784   2.686   2.737   9.356  0.1174 -0.1754  0.2402
   61SAPC  H17S 4785   2.737   2.612   9.239 -0.1672 -0.7147 -0.4268
   61SAPC  C218 4786   2.711   2.818   9.153  0.7005 -0.4938 -0.4576
   61SAPC  H18R 4787   2.745   2.783   9.054  0.5806  1.8699 -1.3995
   61SAPC  H18S 4788   2.760   2.917   9.156 -2.7957  1.4025  0.2697
   61SAPC  C219 4789   2.554   2.840   9.142  0.1351 -0.5672 -0.1398
   61SAPC  H19R 4790   2.521   2.734   9.140 -0.9804 -0.2239 -1.1890
   61SAPC  H19S 4791   2.536   2.874   9.038 -1.0855 -0.0870  0.2062
   61SAPC  C220 4792   2.493   2.924   9.260  0.1008 -0.8276 -0.3490
   61SAPC  H20R 4793   2.388   2.893   9.281  0.6092 -2.3183  0.1126
   61SAPC  H20S 4794   2.490   3.033   9.241 -0.4897 -0.5120  1.3724
   61SAPC  H20T 4795   2.557   2.899   9.347 -1.5094 -1.8628  0.6013
   61SAPC   C33 4796   3.331   1.641  10.039 -0.4781 -0.4632 -0.5769
   61SAPC   H3X 4797   3.285   1.540  10.045 -0.2965 -0.5616 -0.8497
   61SAPC   H3Y 4798   3.435   1.631  10.078 -0.2447  1.3933 -0.6434
   61SAPC   C34 4799   3.325   1.683   9.890  0.1353  0.6531 -0.1749
   61SAPC   H4X 4800   3.405   1.748   9.848 -0.1695  1.7085  0.8069
   61SAPC   H4Y 4801   3.223   1.725   9.884 -1.5372 -2.8712  0.8494
   61SAPC   C35 4802   3.328   1.558   9.799 -0.4630  0.5981 -0.5214
   61SAPC   H5X 4803   3.248   1.486   9.826 -0.0353  0.4354  0.3759
   61SAPC   H5Y 4804   3.426   1.510   9.825 -0.8118  0.8186  1.3546
   61SAPC   C36 4805   3.310   1.589   9.650 -0.2159  0.1520  0.0872
   61SAPC   H6X 4806   3.381   1.668   9.617 -1.5775  0.8735 -1.2518
   61SAPC   H6Y 4807   3.209   1.628   9.625  2.0282  6.0837 -1.4636
   61SAPC   C37 4808   3.340   1.463   9.563  0.0367 -0.0163  0.4549
   61SAPC   H7X 4809   3.274   1.377   9.590  2.8293 -2.9025 -1.2574
   61SAPC   H7Y 4810   3.438   1.420   9.595  0.3904  0.6266  0.2440
   61SAPC   C38 4811   3.334   1.479   9.415  0.7377  0.1664  0.1028
   61SAPC   H8X 4812   3.401   1.555   9.371  0.5245 -0.3636 -1.2009
   61SAPC   H8Y 4813   3.230   1.505   9.384  1.0222  1.4098  0.1766
   61SAPC   C39 4814   3.361   1.346   9.347  0.4948  0.1574 -0.4161
   61SAPC   H9X 4815   3.303   1.272   9.406  3.1663 -0.4756  1.6094
   61SAPC   H9Y 4816   3.469   1.320   9.355  0.1872 -0.7636  1.0350
   61SAPC  C310 4817   3.303   1.353   9.204  0.3455 -0.2938  0.2786
   61SAPC  H10X 4818   3.336   1.441   9.145 -0.7337 -0.7869 -1.1235
   61SAPC  H10Y 4819   3.193   1.363   9.215  0.6993  2.2935  2.5139
   61SAPC  C311 4820   3.339   1.231   9.121  0.4218 -0.0436  1.0052
   61SAPC  H11X 4821   3.293   1.134   9.152  1.3430 -1.2678 -1.2156
   61SAPC  H11Y 4822   3.450   1.226   9.129  0.3693 -1.4321  1.2277
   61SAPC  C312 4823   3.303   1.252   8.974 -0.1610  0.1517  0.3285
   61SAPC  H12X 4824   3.193   1.253   8.962 -0.0984 -0.3030 -0.3001
   61SAPC  H12Y 4825   3.333   1.158   8.924 -0.8292  0.7350 -1.2256
   61SAPC  C313 4826   3.388   1.363   8.909 -0.0998 -0.3089 -0.1262
   61SAPC  H13X 4827   3.490   1.368   8.953  0.1885  1.5318 -0.9140
   61SAPC  H13Y 4828   3.336   1.461   8.921 -0.3064 -0.0760 -2.5510
   61SAPC  C314 4829   3.391   1.352   8.764 -0.0440  1.2943  0.4900
   61SAPC  H14X 4830   3.418   1.252   8.722 -0.9497  0.7508  1.1664
   61SAPC  H14Y 4831   3.463   1.430   8.731 -0.0334  1.7713  1.5904
   61SAPC  C315 4832   3.259   1.390   8.702  0.8429 -0.0930  0.2355
   61SAPC  H15X 4833   3.233   1.491   8.741 -1.5098 -0.0804 -1.1695
   61SAPC  H15Y 4834   3.185   1.312   8.730  0.2337  0.5136  0.3454
   61SAPC  C316 4835   3.265   1.406   8.544 -0.6086  0.4610  0.0109
   61SAPC  H16X 4836   3.362   1.460   8.533 -0.2623 -0.3303 -0.9657
   61SAPC  H16Y 4837   3.177   1.466   8.513  0.5706  2.9341  1.1474
   61SAPC  C317 4838   3.264   1.274   8.466  0.2344 -0.5227 -0.1647
   61SAPC  H17X 4839   3.347   1.210   8.502 -1.3424 -1.9456  1.0511
   61SAPC  H17Y 4840   3.274   1.311   8.361  0.2235 -1.9110 -0.6655
   61SAPC  C318 4841   3.136   1.190   8.466 -0.1148  0.6421  0.0143
   61SAPC  H18X 4842   3.043   1.234   8.422 -0.9573 -2.0738 -1.0893
   61SAPC  H18Y 4843   3.113   1.151   8.567  0.9353  1.9667  0.7926
   61SAPC  H18Z 4844   3.149   1.099   8.405  0.2009  0.5948  0.1553
   62SAPC     N 4845   1.406   0.803  10.836  0.3041  0.0896  0.0615
   62SAPC   C12 4846   1.462   0.859  10.705  0.1437 -0.2117 -1.1495
   62SAPC  H12A 4847   1.570   0.866  10.714  0.0079  0.4503  0.1316
   62SAPC  H12B 4848   1.413   0.951  10.679 -0.7226  0.1990  1.6976
   62SAPC   C13 4849   1.252   0.773  10.832 -0.4517 -0.2833  0.2455
   62SAPC  H13A 4850   1.204   0.862  10.795  2.0751  1.6228  1.1897
   62SAPC  H13B 4851   1.220   0.695  10.765  1.3201 -0.1917 -0.7793
   62SAPC  H13C 4852   1.215   0.756  10.933 -0.4196  0.0193  0.3082
   62SAPC   C14 4853   1.477   0.681  10.888  0.2651  0.3871 -0.3497
   62SAPC  H14A 4854   1.440   0.647  10.983  0.6054 -0.8438 -0.6345
   62SAPC  H14B 4855   1.457   0.609  10.811  1.5102  0.3236 -0.6395
   62SAPC  H14C 4856   1.583   0.699  10.903  0.3866 -0.0268 -0.7100
   62SAPC   C15 4857   1.429   0.913  10.938 -0.0036 -0.2913  0.0464
   62SAPC  H15A 4858   1.357   0.906  11.018  0.2969  3.9182  0.9305
   62SAPC  H15B 4859   1.533   0.915  10.966  0.0795 -0.6338 -0.2325
   62SAPC  H15C 4860   1.406   1.007  10.888 -1.3715 -0.8400 -0.4094
   62SAPC   C11 4861   1.438   0.773  10.580  0.2423  0.1903  0.0607
   62SAPC  H11A 4862   1.454   0.828  10.485  0.2406  0.3480  0.1517
   62SAPC  H11B 4863   1.332   0.739  10.575  0.0643  0.7919 -0.2768
   62SAPC     P 4864   1.670   0.668  10.523 -0.2242 -0.0393 -0.1262
   62SAPC   O13 4865   1.708   0.812  10.506 -0.2758 -0.5619 -0.4235
   62SAPC   O14 4866   1.761   0.589  10.603  0.0261  0.6965 -0.0127
   62SAPC   O12 4867   1.523   0.654  10.580  0.2326 -0.4156 -0.0465
   62SAPC   O11 4868   1.658   0.621  10.377  0.3218  0.1647  0.3976
   62SAPC    C1 4869   1.596   0.505  10.328 -0.1522 -0.1037  0.1935
   62SAPC    HA 4870   1.675   0.431  10.302  0.0795 -0.2971  1.3958
   62SAPC    HB 4871   1.533   0.458  10.406 -2.6371  0.5909 -1.2727
   62SAPC    C2 4872   1.509   0.534  10.204  0.1116  0.4225  0.1964
   62SAPC    HS 4873   1.472   0.442  10.154 -0.7474  1.6509 -1.5594
   62SAPC   O21 4874   1.577   0.626  10.112 -0.3221  0.0410 -0.4572
   62SAPC   C21 4875   1.674   0.572  10.045  0.3988  0.1047  0.2556
   62SAPC   O22 4876   1.712   0.454  10.056  0.6808  0.1034  0.0730
   62SAPC   C22 4877   1.731   0.677   9.945 -0.8207  0.8257 -0.4602
   62SAPC   H2R 4878   1.773   0.762  10.004  1.7571  1.1004 -2.5089
   62SAPC   H2S 4879   1.815   0.616   9.906 -1.2657 -0.0902 -0.0039
   62SAPC    C3 4880   1.375   0.593  10.255  0.2165  0.9301  0.4574
   62SAPC    HX 4881   1.402   0.692  10.298  0.7377  0.5086  1.1323
   62SAPC    HY 4882   1.335   0.531  10.338  1.4512 -0.7107 -0.1308
   62SAPC   O31 4883   1.269   0.606  10.159  0.3841  0.4766  0.5491
   62SAPC   C31 4884   1.196   0.500  10.147 -0.3098  0.7620  0.3080
   62SAPC   O32 4885   1.223   0.389  10.185 -0.4751 -0.0995  0.1902
   62SAPC   C32 4886   1.075   0.539  10.064  0.0758 -0.2014 -0.0288
   62SAPC   H2X 4887   1.115   0.587   9.972  2.6288 -0.9106  0.6213
   62SAPC   H2Y 4888   1.009   0.612  10.115 -1.2027  0.8034 -2.8803
   62SAPC   C23 4889   1.630   0.713   9.840  0.3768 -0.1360  0.0779
   62SAPC   H3R 4890   1.667   0.806   9.791  1.4912 -1.1851 -1.1321
   62SAPC   H3S 4891   1.529   0.738   9.878  0.9079  2.2631  0.0782
   62SAPC   C24 4892   1.627   0.614   9.721 -0.3281 -0.1921  0.1743
   62SAPC   H4R 4893   1.733   0.613   9.687 -0.1065 -2.4697  0.8058
   62SAPC   H4S 4894   1.571   0.663   9.638  0.4921  0.3622 -0.0605
   62SAPC   C25 4895   1.583   0.473   9.758 -1.0606 -0.7167  0.3227
   62SAPC   H5R 4896   1.667   0.407   9.782 -1.0473 -0.2644  1.5733
   62SAPC   C26 4897   1.463   0.425   9.735  0.6340  0.1072 -0.1054
   62SAPC   H6R 4898   1.444   0.328   9.784  0.5538  1.2915  2.3657
   62SAPC   C27 4899   1.341   0.490   9.671 -0.5140 -0.1318  0.8424
   62SAPC   H7R 4900   1.368   0.582   9.614 -0.3981  1.1765  2.8997
   62SAPC   H7S 4901   1.263   0.520   9.744 -0.2580  0.0083  1.0642
   62SAPC   C28 4902   1.266   0.391   9.583  0.0427  0.0974  0.0684
   62SAPC   H8R 4903   1.210   0.317   9.643  0.9217 -0.0577  0.7115
   62SAPC   C29 4904   1.238   0.400   9.450 -0.6111 -0.3049  0.4509
   62SAPC   H9R 4905   1.169   0.328   9.404  0.0683 -0.2776 -0.6257
   62SAPC  C210 4906   1.293   0.512   9.366 -0.2377 -0.2535  0.6435
   62SAPC  H10R 4907   1.401   0.492   9.350 -0.1457  0.8010 -0.2594
   62SAPC  H10S 4908   1.289   0.606   9.425 -0.6548  0.7107 -0.8468
   62SAPC  C211 4909   1.223   0.546   9.232 -0.1867  0.3775  0.0083
   62SAPC  H11R 4910   1.146   0.625   9.233 -2.6001 -1.7896 -1.9801
   62SAPC  C212 4911   1.245   0.472   9.122  0.7849 -0.2433  0.5005
   62SAPC  H12R 4912   1.180   0.497   9.036 -0.5301 -1.4914  1.0989
   62SAPC  C213 4913   1.336   0.355   9.103  0.8502  0.3244 -0.0144
   62SAPC  H13R 4914   1.291   0.275   9.040 -1.6954 -0.3213  2.4068
   62SAPC  H13S 4915   1.346   0.291   9.193  2.1568 -2.2533 -1.8550
   62SAPC  C214 4916   1.482   0.382   9.059 -1.0457 -0.5878 -0.3968
   62SAPC  H14R 4917   1.542   0.434   9.136 -0.4310  1.1066 -1.9601
   62SAPC  C215 4918   1.542   0.345   8.941 -0.5802 -0.5828 -0.6356
   62SAPC  H15R 4919   1.647   0.370   8.923 -0.0952 -0.4623  1.9123
   62SAPC  C216 4920   1.460   0.282   8.826 -1.0337  0.5547  0.1556
   62SAPC  H16R 4921   1.376   0.218   8.861 -1.2734  0.5450 -0.4266
   62SAPC  H16S 4922   1.524   0.218   8.763 -0.5573  1.1140  0.0626
   62SAPC  C217 4923   1.405   0.389   8.729 -0.0015  0.7300  0.4954
   62SAPC  H17R 4924   1.348   0.469   8.782  1.7338  1.8394  0.7627
   62SAPC  H17S 4925   1.337   0.341   8.655  0.3741  0.1707  0.5124
   62SAPC  C218 4926   1.510   0.449   8.640  0.2186  0.1012  0.1543
   62SAPC  H18R 4927   1.567   0.381   8.572  1.3360  0.6619  0.5002
   62SAPC  H18S 4928   1.591   0.488   8.705  0.8076  0.0071 -0.5038
   62SAPC  C219 4929   1.459   0.571   8.559 -0.5618 -0.2711  0.4464
   62SAPC  H19R 4930   1.366   0.534   8.510 -0.0764 -1.9440  0.7134
   62SAPC  H19S 4931   1.538   0.598   8.486 -1.1625  0.6406  0.1242
   62SAPC  C220 4932   1.407   0.692   8.642 -0.2443  0.6801  0.5747
   62SAPC  H20R 4933   1.328   0.657   8.712 -2.3114 -0.8296 -2.2694
   62SAPC  H20S 4934   1.359   0.772   8.582 -0.3712  0.2736  0.1255
   62SAPC  H20T 4935   1.493   0.741   8.691  0.3695 -0.5178  0.7511
   62SAPC   C33 4936   0.985   0.413  10.034 -1.2425  0.6347  0.2964
   62SAPC   H3X 4937   0.930   0.385  10.127 -1.6385  2.0262  0.5064
   62SAPC   H3Y 4938   1.041   0.321  10.006 -1.3485  0.1672  1.5468
   62SAPC   C34 4939   0.878   0.443   9.919  0.4499  0.5782  0.1460
   62SAPC   H4X 4940   0.797   0.509   9.955 -1.0043 -0.3236 -1.3407
   62SAPC   H4Y 4941   0.836   0.344   9.892  2.6497 -0.3694 -0.0697
   62SAPC   C35 4942   0.924   0.488   9.779 -0.0550  0.0426  0.0872
   62SAPC   H5X 4943   1.013   0.439   9.735 -0.1498  1.8056 -2.2544
   62SAPC   H5Y 4944   0.972   0.587   9.799  1.1991 -0.1608 -1.6609
   62SAPC   C36 4945   0.816   0.513   9.676 -0.3158  0.2672 -0.0753
   62SAPC   H6X 4946   0.731   0.557   9.733  0.0919  0.2785  0.5368
   62SAPC   H6Y 4947   0.801   0.416   9.624  0.5163  0.1731 -0.1593
   62SAPC   C37 4948   0.843   0.619   9.564 -0.4260 -0.3653  0.3330
   62SAPC   H7X 4949   0.940   0.599   9.515  0.3668  3.0047  0.2924
   62SAPC   H7Y 4950   0.853   0.721   9.607  1.6828  0.6421 -2.2907
   62SAPC   C38 4951   0.726   0.615   9.457  0.2061  0.4502  0.3149
   62SAPC   H8X 4952   0.633   0.666   9.489  0.7964  2.2634 -0.7310
   62SAPC   H8Y 4953   0.696   0.508   9.459  2.4766 -0.2665 -0.5862
   62SAPC   C39 4954   0.775   0.657   9.316  0.4878  0.4924  0.0008
   62SAPC   H9X 4955   0.880   0.621   9.309 -0.9655 -4.3395 -0.8536
   62SAPC   H9Y 4956   0.771   0.768   9.320 -2.2858  0.4863 -0.7684
   62SAPC  C310 4957   0.681   0.607   9.215 -0.4613  0.0041 -0.0462
   62SAPC  H10X 4958   0.579   0.647   9.235 -0.5160 -0.0644 -0.1907
   62SAPC  H10Y 4959   0.681   0.496   9.224 -0.6872 -0.0047 -0.1323
   62SAPC  C311 4960   0.719   0.655   9.075 -0.1834 -0.6987  0.5722
   62SAPC  H11X 4961   0.736   0.763   9.059 -2.0067 -0.4458  0.1098
   62SAPC  H11Y 4962   0.634   0.633   9.007  1.2266  1.4239 -2.0442
   62SAPC  C312 4963   0.837   0.589   9.007 -0.3995 -0.0664  1.1662
   62SAPC  H12X 4964   0.813   0.481   9.011 -0.7481 -0.1758 -1.9013
   62SAPC  H12Y 4965   0.933   0.617   9.056  0.9762 -3.5303  0.7372
   62SAPC  C313 4966   0.848   0.645   8.863 -0.9539 -0.3493  0.7755
   62SAPC  H13X 4967   0.855   0.754   8.846 -2.3767 -0.3658 -0.1414
   62SAPC  H13Y 4968   0.762   0.609   8.802  0.1589 -2.2570  0.2419
   62SAPC  C314 4969   0.972   0.588   8.790 -0.1737 -0.0423  0.1818
   62SAPC  H14X 4970   0.968   0.478   8.804 -0.9811 -0.1427 -0.7190
   62SAPC  H14Y 4971   1.063   0.630   8.839  0.5868 -0.0524 -1.1743
   62SAPC  C315 4972   0.967   0.617   8.637 -0.5515  0.3350  0.0916
   62SAPC  H15X 4973   1.030   0.708   8.622  2.1281 -1.1395  1.5297
   62SAPC  H15Y 4974   0.865   0.642   8.601 -1.6139  0.9448  3.2173
   62SAPC  C316 4975   1.031   0.504   8.554 -0.4154  0.3205  0.5706
   62SAPC  H16X 4976   0.965   0.417   8.576 -1.7004  0.9248 -0.6731
   62SAPC  H16Y 4977   1.134   0.475   8.584 -0.1755  0.3465 -0.2100
   62SAPC  C317 4978   1.043   0.553   8.400  0.2409 -0.1738 -0.5251
   62SAPC  H17X 4979   1.114   0.638   8.394 -0.5594  0.5655  0.1888
   62SAPC  H17Y 4980   0.941   0.586   8.371 -0.4595 -0.9291  0.9673
   62SAPC  C318 4981   1.095   0.432   8.315  0.1781 -0.2643 -0.1061
   62SAPC  H18X 4982   1.107   0.463   8.209  1.4554 -0.0310  0.0817
   62SAPC  H18Y 4983   1.016   0.355   8.323 -1.9184  1.8507  0.5949
   62SAPC  H18Z 4984   1.192   0.397   8.357 -0.1001 -0.1018  0.6960
   63SAPC     N 4985   6.457   5.759   6.405  0.3801 -0.2395  0.2342
   63SAPC   C12 4986   6.586   5.686   6.398 -0.0977  0.3514 -0.4728
   63SAPC  H12A 4987   6.561   5.581   6.397 -0.3989  0.3824  0.8074
   63SAPC  H12B 4988   6.646   5.713   6.484 -1.4728 -0.1433  0.6824
   63SAPC   C13 4989   6.471   5.915   6.409  0.0776  0.0088  0.6860
   63SAPC  H13A 4990   6.536   5.942   6.326 -1.2767  0.2820 -0.3263
   63SAPC  H13B 4991   6.373   5.960   6.402  0.6903  1.3004  0.1204
   63SAPC  H13C 4992   6.517   5.941   6.503 -0.8975 -2.5419  1.9532
   63SAPC   C14 4993   6.379   5.715   6.285  0.3646 -0.4117 -0.1329
   63SAPC  H14A 4994   6.442   5.738   6.200  0.2035 -0.2693 -0.2139
   63SAPC  H14B 4995   6.357   5.610   6.282 -1.5865 -0.0204 -0.9292
   63SAPC  H14C 4996   6.288   5.773   6.281 -0.3370 -1.4015  0.8906
   63SAPC   C15 4997   6.375   5.714   6.520  0.4029  0.2806  0.2259
   63SAPC  H15A 4998   6.285   5.772   6.529 -0.1713 -0.4533 -0.6817
   63SAPC  H15B 4999   6.338   5.613   6.510  1.2847 -0.0139 -0.2334
   63SAPC  H15C 5000   6.433   5.727   6.611  1.3378 -2.0071  0.0410
   63SAPC   C11 5001   6.684   5.705   6.274 -0.4140  0.6901 -0.0489
   63SAPC  H11A 5002   6.641   5.667   6.179  2.5193  1.3333 -1.7271
   63SAPC  H11B 5003   6.774   5.643   6.295 -1.1165 -0.4188 -0.1967
   63SAPC     P 5004   6.821   5.911   6.346  0.4091  0.0977  0.1660
   63SAPC   O13 5005   6.964   5.874   6.306  0.4301  0.4353  0.1727
   63SAPC   O14 5006   6.793   6.057   6.328 -0.1933 -0.2927 -1.0546
   63SAPC   O12 5007   6.723   5.843   6.256 -0.3667 -0.1373  0.2648
   63SAPC   O11 5008   6.782   5.865   6.491 -0.1639  0.4783  0.5344
   63SAPC    C1 5009   6.882   5.802   6.574 -0.5131  0.8440 -0.3077
   63SAPC    HA 5010   6.841   5.709   6.619  0.8368  0.9171  1.1606
   63SAPC    HB 5011   6.972   5.757   6.526 -1.8195 -1.9733 -0.3385
   63SAPC    C2 5012   6.919   5.894   6.686 -0.0752 -0.2787  0.5094
   63SAPC    HS 5013   6.992   5.850   6.757  1.6724 -2.3369 -2.3778
   63SAPC   O21 5014   6.804   5.942   6.757  0.2221 -0.4374 -0.5643
   63SAPC   C21 5015   6.761   5.860   6.856  0.9111  0.3342  0.0544
   63SAPC   O22 5016   6.807   5.748   6.864 -0.6591 -0.3093 -0.0205
   63SAPC   C22 5017   6.648   5.913   6.939  0.0114 -0.0321 -0.1393
   63SAPC   H2R 5018   6.569   5.936   6.863  0.1301  0.6910 -0.0535
   63SAPC   H2S 5019   6.622   5.840   7.018  2.1821  0.7719  1.4104
   63SAPC    C3 5020   6.991   6.026   6.631  0.9338  0.6583 -0.6065
   63SAPC    HX 5021   6.920   6.072   6.559 -0.4328 -0.6757 -0.1602
   63SAPC    HY 5022   7.078   5.972   6.586  0.3752 -0.4538 -0.3989
   63SAPC   O31 5023   7.045   6.113   6.734  0.2172  0.7952 -0.1753
   63SAPC   C31 5024   6.971   6.212   6.773 -0.0956  0.1435  0.4535
   63SAPC   O32 5025   6.858   6.245   6.726  0.2937  0.2368 -0.0963
   63SAPC   C32 5026   7.039   6.274   6.886  0.0244 -0.0842 -0.2776
   63SAPC   H2X 5027   7.136   6.312   6.848 -0.8455  0.6240 -1.8614
   63SAPC   H2Y 5028   7.071   6.194   6.956 -0.2197  1.2048  1.3662
   63SAPC   C23 5029   6.674   6.048   7.015  0.1010 -0.3119  0.4745
   63SAPC   H3R 5030   6.578   6.100   7.034  0.4627  1.3869 -1.9103
   63SAPC   H3S 5031   6.738   6.113   6.952  0.8850  0.0673  1.6390
   63SAPC   C24 5032   6.755   6.034   7.147 -0.3844  0.5028  0.2992
   63SAPC   H4R 5033   6.850   5.980   7.124 -0.4503  0.1272  0.8932
   63SAPC   H4S 5034   6.696   5.963   7.207  1.6443 -0.7549  0.9086
   63SAPC   C25 5035   6.773   6.159   7.228 -0.4286  0.8535 -0.2473
   63SAPC   H5R 5036   6.785   6.248   7.164 -1.8215  2.6445  1.8204
   63SAPC   C26 5037   6.783   6.173   7.365  0.9963  0.2441 -0.1166
   63SAPC   H6R 5038   6.784   6.279   7.394  0.7157 -0.1228  1.2934
   63SAPC   C27 5039   6.762   6.070   7.477 -0.0951  0.1257 -0.6210
   63SAPC   H7R 5040   6.793   6.113   7.574 -0.8346  0.0290 -0.3319
   63SAPC   H7S 5041   6.840   5.993   7.459  0.1339 -0.8303  3.4820
   63SAPC   C28 5042   6.622   6.015   7.492  0.1983 -0.7519  0.0125
   63SAPC   H8R 5043   6.573   6.004   7.394 -0.9699  0.0537  0.4997
   63SAPC   C29 5044   6.561   5.992   7.607 -0.1134 -0.0294 -0.0795
   63SAPC   H9R 5045   6.458   5.954   7.598 -0.7161  1.8657 -1.8580
   63SAPC  C210 5046   6.611   5.996   7.751  0.0853 -0.8522  0.1692
   63SAPC  H10R 5047   6.722   6.006   7.751 -0.0861  1.6960 -1.1045
   63SAPC  H10S 5048   6.591   5.897   7.799  0.8680 -1.9281 -1.6272
   63SAPC  C211 5049   6.556   6.112   7.833  0.0534  0.1967  0.6096
   63SAPC  H11R 5050   6.562   6.210   7.783 -0.8789 -0.0498 -0.0265
   63SAPC  C212 5051   6.488   6.098   7.953 -0.0144 -0.4834 -0.2859
   63SAPC  H12R 5052   6.445   6.182   8.008 -0.8804  0.0934 -1.7831
   63SAPC  C213 5053   6.472   5.975   8.035  0.1299  0.2136  0.0597
   63SAPC  H13R 5054   6.486   5.999   8.143 -0.9151  1.4491 -0.0497
   63SAPC  H13S 5055   6.553   5.900   8.020 -0.9757 -1.4855  2.0639
   63SAPC  C214 5056   6.330   5.919   8.005 -0.9589  0.2855  0.1040
   63SAPC  H14R 5057   6.321   5.853   7.916 -0.5763  0.2772  0.0696
   63SAPC  C215 5058   6.233   5.944   8.088  0.2173 -0.3140 -0.1231
   63SAPC  H15R 5059   6.134   5.904   8.060  0.4697 -2.4682  1.8078
   63SAPC  C216 5060   6.236   6.021   8.215  0.1283 -0.3177  0.2317
   63SAPC  H16R 5061   6.185   6.117   8.196  1.3614 -0.0742 -2.1732
   63SAPC  H16S 5062   6.336   6.051   8.252  0.9949 -0.9533 -1.4838
   63SAPC  C217 5063   6.174   5.930   8.321 -0.5101  0.3203  0.2013
   63SAPC  H17R 5064   6.068   5.899   8.308 -0.3201 -1.4114  2.2183
   63SAPC  H17S 5065   6.183   5.983   8.418  0.2087  0.0964  0.2649
   63SAPC  C218 5066   6.247   5.797   8.346  0.4718  0.2347  0.2861
   63SAPC  H18R 5067   6.352   5.825   8.372  0.4673 -0.3515  0.9635
   63SAPC  H18S 5068   6.254   5.732   8.256 -1.1581  1.3006 -0.6485
   63SAPC  C219 5069   6.187   5.712   8.457 -0.1084 -0.4337 -0.2009
   63SAPC  H19R 5070   6.078   5.694   8.449 -0.2006 -0.9087  1.7122
   63SAPC  H19S 5071   6.204   5.779   8.545  1.9968 -0.3299 -0.6279
   63SAPC  C220 5072   6.261   5.581   8.473  0.0002  0.3219  0.6192
   63SAPC  H20R 5073   6.238   5.509   8.392  0.3358  0.4194  0.4352
   63SAPC  H20S 5074   6.228   5.545   8.573 -4.1539  2.0544  0.0662
   63SAPC  H20T 5075   6.370   5.597   8.468  0.7185 -3.3230  1.8262
   63SAPC   C33 5076   6.950   6.388   6.951  0.3307  0.9174 -0.6509
   63SAPC   H3X 5077   6.853   6.344   6.981  1.4347 -1.8123 -0.7622
   63SAPC   H3Y 5078   6.939   6.472   6.878 -1.3565  1.8418  0.6014
   63SAPC   C34 5079   7.019   6.435   7.078  0.1204 -0.3615 -0.4951
   63SAPC   H4X 5080   7.126   6.464   7.065  0.0332  0.4423  0.5087
   63SAPC   H4Y 5081   7.030   6.358   7.158  3.2564  0.3378 -0.1238
   63SAPC   C35 5082   6.932   6.544   7.143  0.4423  0.0485  0.2862
   63SAPC   H5X 5083   6.826   6.509   7.146  1.0703 -1.9885  0.1583
   63SAPC   H5Y 5084   6.942   6.638   7.087  1.2614 -0.1638  0.0690
   63SAPC   C36 5085   6.964   6.563   7.296 -0.6483  0.3656 -0.2111
   63SAPC   H6X 5086   7.058   6.620   7.309 -0.8984  0.6555  0.3959
   63SAPC   H6Y 5087   6.985   6.467   7.346  2.8682  0.3304 -1.5269
   63SAPC   C37 5088   6.849   6.627   7.374  0.1001 -0.1321  0.3093
   63SAPC   H7X 5089   6.761   6.564   7.345  0.0370  0.9415 -2.0078
   63SAPC   H7Y 5090   6.844   6.728   7.328 -1.0584  0.6050  1.9527
   63SAPC   C38 5091   6.867   6.614   7.532 -0.0756  0.1615  0.5800
   63SAPC   H8X 5092   6.845   6.516   7.579 -0.4544  0.7798  1.7286
   63SAPC   H8Y 5093   6.794   6.685   7.576 -0.4945 -0.4332  0.8560
   63SAPC   C39 5094   7.008   6.665   7.569 -0.1465 -0.2891  0.2373
   63SAPC   H9X 5095   7.039   6.760   7.522  1.2407 -0.5617  0.5521
   63SAPC   H9Y 5096   7.082   6.591   7.530 -1.1976 -0.6187 -1.1970
   63SAPC  C310 5097   7.023   6.686   7.717 -0.0353  0.1448 -0.1606
   63SAPC  H10X 5098   7.133   6.687   7.736  0.8134 -2.1729 -3.9545
   63SAPC  H10Y 5099   6.981   6.598   7.771  1.6276  0.8877  2.5514
   63SAPC  C311 5100   6.941   6.801   7.766  0.4361 -0.4918 -0.3588
   63SAPC  H11X 5101   6.833   6.780   7.763  0.4934 -1.0759  0.9924
   63SAPC  H11Y 5102   6.959   6.894   7.707 -2.7060 -0.8044 -2.0186
   63SAPC  C312 5103   6.962   6.826   7.919 -0.4082  0.0805 -0.5372
   63SAPC  H12X 5104   7.066   6.866   7.920  0.2943 -1.4857 -2.9128
   63SAPC  H12Y 5105   6.945   6.733   7.977 -0.7443  0.4622 -0.0185
   63SAPC  C313 5106   6.862   6.931   7.964  0.2556 -0.0989  0.0009
   63SAPC  H13X 5107   6.762   6.903   7.926 -1.0330  3.0961  0.7605
   63SAPC  H13Y 5108   6.875   7.035   7.928 -0.4429  0.0324  0.1272
   63SAPC  C314 5109   6.849   6.924   8.117 -0.0341 -0.2088  0.3279
   63SAPC  H14X 5110   6.864   6.819   8.151 -0.0139 -0.2410  0.2197
   63SAPC  H14Y 5111   6.747   6.956   8.144 -0.1209 -0.9403  0.8849
   63SAPC  C315 5112   6.945   7.016   8.187 -0.0830  0.2677 -0.3722
   63SAPC  H15X 5113   6.901   7.025   8.289  0.2888 -0.4218 -0.1495
   63SAPC  H15Y 5114   6.943   7.120   8.147  2.1968 -0.0158 -1.3989
   63SAPC  C316 5115   7.095   6.983   8.208  0.0104 -0.4418 -0.4366
   63SAPC  H16X 5116   7.142   6.983   8.108 -2.6586  0.5238 -1.7795
   63SAPC  H16Y 5117   7.104   6.881   8.253  0.7461  0.3851  1.3759
   63SAPC  C317 5118   7.169   7.087   8.304 -0.3424  0.0542  0.0020
   63SAPC  H17X 5119   7.274   7.052   8.315  0.2204  1.6334 -0.1049
   63SAPC  H17Y 5120   7.125   7.073   8.405 -1.4233  3.0165  0.0335
   63SAPC  C318 5121   7.165   7.233   8.271 -0.2084  0.1070  0.2248
   63SAPC  H18X 5122   7.059   7.265   8.262 -0.5370 -1.1839 -0.7329
   63SAPC  H18Y 5123   7.213   7.263   8.175 -0.1037  0.5850  0.4218
   63SAPC  H18Z 5124   7.205   7.296   8.353 -1.0340  2.6305 -1.1986
   64SAPC     N 5125   2.370   0.152   5.993  0.0024 -0.0812  0.1521
   64SAPC   C12 5126   2.372   0.220   6.130 -0.2214  0.2458  0.6981
   64SAPC  H12A 5127   2.271   0.211   6.167 -0.5813 -0.8079 -0.4658
   64SAPC  H12B 5128   2.371   0.328   6.124 -2.5801  0.2989  1.1203
   64SAPC   C13 5129   2.234   0.168   5.931 -0.2674 -0.1800  0.3286
   64SAPC  H13A 5130   2.148   0.132   5.987 -0.9762 -1.9940 -1.7628
   64SAPC  H13B 5131   2.206   0.270   5.913 -3.3127 -0.7505  1.2266
   64SAPC  H13C 5132   2.237   0.126   5.831  1.4484 -0.0277  0.2915
   64SAPC   C14 5133   2.473   0.221   5.913  0.2799  0.6312 -0.1348
   64SAPC  H14A 5134   2.447   0.322   5.885 -3.7929 -0.3177 -0.3388
   64SAPC  H14B 5135   2.569   0.209   5.960  0.9740  3.2593 -0.7362
   64SAPC  H14C 5136   2.497   0.164   5.824  3.4591  0.8608  0.4651
   64SAPC   C15 5137   2.414   0.010   6.006  0.4054  0.1087 -0.5097
   64SAPC  H15A 5138   2.366  -0.041   5.924  0.3106 -2.3393  0.9851
   64SAPC  H15B 5139   2.520  -0.006   5.997  0.1680 -0.9960 -1.5194
   64SAPC  H15C 5140   2.379  -0.032   6.099  1.6895 -0.8994 -0.4567
   64SAPC   C11 5141   2.493   0.196   6.226 -0.4719  0.2171  0.2857
   64SAPC  H11A 5142   2.497   0.087   6.248 -0.5288 -0.2942 -1.9809
   64SAPC  H11B 5143   2.475   0.255   6.318  0.0976  0.2592  0.3771
   64SAPC     P 5144   2.690   0.359   6.214  0.0161 -0.9230  0.1039
   64SAPC   O13 5145   2.784   0.392   6.114 -0.1477 -0.2934 -0.0203
   64SAPC   O14 5146   2.581   0.460   6.235  0.0300  0.5032  0.5202
   64SAPC   O12 5147   2.617   0.230   6.160 -0.1295 -0.1758 -0.8109
   64SAPC   O11 5148   2.763   0.310   6.351 -0.4926  0.3610  0.0138
   64SAPC    C1 5149   2.718   0.205   6.444 -0.0972 -0.2312 -0.1128
   64SAPC    HA 5150   2.619   0.231   6.488 -1.1296 -1.3645 -1.6571
   64SAPC    HB 5151   2.703   0.112   6.385  0.7851 -1.0943  0.9806
   64SAPC    C2 5152   2.821   0.195   6.546 -0.4070  0.0762 -0.7637
   64SAPC    HS 5153   2.786   0.114   6.614  0.2040 -0.0155 -0.5498
   64SAPC   O21 5154   2.845   0.314   6.616  0.2019  0.3375 -0.3827
   64SAPC   C21 5155   2.765   0.337   6.715  0.0184  0.1509  0.1152
   64SAPC   O22 5156   2.682   0.262   6.761  0.3708  0.2849 -0.5315
   64SAPC   C22 5157   2.787   0.470   6.780 -0.0561  0.2051 -0.2773
   64SAPC   H2R 5158   2.872   0.527   6.735  0.6115  0.8923  1.7401
   64SAPC   H2S 5159   2.704   0.534   6.744 -0.9192 -1.3906 -1.2409
   64SAPC    C3 5160   2.952   0.138   6.487 -0.4677 -0.0934 -0.7682
   64SAPC    HX 5161   2.998   0.217   6.424 -0.1609  0.9275  0.6993
   64SAPC    HY 5162   2.941   0.044   6.429 -0.4650 -1.4923  1.3800
   64SAPC   O31 5163   3.038   0.105   6.598  0.2058 -0.2098  0.3142
   64SAPC   C31 5164   3.163   0.123   6.590 -0.2755  0.1905  0.0904
   64SAPC   O32 5165   3.232   0.170   6.500  0.0906 -0.4591  0.5859
   64SAPC   C32 5166   3.227   0.065   6.713 -0.1735  0.3591 -0.0417
   64SAPC   H2X 5167   3.303  -0.005   6.673 -1.8745  0.3670 -3.6470
   64SAPC   H2Y 5168   3.160   0.001   6.774  0.5982  0.2896  0.7542
   64SAPC   C23 5169   2.793   0.454   6.938 -0.3253  0.1749 -0.3501
   64SAPC   H3R 5170   2.851   0.540   6.975 -2.1862  1.3408  0.0065
   64SAPC   H3S 5171   2.840   0.357   6.965  1.4075  0.9862 -0.3431
   64SAPC   C24 5172   2.658   0.447   7.022 -0.1688  0.5097 -0.1490
   64SAPC   H4R 5173   2.603   0.358   6.983 -0.6820  0.3509  0.9085
   64SAPC   H4S 5174   2.601   0.540   7.003 -0.4700  0.3993  0.2121
   64SAPC   C25 5175   2.682   0.445   7.172  0.1864 -0.3737  1.0353
   64SAPC   H5R 5176   2.764   0.513   7.200 -0.3033  0.2177  1.0679
   64SAPC   C26 5177   2.619   0.371   7.268 -0.1885 -0.2779  0.2662
   64SAPC   H6R 5178   2.651   0.381   7.373  1.3190  0.0373 -0.1867
   64SAPC   C27 5179   2.519   0.262   7.250  0.3076  0.5145  0.3315
   64SAPC   H7R 5180   2.537   0.187   7.331  2.0891 -0.4329 -0.8758
   64SAPC   H7S 5181   2.537   0.217   7.151  0.6927  2.4613 -0.5289
   64SAPC   C28 5182   2.375   0.318   7.262 -1.1104 -0.4968 -0.0435
   64SAPC   H8R 5183   2.358   0.392   7.181  1.5067 -1.0641 -1.1918
   64SAPC   C29 5184   2.277   0.290   7.355  0.0943 -0.9893  0.0700
   64SAPC   H9R 5185   2.175   0.330   7.352  0.6198  0.3810 -0.4652
   64SAPC  C210 5186   2.294   0.194   7.470 -0.2558  0.0617 -0.3085
   64SAPC  H10R 5187   2.385   0.134   7.449 -0.0359  0.4093 -0.3512
   64SAPC  H10S 5188   2.211   0.122   7.455  1.9457 -2.2392 -2.3322
   64SAPC  C211 5189   2.289   0.247   7.608 -0.1392 -0.1165 -0.1841
   64SAPC  H11R 5190   2.245   0.348   7.615 -3.4073 -1.5121  1.1847
   64SAPC  C212 5191   2.312   0.168   7.717 -0.1799  0.2456  0.3333
   64SAPC  H12R 5192   2.304   0.216   7.815 -2.7733  2.0090 -0.6507
   64SAPC  C213 5193   2.355   0.022   7.714 -0.8066 -0.0858  0.0491
   64SAPC  H13R 5194   2.313  -0.043   7.635  0.9802 -0.5561 -0.5745
   64SAPC  H13S 5195   2.333  -0.025   7.812  1.7441 -1.2192  0.1552
   64SAPC  C214 5196   2.506   0.028   7.686  0.4456 -0.1577 -0.3510
   64SAPC  H14R 5197   2.516   0.036   7.577 -2.0974 -0.4658 -0.6627
   64SAPC  C215 5198   2.615   0.014   7.764  0.0634 -0.8609 -0.5112
   64SAPC  H15R 5199   2.716   0.018   7.721  0.3835  1.0077  0.3050
   64SAPC  C216 5200   2.616   0.005   7.915 -0.2127 -0.5513 -0.6611
   64SAPC  H16R 5201   2.516   0.011   7.962  1.1367 -1.8129  2.6996
   64SAPC  H16S 5202   2.665   0.092   7.965 -1.2055 -0.8152  0.8392
   64SAPC  C217 5203   2.677  -0.132   7.968 -0.5937 -0.6006  0.6752
   64SAPC  H17R 5204   2.725  -0.119   8.067 -2.0656 -1.6676  1.5685
   64SAPC  H17S 5205   2.754  -0.155   7.891  2.1838  1.8337  2.5393
   64SAPC  C218 5206   2.569  -0.245   7.977  0.1678 -0.3877 -0.2581
   64SAPC  H18R 5207   2.629  -0.338   7.971  1.3424  0.3289  0.0246
   64SAPC  H18S 5208   2.486  -0.245   7.902 -1.8217  0.2808  1.8266
   64SAPC  C219 5209   2.502  -0.244   8.115  0.0205  0.4174 -0.1257
   64SAPC  H19R 5210   2.423  -0.166   8.111 -0.4600 -0.0156  0.4912
   64SAPC  H19S 5211   2.577  -0.218   8.193 -0.0746  0.6168 -0.1017
   64SAPC  C220 5212   2.432  -0.382   8.146  0.1370 -0.2373  0.0373
   64SAPC  H20R 5213   2.328  -0.375   8.185 -0.4186 -2.0928 -0.9944
   64SAPC  H20S 5214   2.498  -0.447   8.209 -0.3540 -0.6508  0.1333
   64SAPC  H20T 5215   2.422  -0.432   8.047  1.8341 -3.2755  1.2380
   64SAPC   C33 5216   3.270   0.175   6.807  0.6336 -0.2632  0.3011
   64SAPC   H3X 5217   3.321   0.256   6.751 -1.0771  0.8743  0.3437
   64SAPC   H3Y 5218   3.340   0.127   6.879  0.6631 -3.4969 -1.6359
   64SAPC   C34 5219   3.146   0.240   6.876 -0.3314  0.4848 -0.1104
   64SAPC   H4X 5220   3.076   0.167   6.922  0.6010 -1.9615 -2.3657
   64SAPC   H4Y 5221   3.098   0.307   6.801 -1.0380 -0.0320 -0.1252
   64SAPC   C35 5222   3.191   0.343   6.982 -0.3183 -0.0236  0.4018
   64SAPC   H5X 5223   3.104   0.394   7.030 -0.0102 -1.4756  2.6372
   64SAPC   H5Y 5224   3.243   0.428   6.932  0.4951 -1.2298 -0.8798
   64SAPC   C36 5225   3.265   0.288   7.110  0.0414 -0.6944  0.4915
   64SAPC   H6X 5226   3.261   0.180   7.085  0.6072 -0.8700  1.1363
   64SAPC   H6Y 5227   3.192   0.309   7.191 -1.3438 -0.0299 -0.8897
   64SAPC   C37 5228   3.409   0.346   7.135  0.9076  0.3098  0.2878
   64SAPC   H7X 5229   3.391   0.455   7.120  0.5235  0.0725 -1.1399
   64SAPC   H7Y 5230   3.483   0.309   7.060  0.4282  0.1558 -0.1142
   64SAPC   C38 5231   3.464   0.327   7.279  0.4755 -0.5325 -0.8478
   64SAPC   H8X 5232   3.409   0.391   7.351  0.6602  0.4313 -1.5358
   64SAPC   H8Y 5233   3.570   0.360   7.282 -0.0878  1.2976  0.2695
   64SAPC   C39 5234   3.456   0.185   7.333 -0.0382  0.3930 -0.4579
   64SAPC   H9X 5235   3.535   0.135   7.273  1.6199  1.4586  0.7241
   64SAPC   H9Y 5236   3.358   0.137   7.317 -0.9049  1.7676  0.4635
   64SAPC  C310 5237   3.511   0.173   7.483  0.5053 -0.1390 -0.1018
   64SAPC  H10X 5238   3.614   0.216   7.486  1.3396 -2.0271 -0.1374
   64SAPC  H10Y 5239   3.523   0.063   7.498 -0.7581 -0.1218  1.2659
   64SAPC  C311 5240   3.434   0.225   7.602  0.5931 -0.2473 -0.2940
   64SAPC  H11X 5241   3.339   0.169   7.616  1.2352 -1.2419  0.2510
   64SAPC  H11Y 5242   3.417   0.332   7.580  1.6791 -0.2756 -1.4420
   64SAPC  C312 5243   3.505   0.203   7.739  0.4351 -0.1163  0.2539
   64SAPC  H12X 5244   3.459   0.284   7.801 -1.1791  0.7244 -1.9004
   64SAPC  H12Y 5245   3.612   0.230   7.722 -0.1087  1.4910 -0.8572
   64SAPC  C313 5246   3.491   0.060   7.803 -0.3299  0.1681  0.7919
   64SAPC  H13X 5247   3.555  -0.010   7.744  0.4939  2.1806 -0.8764
   64SAPC  H13Y 5248   3.388   0.023   7.787 -0.6484  0.6425  1.7161
   64SAPC  C314 5249   3.536   0.054   7.950  0.3272 -0.3139  0.2709
   64SAPC  H14X 5250   3.474   0.132   7.999  0.0695  1.1043 -2.1190
   64SAPC  H14Y 5251   3.638   0.098   7.948  0.2305 -0.0424 -2.4277
   64SAPC  C315 5252   3.512  -0.083   8.005 -0.4243  0.1040  0.4337
   64SAPC  H15X 5253   3.562  -0.157   7.940 -0.6369 -1.1620  1.6769
   64SAPC  H15Y 5254   3.405  -0.110   8.017  0.1823 -1.8909  1.7661
   64SAPC  C316 5255   3.575  -0.111   8.140 -0.1155 -0.1111  0.1552
   64SAPC  H16X 5256   3.679  -0.147   8.130  0.0823 -0.5436  3.1256
   64SAPC  H16Y 5257   3.523  -0.189   8.200  1.3415 -0.1878  1.3822
   64SAPC  C317 5258   3.595   0.019   8.218  0.0800 -0.1206  0.5294
   64SAPC  H17X 5259   3.499   0.074   8.210  0.9330  1.1317 -2.5182
   64SAPC  H17Y 5260   3.681   0.069   8.169 -0.8001  1.4880  0.5716
   64SAPC  C318 5261   3.640  -0.003   8.362 -0.5789 -0.2704 -0.4670
   64SAPC  H18X 5262   3.735  -0.061   8.360  0.0405  0.7310 -2.7914
   64SAPC  H18Y 5263   3.561  -0.057   8.418 -1.9501  1.4383 -0.6354
   64SAPC  H18Z 5264   3.657   0.096   8.411 -0.0327 -0.8361  0.5179
   65SAPC     N 5265   2.297   1.294   5.915 -0.2762 -0.4038 -0.3382
   65SAPC   C12 5266   2.221   1.424   5.915 -0.4957 -0.2064 -0.4290
   65SAPC  H12A 5267   2.124   1.415   5.961 -0.3187  2.3074  0.6115
   65SAPC  H12B 5268   2.200   1.443   5.811 -1.7512  0.0741 -0.1391
   65SAPC   C13 5269   2.360   1.278   6.043  0.0803  0.9471 -0.3289
   65SAPC  H13A 5270   2.444   1.211   6.049 -0.3439  0.2553 -1.5402
   65SAPC  H13B 5271   2.391   1.376   6.075  2.4468  0.5060 -1.1162
   65SAPC  H13C 5272   2.286   1.240   6.112  0.3663  0.8567 -0.0727
   65SAPC   C14 5273   2.210   1.178   5.883 -0.3004  0.2873  0.5915
   65SAPC  H14A 5274   2.254   1.087   5.921  1.3304 -0.2076 -2.2419
   65SAPC  H14B 5275   2.118   1.183   5.940  0.1569 -0.8642  1.4533
   65SAPC  H14C 5276   2.197   1.173   5.776  1.9705  4.2339 -0.0565
   65SAPC   C15 5277   2.397   1.294   5.803 -0.4380 -0.2127 -0.9919
   65SAPC  H15A 5278   2.359   1.309   5.703 -1.9437 -2.3947 -0.8228
   65SAPC  H15B 5279   2.467   1.375   5.813 -2.8494  1.9269 -0.4529
   65SAPC  H15C 5280   2.447   1.198   5.803 -0.5980 -0.3044 -0.2466
   65SAPC   C11 5281   2.293   1.553   5.968  0.0765 -0.7121  0.0317
   65SAPC  H11A 5282   2.231   1.638   5.931  0.1332 -0.2937  0.8866
   65SAPC  H11B 5283   2.393   1.557   5.921  0.6610  0.6835  1.3017
   65SAPC     P 5284   2.386   1.654   6.172  0.2476  0.0198  0.7704
   65SAPC   O13 5285   2.516   1.644   6.104  0.0567 -0.5895  0.1107
   65SAPC   O14 5286   2.326   1.791   6.175 -0.2569  0.2717 -0.4045
   65SAPC   O12 5287   2.288   1.555   6.109  0.2222  0.2395 -0.0043
   65SAPC   O11 5288   2.401   1.590   6.315 -0.7460  0.1585  0.0760
   65SAPC    C1 5289   2.295   1.533   6.384 -0.0258  0.4767  0.3905
   65SAPC    HA 5290   2.201   1.586   6.359 -0.4320 -0.4262 -0.0639
   65SAPC    HB 5291   2.283   1.428   6.350  1.1643  0.8083 -1.1476
   65SAPC    C2 5292   2.318   1.533   6.534 -0.5104 -0.4207  0.6282
   65SAPC    HS 5293   2.247   1.463   6.583 -2.2449  1.2726  0.6504
   65SAPC   O21 5294   2.297   1.668   6.592  0.3832 -0.1538  0.1094
   65SAPC   C21 5295   2.173   1.689   6.638  0.4028 -0.1128 -0.8159
   65SAPC   O22 5296   2.081   1.612   6.615  0.5547 -0.0195  0.2011
   65SAPC   C22 5297   2.161   1.814   6.723 -0.4402 -0.5810 -0.2293
   65SAPC   H2R 5298   2.260   1.823   6.773 -0.8222 -1.7435  0.7863
   65SAPC   H2S 5299   2.159   1.902   6.656  2.5106 -0.0249  0.2472
   65SAPC    C3 5300   2.462   1.492   6.569 -0.2617 -0.3820 -0.2780
   65SAPC    HX 5301   2.524   1.577   6.534 -1.5503  1.3404  1.4391
   65SAPC    HY 5302   2.486   1.404   6.506  1.5653 -0.5180  0.5592
   65SAPC   O31 5303   2.475   1.460   6.711 -0.0424 -0.0688 -0.4091
   65SAPC   C31 5304   2.590   1.394   6.737  0.0541  1.3547  0.0055
   65SAPC   O32 5305   2.686   1.379   6.659 -0.0262 -0.0951 -0.0035
   65SAPC   C32 5306   2.579   1.330   6.873 -0.3412  0.0454 -0.7451
   65SAPC   H2X 5307   2.534   1.229   6.860 -0.7145  0.1988 -0.6623
   65SAPC   H2Y 5308   2.521   1.390   6.946  0.7322 -1.0323  1.0537
   65SAPC   C23 5309   2.043   1.819   6.826 -0.0132  0.3933  0.4506
   65SAPC   H3R 5310   1.950   1.772   6.788  0.1086 -0.2614  0.9317
   65SAPC   H3S 5311   2.024   1.928   6.837 -0.1054  0.4148  0.0839
   65SAPC   C24 5312   2.084   1.749   6.958  0.0974 -0.0777  0.3393
   65SAPC   H4R 5313   2.187   1.769   6.995  0.7879 -1.9277 -0.4529
   65SAPC   H4S 5314   2.081   1.642   6.928 -0.3820  0.0973 -0.2394
   65SAPC   C25 5315   1.981   1.784   7.057 -0.0575  0.5648  0.3287
   65SAPC   H5R 5316   1.887   1.818   7.012 -0.4350 -0.1973  0.5224
   65SAPC   C26 5317   1.993   1.777   7.188 -0.0492  0.2316  0.5367
   65SAPC   H6R 5318   1.903   1.794   7.249 -0.1900  2.2377 -0.1607
   65SAPC   C27 5319   2.101   1.735   7.281 -0.0331 -0.7937  0.6943
   65SAPC   H7R 5320   2.188   1.707   7.217  0.1981  1.5824 -0.1156
   65SAPC   H7S 5321   2.074   1.650   7.347  1.3156 -0.7040  1.3994
   65SAPC   C28 5322   2.141   1.843   7.386  0.3896 -0.2550  0.1643
   65SAPC   H8R 5323   2.079   1.932   7.399 -0.8324 -1.0987  0.2903
   65SAPC   C29 5324   2.252   1.841   7.462 -0.7853 -0.0996 -0.2359
   65SAPC   H9R 5325   2.265   1.936   7.516 -1.2530 -0.5269  0.6561
   65SAPC  C210 5326   2.362   1.739   7.473  0.7129  0.0374  0.6017
   65SAPC  H10R 5327   2.461   1.787   7.488  1.1353  0.4818 -2.8237
   65SAPC  H10S 5328   2.374   1.693   7.372  1.4749 -0.3659  0.8690
   65SAPC  C211 5329   2.321   1.638   7.576  0.1068  0.6537 -0.6941
   65SAPC  H11R 5330   2.241   1.572   7.542 -0.9442  3.0351 -3.2010
   65SAPC  C212 5331   2.368   1.632   7.704  0.4276 -0.4150 -0.2214
   65SAPC  H12R 5332   2.322   1.561   7.775 -2.7426  2.7420  1.2299
   65SAPC  C213 5333   2.471   1.726   7.769 -0.4156 -0.0106  0.1733
   65SAPC  H13R 5334   2.526   1.783   7.691  0.2051  0.4486  0.9464
   65SAPC  H13S 5335   2.539   1.666   7.833 -0.6358  0.7820  1.1724
   65SAPC  C214 5336   2.414   1.827   7.859  0.1819 -0.5723 -0.1826
   65SAPC  H14R 5337   2.345   1.897   7.809  0.1568  1.4069  2.4223
   65SAPC  C215 5338   2.438   1.835   7.997  0.5824 -0.2369  0.5039
   65SAPC  H15R 5339   2.380   1.908   8.055 -0.3251 -0.7676  0.2950
   65SAPC  C216 5340   2.530   1.751   8.087 -0.5579  0.0234 -0.1837
   65SAPC  H16R 5341   2.527   1.644   8.059  0.9859 -0.1144  0.0455
   65SAPC  H16S 5342   2.502   1.748   8.194  0.7262  1.2373  0.2230
   65SAPC  C217 5343   2.662   1.833   8.092 -0.2742  0.0344 -0.1854
   65SAPC  H17R 5344   2.699   1.820   7.988 -1.0412 -1.3308 -0.3101
   65SAPC  H17S 5345   2.726   1.775   8.162  1.5074 -0.5110 -2.1259
   65SAPC  C218 5346   2.653   1.980   8.138  0.1554 -0.3004 -0.1944
   65SAPC  H18R 5347   2.612   1.989   8.241  2.0913 -1.1233  0.6829
   65SAPC  H18S 5348   2.581   2.037   8.075  0.3201  0.6085  0.4188
   65SAPC  C219 5349   2.786   2.061   8.150  0.1628 -0.4922 -0.7898
   65SAPC  H19R 5350   2.846   2.046   8.058  2.2960 -1.3020  0.6598
   65SAPC  H19S 5351   2.846   2.016   8.233 -1.9907 -0.0764  1.1201
   65SAPC  C220 5352   2.766   2.210   8.180  0.4552 -0.2174 -0.7580
   65SAPC  H20R 5353   2.723   2.257   8.089  0.0224  3.7583  1.3089
   65SAPC  H20S 5354   2.859   2.264   8.206  0.8792 -0.6213 -1.4093
   65SAPC  H20T 5355   2.695   2.215   8.265 -0.4610  0.1523 -1.5243
   65SAPC   C33 5356   2.720   1.311   6.948  0.4163  0.1061 -0.3801
   65SAPC   H3X 5357   2.775   1.408   6.950 -2.1896  1.6781 -0.8134
   65SAPC   H3Y 5358   2.777   1.244   6.879  0.0495 -0.1006 -0.4842
   65SAPC   C34 5359   2.709   1.248   7.084 -0.1928 -0.1012 -0.7295
   65SAPC   H4X 5360   2.634   1.168   7.064  0.8192 -0.8087 -1.8160
   65SAPC   H4Y 5361   2.659   1.311   7.161  0.6610 -1.8414  1.3515
   65SAPC   C35 5362   2.841   1.195   7.140  0.3418 -0.0319  0.5925
   65SAPC   H5X 5363   2.919   1.265   7.103 -0.0725 -0.8714 -2.0690
   65SAPC   H5Y 5364   2.852   1.091   7.104 -0.8870  0.3344 -0.9115
   65SAPC   C36 5365   2.838   1.209   7.295  0.5308 -0.3854 -0.0108
   65SAPC   H6X 5366   2.738   1.222   7.340  0.3146  0.4908 -0.7106
   65SAPC   H6Y 5367   2.896   1.298   7.328  1.5382 -0.2564 -1.9860
   65SAPC   C37 5368   2.877   1.080   7.361 -0.3486 -0.0195 -0.1169
   65SAPC   H7X 5369   2.978   1.049   7.325  0.4804  0.0044  2.0113
   65SAPC   H7Y 5370   2.799   1.004   7.342 -0.7383  0.0703  1.0589
   65SAPC   C38 5371   2.885   1.106   7.515 -0.3470  0.2187 -0.3913
   65SAPC   H8X 5372   2.796   1.160   7.552 -0.7425 -0.2019 -0.7178
   65SAPC   H8Y 5373   2.975   1.162   7.550 -0.0046  0.6790 -1.9115
   65SAPC   C39 5374   2.892   0.967   7.578 -0.0906 -0.3936  0.1951
   65SAPC   H9X 5375   2.980   0.912   7.538 -1.2153 -2.0534 -0.1039
   65SAPC   H9Y 5376   2.805   0.901   7.554 -0.7267  0.5002 -0.0148
   65SAPC  C310 5377   2.894   0.970   7.728 -0.2276  0.2366  0.2931
   65SAPC  H10X 5378   2.813   1.038   7.762 -1.0304  0.7428 -2.4255
   65SAPC  H10Y 5379   2.995   0.999   7.764 -0.1951 -0.6198  0.9369
   65SAPC  C311 5380   2.873   0.823   7.789 -0.1204 -0.0673  0.9723
   65SAPC  H11X 5381   2.928   0.753   7.722 -3.5011  0.5933 -2.8786
   65SAPC  H11Y 5382   2.769   0.801   7.759  0.1180  1.3284 -1.0579
   65SAPC  C312 5383   2.898   0.801   7.937 -0.1639 -0.0030  0.5646
   65SAPC  H12X 5384   2.856   0.898   7.971 -1.6991  1.0418 -3.6885
   65SAPC  H12Y 5385   3.006   0.787   7.961  0.2774 -2.5806 -2.2806
   65SAPC  C313 5386   2.810   0.693   7.998  0.0684  0.7567  0.2488
   65SAPC  H13X 5387   2.795   0.613   7.923  1.2755  0.8761 -0.1327
   65SAPC  H13Y 5388   2.707   0.733   8.010 -0.0927  0.8020 -1.1446
   65SAPC  C314 5389   2.846   0.633   8.129 -0.1347  0.3846  0.1211
   65SAPC  H14X 5390   2.833   0.703   8.214 -0.1161 -2.0946  2.2984
   65SAPC  H14Y 5391   2.947   0.587   8.129 -1.2156 -2.1115 -0.1218
   65SAPC  C315 5392   2.746   0.520   8.164 -0.1457  0.8038  0.5463
   65SAPC  H15X 5393   2.756   0.438   8.090  0.4115  0.3195  1.1425
   65SAPC  H15Y 5394   2.647   0.569   8.155 -0.7136 -0.4981 -0.6463
   65SAPC  C316 5395   2.756   0.452   8.301  0.3547 -0.3845 -0.2380
   65SAPC  H16X 5396   2.667   0.387   8.308  0.5375 -0.7434 -1.0677
   65SAPC  H16Y 5397   2.742   0.527   8.381 -0.4113 -0.5968 -0.1688
   65SAPC  C317 5398   2.887   0.366   8.328 -0.0310 -0.3017  0.4040
   65SAPC  H17X 5399   2.962   0.437   8.368  0.4426 -0.4233 -0.2555
   65SAPC  H17Y 5400   2.933   0.328   8.234 -0.3762 -2.3120  1.0028
   65SAPC  C318 5401   2.855   0.236   8.401 -0.0401  0.3114  0.7157
   65SAPC  H18X 5402   2.952   0.182   8.407 -0.9827 -1.5354 -0.0024
   65SAPC  H18Y 5403   2.785   0.161   8.358  2.2800 -1.2008 -0.6800
   65SAPC  H18Z 5404   2.830   0.253   8.508  0.1258 -0.8398  0.9508
   66SAPC     N 5405   6.755   6.633   6.015 -0.5491  0.5992 -0.1816
   66SAPC   C12 5406   6.806   6.733   6.122  0.4275  0.3102 -0.1226
   66SAPC  H12A 5407   6.728   6.758   6.192  0.5833 -0.4849  0.3485
   66SAPC  H12B 5408   6.844   6.824   6.077  2.0180  0.3645  1.2187
   66SAPC   C13 5409   6.699   6.516   6.087  0.5802 -0.7149  0.3267
   66SAPC  H13A 5410   6.628   6.464   6.024 -0.2002  1.2215 -0.4792
   66SAPC  H13B 5411   6.769   6.444   6.127 -0.9146 -2.6049 -0.2825
   66SAPC  H13C 5412   6.636   6.550   6.168 -0.9478 -0.8846 -0.7405
   66SAPC   C14 5413   6.651   6.709   5.950  0.2813  0.7048 -0.0378
   66SAPC  H14A 5414   6.693   6.790   5.892  1.5276 -0.4028 -0.7145
   66SAPC  H14B 5415   6.601   6.648   5.877  0.5653 -1.3968  1.4511
   66SAPC  H14C 5416   6.589   6.756   6.025 -0.0083  1.5918 -0.8157
   66SAPC   C15 5417   6.851   6.579   5.908 -0.1104 -0.3908 -0.2118
   66SAPC  H15A 5418   6.905   6.665   5.871  0.1802  0.6158  2.3257
   66SAPC  H15B 5419   6.934   6.523   5.950  1.0081  1.2277 -0.1836
   66SAPC  H15C 5420   6.806   6.517   5.832 -3.3566  1.7483 -0.2310
   66SAPC   C11 5421   6.928   6.688   6.215  0.0707 -0.1681 -0.1944
   66SAPC  H11A 5422   6.895   6.600   6.274 -2.5310  0.6880 -0.2608
   66SAPC  H11B 5423   6.955   6.767   6.287  2.5240 -1.0696 -0.0419
   66SAPC     P 5424   7.128   6.759   6.068 -0.3281 -0.0534  0.0916
   66SAPC   O13 5425   7.240   6.684   6.000 -0.1554  0.1886 -0.0187
   66SAPC   O14 5426   7.030   6.827   5.981 -0.2289 -0.5917  0.5181
   66SAPC   O12 5427   7.044   6.649   6.141 -0.2466  0.2825  0.1131
   66SAPC   O11 5428   7.180   6.839   6.192 -0.0741 -0.3471  0.2813
   66SAPC    C1 5429   7.272   6.778   6.285  0.4321  0.0417  0.6795
   66SAPC    HA 5430   7.226   6.680   6.311 -1.5289  1.3413  2.5058
   66SAPC    HB 5431   7.372   6.756   6.241  1.2000  0.7060  2.0298
   66SAPC    C2 5432   7.300   6.865   6.411  0.1063 -0.1696  0.0806
   66SAPC    HS 5433   7.209   6.863   6.475  0.7640  0.3720  1.0412
   66SAPC   O21 5434   7.328   7.004   6.383 -0.1162  0.0240 -0.6401
   66SAPC   C21 5435   7.287   7.093   6.477 -0.5383  0.5503 -0.1856
   66SAPC   O22 5436   7.224   7.067   6.577  0.3124  0.3575 -0.0453
   66SAPC   C22 5437   7.329   7.231   6.441 -0.7172  0.0434 -0.3906
   66SAPC   H2R 5438   7.418   7.225   6.375  0.7817  2.5390  1.2344
   66SAPC   H2S 5439   7.252   7.278   6.376 -1.2273 -0.1193  0.0928
   66SAPC    C3 5440   7.418   6.810   6.489  0.1548 -0.2379 -0.0202
   66SAPC    HX 5441   7.512   6.833   6.433  1.6395 -0.2870  2.3123
   66SAPC    HY 5442   7.407   6.699   6.489 -0.5183 -0.1747  0.0056
   66SAPC   O31 5443   7.437   6.878   6.613  0.0503 -0.5036  0.1988
   66SAPC   C31 5444   7.366   6.819   6.709  0.1804  0.9535  0.3577
   66SAPC   O32 5445   7.278   6.735   6.687 -0.2883 -0.2578  0.3616
   66SAPC   C32 5446   7.398   6.877   6.851  0.1923 -0.3064 -0.1995
   66SAPC   H2X 5447   7.344   6.974   6.856  3.8380  1.8914 -0.0224
   66SAPC   H2Y 5448   7.507   6.895   6.854  0.2737 -0.6059 -1.0826
   66SAPC   C23 5449   7.359   7.313   6.561  0.1425 -0.2737 -0.6091
   66SAPC   H3R 5450   7.313   7.282   6.657  1.4914  1.9075  0.8381
   66SAPC   H3S 5451   7.323   7.418   6.544 -3.8055 -1.4754 -0.8058
   66SAPC   C24 5452   7.508   7.335   6.580  0.1883  0.7352  0.3395
   66SAPC   H4R 5453   7.518   7.412   6.660  2.6232  2.3737 -1.3961
   66SAPC   H4S 5454   7.554   7.372   6.486 -1.8871 -0.7118 -1.3394
   66SAPC   C25 5455   7.571   7.205   6.617 -0.5812 -0.5633 -0.4382
   66SAPC   H5R 5456   7.495   7.136   6.658  0.2332 -2.3833 -1.8689
   66SAPC   C26 5457   7.697   7.157   6.620 -0.0025  0.0184  0.2376
   66SAPC   H6R 5458   7.707   7.053   6.653 -1.0807 -0.2696 -0.2835
   66SAPC   C27 5459   7.817   7.242   6.576 -0.0479  0.1595 -0.1170
   66SAPC   H7R 5460   7.852   7.275   6.677  1.0739  0.9649 -0.7531
   66SAPC   H7S 5461   7.790   7.342   6.537  2.8764  1.4127  0.7444
   66SAPC   C28 5462   7.928   7.176   6.498  1.1625 -0.2618  0.4482
   66SAPC   H8R 5463   7.926   7.212   6.394  0.2757 -1.0647  0.1721
   66SAPC   C29 5464   8.031   7.111   6.542  0.2958  0.1420  0.6570
   66SAPC   H9R 5465   8.097   7.061   6.470 -0.5440  0.5489 -0.4188
   66SAPC  C210 5466   8.068   7.083   6.689 -0.0782  0.2644  0.7447
   66SAPC  H10R 5467   8.070   6.973   6.704 -0.1066  0.0033 -0.9868
   66SAPC  H10S 5468   7.980   7.112   6.751 -3.6239 -2.4470 -2.5257
   66SAPC  C211 5469   8.197   7.146   6.735  0.3488 -0.0138 -0.6201
   66SAPC  H11R 5470   8.271   7.171   6.658 -0.4208 -0.0022 -1.3759
   66SAPC  C212 5471   8.219   7.190   6.858 -0.6252  0.4545 -0.6848
   66SAPC  H12R 5472   8.314   7.243   6.875  1.2167 -2.6856 -0.4321
   66SAPC  C213 5473   8.121   7.190   6.967 -0.5406  0.0591 -0.0320
   66SAPC  H13R 5474   8.167   7.177   7.068 -1.7079 -0.4210  0.4521
   66SAPC  H13S 5475   8.059   7.098   6.969  2.3393 -2.0140  0.7494
   66SAPC  C214 5476   8.059   7.329   6.973 -1.0926  0.2608 -0.3837
   66SAPC  H14R 5477   8.110   7.407   6.915  2.0878 -0.3907  1.3390
   66SAPC  C215 5478   7.939   7.356   7.030 -0.8241 -0.4810 -0.0603
   66SAPC  H15R 5479   7.899   7.459   7.029 -0.1659 -0.2207 -1.6999
   66SAPC  C216 5480   7.846   7.258   7.093  0.1575  0.0891 -0.0081
   66SAPC  H16R 5481   7.811   7.301   7.189  0.5795 -2.4782  1.3958
   66SAPC  H16S 5482   7.899   7.165   7.122  1.0550  0.8324  0.7717
   66SAPC  C217 5483   7.723   7.226   7.007  0.5338 -0.8769  0.1892
   66SAPC  H17R 5484   7.759   7.164   6.921  0.8049  0.2480 -0.5356
   66SAPC  H17S 5485   7.688   7.323   6.965  2.1761 -0.1647  0.3617
   66SAPC  C218 5486   7.611   7.153   7.078 -0.3562  0.2629  0.2589
   66SAPC  H18R 5487   7.658   7.131   7.176  3.7641  1.4573 -1.2702
   66SAPC  H18S 5488   7.587   7.061   7.020  0.2705  0.4525 -0.3151
   66SAPC  C219 5489   7.482   7.231   7.094 -0.6925 -0.7786  0.5581
   66SAPC  H19R 5490   7.499   7.326   7.149  2.1457 -0.4402 -0.7145
   66SAPC  H19S 5491   7.401   7.187   7.156 -2.1404  1.1082  0.0815
   66SAPC  C220 5492   7.418   7.261   6.957  0.3059 -1.0141 -0.4614
   66SAPC  H20R 5493   7.331   7.329   6.954 -0.1836 -1.6043 -3.2391
   66SAPC  H20S 5494   7.387   7.162   6.917  1.0908 -1.9156  1.0669
   66SAPC  H20T 5495   7.497   7.305   6.892 -0.3328 -0.1634 -0.6727
   66SAPC   C33 5496   7.338   6.786   6.964  0.0460  0.2376  0.0795
   66SAPC   H3X 5497   7.405   6.697   6.968 -0.8341 -0.5393 -1.4841
   66SAPC   H3Y 5498   7.241   6.734   6.948  1.5873 -2.5032 -1.0416
   66SAPC   C34 5499   7.344   6.867   7.092 -0.5662  0.0415 -0.0914
   66SAPC   H4X 5500   7.286   6.959   7.071  0.0973  0.0917 -1.8839
   66SAPC   H4Y 5501   7.451   6.891   7.111 -0.4871 -0.2188 -0.2170
   66SAPC   C35 5502   7.279   6.789   7.203 -0.3240 -0.1451 -0.1460
   66SAPC   H5X 5503   7.316   6.684   7.210  1.5832  0.4473 -0.8614
   66SAPC   H5Y 5504   7.169   6.775   7.188 -0.2828 -0.6885  0.0152
   66SAPC   C36 5505   7.300   6.872   7.332  0.6060 -0.1815  0.2311
   66SAPC   H6X 5506   7.244   6.834   7.420  2.0643 -0.3367  1.1404
   66SAPC   H6Y 5507   7.256   6.972   7.315 -2.0494 -1.0721  1.3888
   66SAPC   C37 5508   7.447   6.866   7.376 -0.8780 -0.3044 -1.2191
   66SAPC   H7X 5509   7.498   6.955   7.335  0.6690 -0.9388 -0.7365
   66SAPC   H7Y 5510   7.492   6.771   7.340 -2.0002 -0.9292 -1.0233
   66SAPC   C38 5511   7.458   6.866   7.529 -0.1574 -0.4629 -0.2693
   66SAPC   H8X 5512   7.563   6.882   7.561 -0.3282  2.0335 -0.7219
   66SAPC   H8Y 5513   7.428   6.764   7.559  2.0080 -0.7222  1.2528
   66SAPC   C39 5514   7.379   6.965   7.611 -0.1048 -0.0019 -0.2278
   66SAPC   H9X 5515   7.272   6.937   7.595  0.1203 -0.1038 -1.7622
   66SAPC   H9Y 5516   7.397   7.072   7.587 -1.7058  0.2870 -0.2555
   66SAPC  C310 5517   7.408   6.943   7.764 -0.6152 -0.5905  0.6632
   66SAPC  H10X 5518   7.514   6.937   7.796 -0.0846 -0.0536 -0.9198
   66SAPC  H10Y 5519   7.364   6.842   7.775  0.1989 -0.8924  1.2682
   66SAPC  C311 5520   7.337   7.030   7.867  0.3433  0.0205  0.1054
   66SAPC  H11X 5521   7.361   6.995   7.970  0.4449  2.5237  1.0177
   66SAPC  H11Y 5522   7.228   7.018   7.849  0.8169 -3.0066 -1.2117
   66SAPC  C312 5523   7.374   7.179   7.861  0.3858  0.0906 -0.8174
   66SAPC  H12X 5524   7.297   7.223   7.928 -1.3782 -3.2975 -0.3773
   66SAPC  H12Y 5525   7.363   7.229   7.763 -0.3702  0.2007 -0.6845
   66SAPC  C313 5526   7.520   7.200   7.913 -0.1432  0.5727  0.3852
   66SAPC  H13X 5527   7.575   7.184   7.817 -1.5534 -0.4835 -0.2856
   66SAPC  H13Y 5528   7.546   7.118   7.984 -0.8355 -0.5981 -0.6689
   66SAPC  C314 5529   7.553   7.338   7.964  0.3902 -0.0409 -0.2902
   66SAPC  H14X 5530   7.492   7.355   8.056  1.4142 -1.8598  0.7861
   66SAPC  H14Y 5531   7.529   7.417   7.889 -1.9299  0.8034  1.2012
   66SAPC  C315 5532   7.702   7.358   7.977 -0.4554  0.0565  0.6117
   66SAPC  H15X 5533   7.758   7.356   7.881 -0.3424 -1.9352  0.6820
   66SAPC  H15Y 5534   7.739   7.272   8.038 -0.2017 -1.3768 -1.4607
   66SAPC  C316 5535   7.743   7.480   8.061 -0.1776  0.4336 -0.1623
   66SAPC  H16X 5536   7.844   7.463   8.104  0.0162 -1.6004 -1.2401
   66SAPC  H16Y 5537   7.673   7.499   8.145  0.0609 -1.1630  0.4327
   66SAPC  C317 5538   7.770   7.602   7.970  1.0481  0.2010 -0.0110
   66SAPC  H17X 5539   7.684   7.618   7.902 -1.3713  0.2733  2.8513
   66SAPC  H17Y 5540   7.862   7.573   7.915  2.6435 -0.6529  2.8901
   66SAPC  C318 5541   7.779   7.728   8.052 -0.1106  0.7867  0.3763
   66SAPC  H18X 5542   7.787   7.812   7.980  1.3105 -1.9320 -2.9067
   66SAPC  H18Y 5543   7.878   7.718   8.103  1.4965  1.4933 -2.3879
   66SAPC  H18Z 5544   7.697   7.746   8.125  0.9357 -0.9104  2.0786
   67SAPC     N 5545   3.368   3.425   6.407  0.2116 -0.0962  0.8119
   67SAPC   C12 5546   3.286   3.441   6.536 -0.3982 -0.4627  0.0075
   67SAPC  H12A 5547   3.244   3.539   6.549 -0.3638 -0.4329 -0.1024
   67SAPC  H12B 5548   3.348   3.437   6.624 -0.5486  0.9587  0.1989
   67SAPC   C13 5549   3.476   3.530   6.403  0.2063 -0.0075 -0.0972
   67SAPC  H13A 5550   3.425   3.623   6.424 -0.2228 -0.5934  1.6608
   67SAPC  H13B 5551   3.549   3.511   6.481  0.9751 -0.6599 -0.9616
   67SAPC  H13C 5552   3.519   3.533   6.304 -0.1525 -1.9784 -0.3383
   67SAPC   C14 5553   3.433   3.291   6.418 -0.0015 -0.3079 -0.1762
   67SAPC  H14A 5554   3.475   3.253   6.326 -1.0391 -0.2198 -0.6990
   67SAPC  H14B 5555   3.507   3.297   6.497  2.1922  1.0992 -2.2081
   67SAPC  H14C 5556   3.361   3.218   6.451  0.3041 -0.9902 -0.9933
   67SAPC   C15 5557   3.293   3.439   6.280  0.0479 -0.1477 -0.8865
   67SAPC  H15A 5558   3.346   3.413   6.190  1.1376 -0.0273 -0.2885
   67SAPC  H15B 5559   3.204   3.377   6.284  0.3243 -0.7058 -2.6820
   67SAPC  H15C 5560   3.267   3.544   6.274 -1.4632 -0.5055 -1.0680
   67SAPC   C11 5561   3.180   3.341   6.576  0.0888 -0.0970  0.8532
   67SAPC  H11A 5562   3.155   3.348   6.684  0.4270 -1.1770  1.0137
   67SAPC  H11B 5563   3.229   3.242   6.571 -1.0211 -0.6979  1.5525
   67SAPC     P 5564   2.971   3.491   6.529  0.1044  0.3092  0.1242
   67SAPC   O13 5565   3.055   3.613   6.548 -0.4905  0.0602  0.4825
   67SAPC   O14 5566   2.860   3.498   6.438  0.5076  0.1003  0.0492
   67SAPC   O12 5567   3.058   3.360   6.497 -0.7968  0.3899 -0.5663
   67SAPC   O11 5568   2.912   3.446   6.670  0.1249 -0.1618 -0.4319
   67SAPC    C1 5569   2.845   3.328   6.713  0.2387 -0.1218 -1.0343
   67SAPC    HA 5570   2.892   3.240   6.663  0.0650  0.0953 -1.5874
   67SAPC    HB 5571   2.846   3.316   6.823  1.2997 -0.4039 -1.0654
   67SAPC    C2 5572   2.696   3.314   6.662  0.2410 -0.2493 -0.0281
   67SAPC    HS 5573   2.695   3.332   6.553 -1.8677 -2.9961 -0.5856
   67SAPC   O21 5574   2.620   3.413   6.739  0.0034  0.5713  0.3855
   67SAPC   C21 5575   2.506   3.461   6.687 -0.3574  0.1750  0.9510
   67SAPC   O22 5576   2.469   3.451   6.572  0.3873  0.0540 -0.0981
   67SAPC   C22 5577   2.433   3.528   6.797 -0.2347 -0.1340  0.0456
   67SAPC   H2R 5578   2.414   3.452   6.876 -1.4833  0.2616  0.1604
   67SAPC   H2S 5579   2.505   3.601   6.839 -0.6472 -0.0172  0.5571
   67SAPC    C3 5580   2.633   3.170   6.679 -0.3165 -0.2233 -0.4134
   67SAPC    HX 5581   2.695   3.091   6.631  1.3849 -1.4436  3.3198
   67SAPC    HY 5582   2.535   3.164   6.627 -0.6419 -1.9060  0.3107
   67SAPC   O31 5583   2.640   3.132   6.821 -0.1996 -0.8475  0.1441
   67SAPC   C31 5584   2.527   3.158   6.884 -0.7883  0.6524 -0.0118
   67SAPC   O32 5585   2.424   3.198   6.829  0.5142 -0.0256 -0.0857
   67SAPC   C32 5586   2.554   3.128   7.034 -0.7392 -0.1674  0.0223
   67SAPC   H2X 5587   2.626   3.208   7.060 -1.2879  0.4349 -0.2661
   67SAPC   H2Y 5588   2.612   3.033   7.038 -0.6030 -0.0881 -0.0802
   67SAPC   C23 5589   2.306   3.602   6.772  0.1212  0.3747  0.2470
   67SAPC   H3R 5590   2.246   3.546   6.697 -0.3483  2.8651 -1.3383
   67SAPC   H3S 5591   2.318   3.707   6.739  1.5461 -0.7776 -3.4244
   67SAPC   C24 5592   2.222   3.598   6.903  0.3338 -0.3948 -0.6038
   67SAPC   H4R 5593   2.226   3.492   6.938  0.8295 -0.6786 -1.4675
   67SAPC   H4S 5594   2.120   3.631   6.874 -0.1553 -1.3721 -0.0495
   67SAPC   C25 5595   2.290   3.683   7.006 -0.2518 -0.5340 -0.1184
   67SAPC   H5R 5596   2.314   3.777   6.954 -0.9875 -0.2873 -0.0234
   67SAPC   C26 5597   2.320   3.652   7.134  0.1681 -0.2610 -0.5959
   67SAPC   H6R 5598   2.358   3.733   7.198  0.5199 -1.7883  1.1906
   67SAPC   C27 5599   2.277   3.524   7.201 -0.6231  1.0914 -0.0650
   67SAPC   H7R 5600   2.239   3.448   7.130  1.9122  1.7187 -2.2260
   67SAPC   H7S 5601   2.192   3.551   7.266 -1.2712 -0.8103 -0.0606
   67SAPC   C28 5602   2.396   3.475   7.284  0.1981 -0.6339  0.9102
   67SAPC   H8R 5603   2.463   3.411   7.225 -0.0013 -1.1040  1.1840
   67SAPC   C29 5604   2.409   3.479   7.419 -1.3609 -0.0078  0.5788
   67SAPC   H9R 5605   2.491   3.422   7.464 -0.3248  1.8007  1.0874
   67SAPC  C210 5606   2.325   3.562   7.504 -0.2474 -0.1503  0.0080
   67SAPC  H10R 5607   2.302   3.659   7.456  0.1518  0.9362  1.9458
   67SAPC  H10S 5608   2.394   3.590   7.586  0.0599  0.2935 -0.3958
   67SAPC  C211 5609   2.199   3.492   7.547  0.3954 -0.2564 -0.2962
   67SAPC  H11R 5610   2.156   3.432   7.466 -2.0522 -0.2112  0.8983
   67SAPC  C212 5611   2.139   3.487   7.667  1.0784 -0.3794 -0.0263
   67SAPC  H12R 5612   2.058   3.414   7.678  0.1857  0.7599  1.2556
   67SAPC  C213 5613   2.182   3.551   7.798  1.0671  0.3286 -0.1546
   67SAPC  H13R 5614   2.285   3.521   7.825  0.9360 -1.8618 -1.7953
   67SAPC  H13S 5615   2.133   3.506   7.887  0.3705  0.8330 -0.2759
   67SAPC  C214 5616   2.171   3.692   7.788 -0.0247 -0.3181  0.3151
   67SAPC  H14R 5617   2.225   3.725   7.698 -0.4151 -0.8627 -0.1202
   67SAPC  C215 5618   2.105   3.782   7.873 -0.0415  0.1087  0.8339
   67SAPC  H15R 5619   2.111   3.890   7.851  0.0850 -0.5287 -2.8726
   67SAPC  C216 5620   2.040   3.742   7.998 -0.4294 -0.2121 -0.0438
   67SAPC  H16R 5621   2.054   3.633   8.018 -2.2419 -0.6704 -1.0555
   67SAPC  H16S 5622   1.929   3.740   7.999 -0.4252 -0.2273  1.5997
   67SAPC  C217 5623   2.107   3.812   8.123  0.5085  0.0110 -0.3003
   67SAPC  H17R 5624   2.217   3.798   8.124  0.5443 -0.1665 -2.4061
   67SAPC  H17S 5625   2.068   3.761   8.214  1.2711 -1.4496 -0.7532
   67SAPC  C218 5626   2.066   3.960   8.149  0.0435 -0.3464 -0.3732
   67SAPC  H18R 5627   1.958   3.974   8.127 -0.0941 -0.2638  0.3073
   67SAPC  H18S 5628   2.119   4.029   8.080  0.6944  1.2102  1.5583
   67SAPC  C219 5629   2.094   4.009   8.294 -0.7914 -0.0674 -0.3552
   67SAPC  H19R 5630   2.087   4.120   8.291 -0.8742 -0.0612  0.0035
   67SAPC  H19S 5631   2.200   3.987   8.319 -0.9437  1.8923  2.4330
   67SAPC  C220 5632   2.001   3.945   8.403 -0.5730 -0.5774 -0.0276
   67SAPC  H20R 5633   2.023   3.995   8.499  0.6614 -0.3938 -0.3899
   67SAPC  H20S 5634   2.037   3.840   8.405 -0.6342 -0.6227 -0.8200
   67SAPC  H20T 5635   1.896   3.967   8.374 -0.0273  2.7630  0.1187
   67SAPC   C33 5636   2.425   3.120   7.119 -0.1414  0.2133  0.0932
   67SAPC   H3X 5637   2.361   3.041   7.074 -1.1964 -0.1589  2.1204
   67SAPC   H3Y 5638   2.379   3.221   7.117 -1.5509 -0.3526  1.3630
   67SAPC   C34 5639   2.459   3.082   7.259  0.8100  0.4130 -0.3770
   67SAPC   H4X 5640   2.525   3.158   7.306 -1.3353  1.3662  1.2508
   67SAPC   H4Y 5641   2.500   2.979   7.265 -0.2660  0.0328  0.7109
   67SAPC   C35 5642   2.335   3.058   7.353  1.1149 -0.5397  0.1420
   67SAPC   H5X 5643   2.274   2.983   7.299 -0.3876  1.0795 -0.5051
   67SAPC   H5Y 5644   2.270   3.148   7.363  2.1063  0.0222  1.9106
   67SAPC   C36 5645   2.360   3.006   7.493 -0.0824  0.4280  0.5993
   67SAPC   H6X 5646   2.447   2.937   7.500  0.0502  0.6538  1.2565
   67SAPC   H6Y 5647   2.273   2.939   7.511  0.1199 -0.5877 -1.8083
   67SAPC   C37 5648   2.378   3.116   7.600 -0.9040 -0.9301  0.7975
   67SAPC   H7X 5649   2.279   3.166   7.613 -1.2284 -1.3702  0.0800
   67SAPC   H7Y 5650   2.449   3.183   7.548  0.5685 -1.4377  2.1006
   67SAPC   C38 5651   2.431   3.064   7.736  0.1656  0.5349 -0.1111
   67SAPC   H8X 5652   2.484   3.150   7.784  1.5060 -0.3311  0.0092
   67SAPC   H8Y 5653   2.490   2.975   7.706 -1.1760 -0.2359 -0.5559
   67SAPC   C39 5654   2.309   3.025   7.826  0.5236  0.3188 -0.3503
   67SAPC   H9X 5655   2.243   2.959   7.766 -0.0901  0.7337 -0.1416
   67SAPC   H9Y 5656   2.256   3.120   7.849 -1.3577 -0.7178 -0.1107
   67SAPC  C310 5657   2.352   2.962   7.958  0.1287  0.4419 -1.1594
   67SAPC  H10X 5658   2.447   2.905   7.956  0.7714  0.9735  3.4589
   67SAPC  H10Y 5659   2.277   2.887   7.992 -0.0669  1.1818  0.0741
   67SAPC  C311 5660   2.366   3.070   8.070  0.5150  0.4122 -0.0151
   67SAPC  H11X 5661   2.407   3.156   8.014 -1.6624  0.7067 -1.2652
   67SAPC  H11Y 5662   2.439   3.029   8.143  0.4405  1.9680  0.9799
   67SAPC  C312 5663   2.240   3.112   8.147  0.0647  0.4180 -0.4768
   67SAPC  H12X 5664   2.197   3.026   8.202  0.2165  1.5728  1.5862
   67SAPC  H12Y 5665   2.167   3.136   8.068 -0.5353 -1.8200 -0.6665
   67SAPC  C313 5666   2.280   3.222   8.245  0.0082  0.8539 -0.5384
   67SAPC  H13X 5667   2.330   3.308   8.196  1.4825  0.7207  0.6621
   67SAPC  H13Y 5668   2.355   3.192   8.321 -0.6050 -0.6894 -0.5118
   67SAPC  C314 5669   2.154   3.278   8.317  0.1387  1.0383 -0.2603
   67SAPC  H14X 5670   2.117   3.203   8.392 -0.5674  1.8603  0.2423
   67SAPC  H14Y 5671   2.074   3.299   8.243 -0.0858  0.4439 -0.1973
   67SAPC  C315 5672   2.186   3.409   8.394  0.2414 -0.2583 -0.4921
   67SAPC  H15X 5673   2.191   3.500   8.330  0.7156 -0.4112 -0.6685
   67SAPC  H15Y 5674   2.290   3.400   8.430  1.6913  0.6285 -4.0471
   67SAPC  C316 5675   2.088   3.434   8.516 -0.6663  0.5312 -0.1171
   67SAPC  H16X 5676   2.107   3.346   8.580  0.6486 -0.7717 -2.1832
   67SAPC  H16Y 5677   1.985   3.453   8.479  0.4137  2.7036 -2.3318
   67SAPC  C317 5678   2.131   3.564   8.591  0.0137 -0.4857 -0.5814
   67SAPC  H17X 5679   2.051   3.587   8.664 -0.1685  0.8015 -1.1563
   67SAPC  H17Y 5680   2.140   3.641   8.511 -2.5584  1.7803  1.1195
   67SAPC  C318 5681   2.272   3.545   8.659 -0.6202 -0.3972  0.0052
   67SAPC  H18X 5682   2.318   3.644   8.674 -2.0478  0.3231 -0.1958
   67SAPC  H18Y 5683   2.345   3.500   8.588  1.2092  3.0520 -0.4920
   67SAPC  H18Z 5684   2.267   3.498   8.760  1.6611  0.4112  0.5584
   68SAPC     N 5685   0.321   1.263   5.919 -0.0830 -0.0088  0.2773
   68SAPC   C12 5686   0.269   1.259   6.062 -0.1841  0.1527  0.3903
   68SAPC  H12A 5687   0.275   1.159   6.102  0.0356  0.4740  1.1917
   68SAPC  H12B 5688   0.169   1.301   6.065 -0.5278 -0.4762 -1.2955
   68SAPC   C13 5689   0.254   1.163   5.828  0.0179  0.5647 -0.5135
   68SAPC  H13A 5690   0.246   1.065   5.873 -3.0066  0.0806 -1.8275
   68SAPC  H13B 5691   0.157   1.198   5.797 -0.1942  1.1712  0.7335
   68SAPC  H13C 5692   0.308   1.136   5.739 -0.7642 -0.2248 -0.7685
   68SAPC   C14 5693   0.304   1.397   5.856 -0.6682 -0.9820 -0.4842
   68SAPC  H14A 5694   0.337   1.395   5.753 -3.4035 -0.3624 -1.4672
   68SAPC  H14B 5695   0.197   1.412   5.848 -0.4964 -0.3757 -2.1773
   68SAPC  H14C 5696   0.343   1.479   5.913  3.1699 -2.1674 -1.0943
   68SAPC   C15 5697   0.459   1.229   5.928 -0.8777  0.1622  0.0743
   68SAPC  H15A 5698   0.499   1.261   6.023  0.4514  0.6102 -0.6058
   68SAPC  H15B 5699   0.467   1.121   5.927  0.7535  0.2337  0.9243
   68SAPC  H15C 5700   0.521   1.274   5.852  0.7806  0.2621  1.4122
   68SAPC   C11 5701   0.335   1.347   6.164 -0.3252 -0.0216 -0.4441
   68SAPC  H11A 5702   0.442   1.324   6.187 -0.2998 -0.4623 -0.9841
   68SAPC  H11B 5703   0.284   1.330   6.261  0.3139  0.0489 -0.0877
   68SAPC     P 5704   0.177   1.559   6.154  0.1020  0.1306  0.1881
   68SAPC   O13 5705   0.179   1.694   6.089  0.1557  0.4538 -0.0994
   68SAPC   O14 5706   0.078   1.462   6.110  0.3237 -0.3257  0.4321
   68SAPC   O12 5707   0.321   1.491   6.135 -0.3469 -0.1091  0.8170
   68SAPC   O11 5708   0.161   1.574   6.309 -0.4103  0.1764  0.2546
   68SAPC    C1 5709   0.250   1.667   6.369 -0.1452 -0.3899 -0.8882
   68SAPC    HA 5710   0.353   1.626   6.367 -0.4091 -1.0674 -1.4352
   68SAPC    HB 5711   0.261   1.766   6.319 -0.6262 -0.0870 -0.4002
   68SAPC    C2 5712   0.224   1.703   6.523 -0.5831 -0.0418  0.0982
   68SAPC    HS 5713   0.321   1.733   6.569 -0.0480 -0.3727 -0.8003
   68SAPC   O21 5714   0.160   1.595   6.595  0.0384 -0.0939 -0.4061
   68SAPC   C21 5715   0.224   1.476   6.592 -0.2748  0.4831  0.3486
   68SAPC   O22 5716   0.335   1.450   6.549 -0.3990 -0.3160  0.6364
   68SAPC   C22 5717   0.130   1.361   6.640  0.2737 -0.3842 -0.1266
   68SAPC   H2R 5718   0.030   1.405   6.616  0.8936  1.0437 -0.1979
   68SAPC   H2S 5719   0.148   1.282   6.564  4.4802 -0.5235  0.7924
   68SAPC    C3 5720   0.153   1.840   6.537  0.0361 -0.1728  0.6272
   68SAPC    HX 5721   0.048   1.831   6.501  0.4351 -1.5421 -0.3136
   68SAPC    HY 5722   0.194   1.905   6.457 -0.0423  1.1877  1.6621
   68SAPC   O31 5723   0.164   1.898   6.667 -0.3757  0.3415  0.0318
   68SAPC   C31 5724   0.267   1.981   6.689 -0.2903  0.2356 -0.3202
   68SAPC   O32 5725   0.346   2.019   6.602  0.3444  0.2117  0.2811
   68SAPC   C32 5726   0.280   2.010   6.838  0.3696  0.3517 -0.0090
   68SAPC   H2X 5727   0.283   1.915   6.896 -2.9312  0.6571  0.8899
   68SAPC   H2Y 5728   0.189   2.064   6.873 -0.8987 -0.8299 -1.3432
   68SAPC   C23 5729   0.160   1.310   6.781  0.2140  0.5653  0.0429
   68SAPC   H3R 5730   0.271   1.301   6.776  0.1713  0.7425 -2.9691
   68SAPC   H3S 5731   0.122   1.208   6.802  1.2253  0.3258  0.8317
   68SAPC   C24 5732   0.122   1.407   6.896 -0.0768  0.0343  0.5311
   68SAPC   H4R 5733   0.012   1.422   6.891  0.0262  0.5303 -0.7067
   68SAPC   H4S 5734   0.154   1.509   6.866  1.0825 -0.2406  0.7739
   68SAPC   C25 5735   0.168   1.372   7.030  0.0790  0.3139 -0.0661
   68SAPC   H5R 5736   0.106   1.287   7.064 -0.0141  0.6235  0.5645
   68SAPC   C26 5737   0.262   1.425   7.106  0.8963 -0.5527  0.1077
   68SAPC   H6R 5738   0.281   1.379   7.204  0.5672  0.7455  0.8179
   68SAPC   C27 5739   0.350   1.542   7.066  0.8933 -0.1036 -0.0304
   68SAPC   H7R 5740   0.394   1.590   7.155  0.6512  2.6151 -1.2721
   68SAPC   H7S 5741   0.293   1.613   7.002 -0.3021 -2.0674 -1.2655
   68SAPC   C28 5742   0.459   1.480   6.980  0.0979 -0.4866  0.0823
   68SAPC   H8R 5743   0.500   1.383   7.013  3.4395  0.0109 -2.1106
   68SAPC   C29 5744   0.517   1.537   6.871  0.4540 -0.4275  0.4579
   68SAPC   H9R 5745   0.600   1.491   6.816 -0.6825 -0.2965 -1.4247
   68SAPC  C210 5746   0.484   1.679   6.825  0.8862  0.6734 -0.6021
   68SAPC  H10R 5747   0.440   1.744   6.903  2.3314  0.4693  0.4169
   68SAPC  H10S 5748   0.402   1.678   6.750  3.5236  1.2146 -3.7307
   68SAPC  C211 5749   0.599   1.751   6.759 -0.4729  0.4974  0.5120
   68SAPC  H11R 5750   0.586   1.782   6.654  0.4793 -0.1007  0.2090
   68SAPC  C212 5751   0.714   1.793   6.812  0.0182  0.1608 -0.3072
   68SAPC  H12R 5752   0.769   1.873   6.761 -0.3126  1.6539  1.5532
   68SAPC  C213 5753   0.751   1.778   6.965  0.9273 -0.0186  0.1110
   68SAPC  H13R 5754   0.659   1.812   7.016 -0.3792  0.3949 -2.3705
   68SAPC  H13S 5755   0.840   1.837   6.997  1.4336 -1.2033  0.9435
   68SAPC  C214 5756   0.783   1.644   7.018 -1.3527 -0.4360  0.1509
   68SAPC  H14R 5757   0.802   1.561   6.948  1.1684 -0.2788  0.5260
   68SAPC  C215 5758   0.814   1.628   7.148  0.1012 -0.1087  0.3706
   68SAPC  H15R 5759   0.870   1.540   7.182 -0.7286 -0.2499  1.4423
   68SAPC  C216 5760   0.797   1.735   7.255 -0.6666  0.4609  0.4684
   68SAPC  H16R 5761   0.699   1.726   7.308 -1.8785  2.4660 -1.2778
   68SAPC  H16S 5762   0.796   1.841   7.222  1.0657  0.2758 -0.2457
   68SAPC  C217 5763   0.910   1.733   7.366  1.1148 -0.0322  0.2283
   68SAPC  H17R 5764   0.882   1.810   7.441 -0.5603 -2.4744  2.3099
   68SAPC  H17S 5765   1.011   1.754   7.326  1.2475  0.8403  0.9797
   68SAPC  C218 5766   0.902   1.601   7.450  0.0555 -0.0925  0.4688
   68SAPC  H18R 5767   0.912   1.518   7.377 -1.0469  1.1181 -1.1302
   68SAPC  H18S 5768   0.810   1.587   7.512 -0.0190  1.8868  0.9043
   68SAPC  C219 5769   1.027   1.595   7.532 -0.9220  0.2243  0.0087
   68SAPC  H19R 5770   1.116   1.620   7.469  2.4468 -3.4474  2.7925
   68SAPC  H19S 5771   1.051   1.489   7.554  2.2638  0.5743 -1.1223
   68SAPC  C220 5772   1.014   1.675   7.663 -0.1337  0.7542 -0.7475
   68SAPC  H20R 5773   1.023   1.786   7.658 -0.9618  0.8457 -0.3537
   68SAPC  H20S 5774   1.083   1.641   7.744 -0.2606  0.5460 -0.7277
   68SAPC  H20T 5775   0.911   1.661   7.702  0.2202 -0.1684 -0.1134
   68SAPC   C33 5776   0.392   2.106   6.878 -0.5025 -0.7722  0.3130
   68SAPC   H3X 5777   0.352   2.209   6.866 -0.1486 -0.7195 -0.4756
   68SAPC   H3Y 5778   0.464   2.108   6.793 -1.0247 -0.8418 -0.1409
   68SAPC   C34 5779   0.472   2.085   7.008 -0.4653  0.1043  0.5419
   68SAPC   H4X 5780   0.537   2.174   7.021  0.7684 -0.7747  0.6380
   68SAPC   H4Y 5781   0.536   1.996   6.990 -0.0840 -0.8951  5.4135
   68SAPC   C35 5782   0.382   2.058   7.139 -0.2821  0.8826  0.1808
   68SAPC   H5X 5783   0.340   1.956   7.125  2.5952 -0.6358  1.5610
   68SAPC   H5Y 5784   0.303   2.136   7.145  1.0106  2.5864 -2.9530
   68SAPC   C36 5785   0.463   2.043   7.264 -0.2438 -0.6385 -0.7116
   68SAPC   H6X 5786   0.514   2.141   7.277  1.4421 -1.6543  0.7987
   68SAPC   H6Y 5787   0.541   1.965   7.254  0.8716  0.3779 -0.1348
   68SAPC   C37 5788   0.383   2.017   7.395 -0.2372  0.0492  0.5107
   68SAPC   H7X 5789   0.320   1.925   7.387 -0.8971  0.5082  0.3654
   68SAPC   H7Y 5790   0.325   2.111   7.401  1.8608  1.3911  0.8455
   68SAPC   C38 5791   0.480   1.990   7.515  0.0118  0.0646 -0.2336
   68SAPC   H8X 5792   0.536   2.084   7.536  0.3646 -0.5069  1.5290
   68SAPC   H8Y 5793   0.544   1.903   7.488 -1.7976 -1.4588  0.1704
   68SAPC   C39 5794   0.409   1.952   7.651  0.1495  0.4187  0.1863
   68SAPC   H9X 5795   0.483   1.896   7.713  0.7845  1.4518  0.3939
   68SAPC   H9Y 5796   0.319   1.890   7.631  0.9464 -0.9676  0.7743
   68SAPC  C310 5797   0.368   2.070   7.738 -0.0602 -0.5524  0.5294
   68SAPC  H10X 5798   0.297   2.128   7.675  0.2897  0.7179  1.2560
   68SAPC  H10Y 5799   0.453   2.140   7.754  0.5094 -0.9147 -0.8103
   68SAPC  C311 5800   0.297   2.032   7.867 -0.4970  0.5033  0.7558
   68SAPC  H11X 5801   0.375   1.983   7.928 -0.0586 -1.2215 -1.1045
   68SAPC  H11Y 5802   0.204   1.974   7.845  0.1314 -0.0399 -0.5572
   68SAPC  C312 5803   0.240   2.155   7.943 -1.1597 -0.0966 -0.3242
   68SAPC  H12X 5804   0.169   2.218   7.886 -1.7522  0.1376  0.6706
   68SAPC  H12Y 5805   0.334   2.213   7.952 -2.0673  1.3874 -0.1321
   68SAPC  C313 5806   0.184   2.111   8.078 -0.3993 -0.2327  0.6055
   68SAPC  H13X 5807   0.240   2.022   8.113  0.0196 -0.6766 -1.0713
   68SAPC  H13Y 5808   0.077   2.080   8.071 -1.0066  1.7962 -5.4671
   68SAPC  C314 5809   0.183   2.229   8.186 -0.2612  0.2205  0.3718
   68SAPC  H14X 5810   0.111   2.301   8.143  1.3217  1.1144 -0.8890
   68SAPC  H14Y 5811   0.283   2.277   8.176  0.4322 -1.3332 -0.6498
   68SAPC  C315 5812   0.124   2.182   8.316 -0.4033 -0.0360 -0.0845
   68SAPC  H15X 5813   0.161   2.079   8.336 -0.0226  0.0582 -0.2966
   68SAPC  H15Y 5814   0.013   2.179   8.312 -0.3813 -0.6671 -0.4123
   68SAPC  C316 5815   0.165   2.258   8.434 -0.2835 -0.3511 -0.5256
   68SAPC  H16X 5816   0.091   2.239   8.514 -0.3804 -3.1737 -1.1725
   68SAPC  H16Y 5817   0.156   2.366   8.409  1.2043 -0.2011 -0.5306
   68SAPC  C317 5818   0.314   2.232   8.484  0.7542 -0.0631 -0.1103
   68SAPC  H17X 5819   0.390   2.234   8.403  0.6614  0.1321 -0.1932
   68SAPC  H17Y 5820   0.328   2.128   8.520 -0.4984 -0.2207 -0.0255
   68SAPC  C318 5821   0.364   2.335   8.586  0.1927  0.2634  0.4561
   68SAPC  H18X 5822   0.474   2.342   8.578  0.4854 -3.8136 -4.4929
   68SAPC  H18Y 5823   0.333   2.318   8.692 -0.0595  0.9127  0.4937
   68SAPC  H18Z 5824   0.326   2.433   8.551  0.9533 -0.4309 -2.6102
   69SLPC     N 5825   3.260   0.230  10.922 -0.2883 -0.2099  0.3175
   69SLPC   C13 5826   3.361   0.291  10.830 -0.0204 -0.0914 -0.2639
   69SLPC  H13A 5827   3.313   0.372  10.777 -0.5596  0.8131  1.5210
   69SLPC  H13B 5828   3.437   0.331  10.895  1.0012 -2.6288  0.1970
   69SLPC  H13C 5829   3.410   0.220  10.765 -1.6064 -1.5987  0.0905
   69SLPC   C14 5830   3.151   0.178  10.835 -0.3292 -0.7846 -0.2973
   69SLPC  H14A 5831   3.078   0.130  10.899  0.2108 -0.0068  0.9364
   69SLPC  H14B 5832   3.095   0.258  10.789  0.3774  0.9283  1.6615
   69SLPC  H14C 5833   3.185   0.108  10.760 -0.0025 -1.6265  0.6048
   69SLPC   C15 5834   3.189   0.344  10.992 -0.7675  0.2925  0.0485
   69SLPC  H15A 5835   3.260   0.404  11.046 -0.8033 -0.4492  0.9425
   69SLPC  H15B 5836   3.141   0.409  10.920 -0.4306  1.0485  0.4941
   69SLPC  H15C 5837   3.110   0.317  11.061  0.4109  3.0539  2.7125
   69SLPC   C12 5838   3.310   0.119  11.012 -0.2473 -1.5598 -0.1409
   69SLPC  H12A 5839   3.370   0.050  10.955  1.2948  0.1656 -0.7032
   69SLPC  H12B 5840   3.228   0.063  11.052 -0.8011 -1.5688 -1.2519
   69SLPC   C11 5841   3.404   0.168  11.124 -0.3623 -0.0030  0.1193
   69SLPC  H11A 5842   3.402   0.108  11.217  0.5885  1.1889  0.9570
   69SLPC  H11B 5843   3.361   0.267  11.153 -0.7738 -0.7674  2.3331
   69SLPC     P 5844   3.632   0.067  11.037 -0.3971  0.3837 -0.6755
   69SLPC   O13 5845   3.746   0.123  10.969 -0.2247 -0.2028 -0.5011
   69SLPC   O14 5846   3.651  -0.018  11.161 -0.1391 -0.0900 -0.2336
   69SLPC   O12 5847   3.543   0.184  11.075 -0.0720  0.2038 -0.2398
   69SLPC   O11 5848   3.542  -0.011  10.937  0.4664 -0.2097  0.0794
   69SLPC    C1 5849   3.605  -0.034  10.807 -0.0136  0.2695 -0.2431
   69SLPC    HA 5850   3.610   0.062  10.751  2.1297 -0.4293 -1.3804
   69SLPC    HB 5851   3.712  -0.065  10.815  0.0464 -0.0970 -2.0856
   69SLPC    C2 5852   3.513  -0.120  10.712  0.0755  1.3149  0.1081
   69SLPC    HS 5853   3.487  -0.219  10.757 -1.5660  1.8289  0.3500
   69SLPC   O21 5854   3.576  -0.139  10.584  0.2510  0.1586 -0.5902
   69SLPC   C21 5855   3.679  -0.226  10.575 -0.3385 -0.6681 -0.0091
   69SLPC   O22 5856   3.728  -0.279  10.673 -0.5831 -0.0527  0.5185
   69SLPC   C22 5857   3.744  -0.229  10.436  0.4157 -0.5451 -1.0360
   69SLPC   H2R 5858   3.815  -0.143  10.437 -1.9475  1.4864 -0.5244
   69SLPC   H2S 5859   3.812  -0.317  10.437  1.8563  0.5145  0.6473
   69SLPC    C3 5860   3.371  -0.054  10.685 -0.3078 -0.3680  0.0575
   69SLPC    HX 5861   3.321  -0.035  10.782  0.6743  2.1122  0.1560
   69SLPC    HY 5862   3.306  -0.128  10.633 -0.9199 -1.9097  2.8236
   69SLPC   O31 5863   3.375   0.079  10.619  0.1457  0.3703  0.5894
   69SLPC   C31 5864   3.373   0.069  10.485 -0.3568 -0.0075 -0.7820
   69SLPC   O32 5865   3.364  -0.039  10.429 -0.3248 -0.8399  0.1287
   69SLPC   C32 5866   3.365   0.214  10.422  0.0268 -0.0752 -0.0597
   69SLPC   H2X 5867   3.415   0.294  10.481  0.6459 -0.9924  0.7038
   69SLPC   H2Y 5868   3.259   0.242  10.408  0.0885  1.9624  2.6103
   69SLPC   C23 5869   3.649  -0.207  10.316  0.5638 -0.1791 -0.2527
   69SLPC   H3R 5870   3.599  -0.109  10.333  0.1828 -0.2786 -0.7649
   69SLPC   H3S 5871   3.571  -0.285  10.301 -0.8376  0.8206  1.4424
   69SLPC   C24 5872   3.731  -0.180  10.187 -0.1220 -0.6299 -0.1306
   69SLPC   H4R 5873   3.785  -0.272  10.157  1.0723 -0.2262  0.6968
   69SLPC   H4S 5874   3.815  -0.115  10.220  0.0133 -0.3559 -0.9995
   69SLPC   C25 5875   3.653  -0.097  10.083 -0.1775  0.6348 -0.1320
   69SLPC   H5R 5876   3.631   0.005  10.123  0.1280  0.2337  1.0761
   69SLPC   H5S 5877   3.549  -0.135  10.070  0.4810 -0.8274 -1.4184
   69SLPC   C26 5878   3.735  -0.094   9.947 -0.0317  0.1205 -0.2948
   69SLPC   H6R 5879   3.722  -0.196   9.904 -3.3037 -0.1342  1.0173
   69SLPC   H6S 5880   3.844  -0.077   9.962 -0.4600  1.5426  1.6306
   69SLPC   C27 5881   3.709   0.013   9.840  0.4188 -0.0130  0.7808
   69SLPC   H7R 5882   3.740   0.110   9.885 -0.3657  2.4104 -3.3700
   69SLPC   H7S 5883   3.600   0.011   9.815  0.4289  1.2790  0.5656
   69SLPC   C28 5884   3.807  -0.004   9.719 -0.4728  0.7892  0.1108
   69SLPC   H8R 5885   3.813  -0.114   9.700  1.0684  0.6342  1.3205
   69SLPC   H8S 5886   3.904   0.033   9.757 -0.3714  0.9837 -0.3346
   69SLPC   C29 5887   3.760   0.062   9.588 -0.2657  1.5460 -0.5442
   69SLPC   H9R 5888   3.683   0.137   9.613  1.0879  1.9741  2.9876
   69SLPC  C210 5889   3.788   0.028   9.461 -0.2773  0.4708 -0.2430
   69SLPC  H10R 5890   3.738   0.081   9.379 -2.4006  1.4234  1.5768
   69SLPC  C211 5891   3.883  -0.075   9.420  0.4884  0.2973  0.3625
   69SLPC  H11R 5892   3.845  -0.147   9.344  5.6079 -2.1245 -0.3668
   69SLPC  H11S 5893   3.919  -0.140   9.503  2.3996  1.2006  0.2927
   69SLPC  C212 5894   3.996  -0.006   9.350  0.0374 -0.2792  0.2441
   69SLPC  H12R 5895   4.079   0.017   9.420 -1.0525 -1.7431  2.1226
   69SLPC  C213 5896   3.993   0.035   9.220 -0.8878 -0.2808  0.5111
   69SLPC  H13R 5897   4.078   0.097   9.188 -1.1171  0.1594  0.7424
   69SLPC  C214 5898   3.879   0.025   9.117 -0.1867  0.2263 -0.9400
   69SLPC  H14R 5899   3.796   0.093   9.145 -0.2713  0.3416 -1.4596
   69SLPC  H14S 5900   3.842  -0.079   9.123  1.0784 -0.2042 -0.2708
   69SLPC  C215 5901   3.936   0.054   8.979 -0.3263  0.5945  0.2908
   69SLPC  H15R 5902   4.007  -0.027   8.953  0.4648  1.3659  0.0047
   69SLPC  H15S 5903   3.999   0.145   8.985  0.2863  0.2212 -0.4178
   69SLPC  C216 5904   3.830   0.079   8.871  0.8061  0.1313 -0.5762
   69SLPC  H16R 5905   3.872   0.099   8.770 -0.2902 -0.9704 -1.2692
   69SLPC  H16S 5906   3.769   0.167   8.903  1.7696 -0.3850  3.2262
   69SLPC  C217 5907   3.735  -0.037   8.856  0.1520  0.0920 -0.7370
   69SLPC  H17R 5908   3.675  -0.052   8.947  0.1153 -3.2242 -1.1891
   69SLPC  H17S 5909   3.799  -0.127   8.842 -0.2021 -0.1183 -1.0262
   69SLPC  C218 5910   3.645  -0.017   8.734 -0.2791  0.0927  0.5988
   69SLPC  H18R 5911   3.588  -0.112   8.723  0.5036 -0.5344  1.8122
   69SLPC  H18S 5912   3.711  -0.005   8.645  0.4748  1.0695  1.2795
   69SLPC  H18T 5913   3.578   0.070   8.750  0.3589  1.1985 -2.1033
   69SLPC   C33 5914   3.435   0.209  10.284 -0.5934  0.0687  0.1595
   69SLPC   H3X 5915   3.536   0.163  10.281  0.4597  2.2101  0.5776
   69SLPC   H3Y 5916   3.455   0.313  10.249  0.1384 -0.1697 -0.1476
   69SLPC   C34 5917   3.358   0.152  10.165 -0.4269 -0.4844 -0.0727
   69SLPC   H4X 5918   3.250   0.178  10.170 -0.4142  0.8219 -3.6532
   69SLPC   H4Y 5919   3.365   0.041  10.168  1.1294 -0.3931  0.6687
   69SLPC   C35 5920   3.415   0.193  10.028  0.9762 -0.3782 -0.1604
   69SLPC   H5X 5921   3.523   0.166  10.030  0.9314 -0.5977  1.8968
   69SLPC   H5Y 5922   3.406   0.303  10.035  2.8620 -0.2172  0.5916
   69SLPC   C36 5923   3.330   0.140   9.918  0.3653  0.1090  0.0241
   69SLPC   H6X 5924   3.222   0.145   9.943 -0.2252 -2.5438 -1.5280
   69SLPC   H6Y 5925   3.348   0.030   9.920 -0.8692 -0.0931  2.2257
   69SLPC   C37 5926   3.358   0.202   9.776  0.7901 -0.5818 -0.9878
   69SLPC   H7X 5927   3.466   0.204   9.750  1.6563 -0.4504  2.2123
   69SLPC   H7Y 5928   3.327   0.307   9.787  0.2497 -0.9161  0.9503
   69SLPC   C38 5929   3.280   0.134   9.666  0.2232  0.7109 -0.3199
   69SLPC   H8X 5930   3.242   0.207   9.591  3.2936 -1.4648 -4.4715
   69SLPC   H8Y 5931   3.205   0.069   9.715  1.3764 -1.2353 -0.9946
   69SLPC   C39 5932   3.368   0.036   9.572 -0.1876  0.0069  0.8843
   69SLPC   H9X 5933   3.470   0.078   9.565  0.1993 -0.0523  4.3808
   69SLPC   H9Y 5934   3.329   0.028   9.469 -4.9578 -1.2028  2.4812
   69SLPC  C310 5935   3.368  -0.112   9.626 -0.5228  0.0970 -0.3693
   69SLPC  H10X 5936   3.262  -0.143   9.624 -0.7640  0.5237  1.9912
   69SLPC  H10Y 5937   3.390  -0.105   9.735  2.1487  0.0754 -0.8419
   69SLPC  C311 5938   3.469  -0.210   9.557 -0.7395 -0.2106 -0.4103
   69SLPC  H11X 5939   3.467  -0.315   9.592 -1.0119 -0.5868 -1.5166
   69SLPC  H11Y 5940   3.572  -0.172   9.574 -1.0248  1.1462 -1.4869
   69SLPC  C312 5941   3.460  -0.217   9.403 -0.1951 -0.9252  0.0796
   69SLPC  H12X 5942   3.475  -0.117   9.358  0.6407 -1.5789 -1.1469
   69SLPC  H12Y 5943   3.359  -0.244   9.365  0.1809  1.2186 -2.7768
   69SLPC  C313 5944   3.572  -0.298   9.346  0.0523 -0.3147 -0.5333
   69SLPC  H13X 5945   3.582  -0.394   9.400 -0.1512  0.3589  0.7264
   69SLPC  H13Y 5946   3.666  -0.240   9.349  0.0378 -0.3207 -0.0041
   69SLPC  C314 5947   3.531  -0.318   9.195 -0.4784  0.1097 -0.0988
   69SLPC  H14X 5948   3.498  -0.219   9.157 -0.1065 -0.1498 -1.1132
   69SLPC  H14Y 5949   3.445  -0.388   9.200 -0.3643 -0.0083  0.2400
   69SLPC  C315 5950   3.638  -0.377   9.100 -0.2028 -0.1543  0.6275
   69SLPC  H15X 5951   3.667  -0.481   9.126  0.1136 -0.0594  0.6519
   69SLPC  H15Y 5952   3.730  -0.315   9.106 -1.1748  1.2924  1.0075
   69SLPC  C316 5953   3.602  -0.381   8.945  0.0924 -0.6111  0.5523
   69SLPC  H16X 5954   3.683  -0.422   8.880 -1.9002 -0.3961 -2.2358
   69SLPC  H16Y 5955   3.591  -0.276   8.910  4.2979 -0.2094 -0.1273
   69SLPC  C317 5956   3.481  -0.478   8.927 -0.1616 -0.2169  0.8441
   69SLPC  H17X 5957   3.393  -0.428   8.971 -0.2318 -0.1575  0.6338
   69SLPC  H17Y 5958   3.496  -0.570   8.988  0.7487 -1.9337 -1.7864
   69SLPC  C318 5959   3.448  -0.531   8.786 -0.3211 -0.4213  0.2673
   69SLPC  H18X 5960   3.367  -0.606   8.789 -1.2522  0.5141 -0.6815
   69SLPC  H18Y 5961   3.544  -0.570   8.745  0.5818  1.6947  0.1827
   69SLPC  H18Z 5962   3.433  -0.452   8.709 -0.7047 -3.6301 -3.2308
   70SLPC     N 5963   4.172   4.473  11.065  0.1735 -0.6788  0.1790
   70SLPC   C13 5964   4.194   4.605  11.128  0.3786  0.3106  0.0503
   70SLPC  H13A 5965   4.181   4.597  11.235 -1.0067  0.3375 -0.1087
   70SLPC  H13B 5966   4.281   4.664  11.101  0.3314 -0.0158 -0.8123
   70SLPC  H13C 5967   4.109   4.666  11.100  0.3530  0.2003 -0.1061
   70SLPC   C14 5968   4.072   4.396  11.160  0.1424 -0.2844 -0.2634
   70SLPC  H14A 5969   3.975   4.442  11.149 -0.1467 -0.1070  2.4416
   70SLPC  H14B 5970   4.051   4.292  11.138 -1.3681 -0.1302  0.2864
   70SLPC  H14C 5971   4.103   4.411  11.262  0.2902 -1.2626 -0.1487
   70SLPC   C15 5972   4.305   4.406  11.073 -0.5000  0.6834 -0.5571
   70SLPC  H15A 5973   4.375   4.482  11.042 -0.0097  1.3908  2.0330
   70SLPC  H15B 5974   4.340   4.382  11.172  0.0948  1.3664 -0.5876
   70SLPC  H15C 5975   4.309   4.316  11.014  1.1229  0.2141  0.2138
   70SLPC   C12 5976   4.126   4.474  10.923  0.0584 -0.0391  0.3114
   70SLPC  H12A 5977   4.102   4.373  10.896 -0.7096  0.5455 -1.3145
   70SLPC  H12B 5978   4.214   4.503  10.867  0.5470 -1.9033  0.0611
   70SLPC   C11 5979   4.004   4.564  10.882  0.0213  0.5040 -0.2728
   70SLPC  H11A 5980   3.911   4.543  10.939  0.3681 -2.5535 -0.6978
   70SLPC  H11B 5981   3.990   4.540  10.775  1.3229 -0.7206 -0.1944
   70SLPC     P 5982   4.103   4.782  10.768  0.0670 -0.3035  0.1610
   70SLPC   O13 5983   4.107   4.927  10.798  0.1805  0.4696  0.0099
   70SLPC   O14 5984   4.239   4.728  10.747  0.7626  0.5825 -0.2288
   70SLPC   O12 5985   4.032   4.703  10.883  0.1684 -0.1484  0.0780
   70SLPC   O11 5986   4.020   4.767  10.642  0.3256  0.5403  0.0171
   70SLPC    C1 5987   3.878   4.789  10.627 -0.3072 -0.4452 -0.4130
   70SLPC    HA 5988   3.833   4.689  10.607 -1.3930  0.2702 -1.6709
   70SLPC    HB 5989   3.827   4.831  10.717 -1.3698 -2.1279 -0.1826
   70SLPC    C2 5990   3.843   4.884  10.507 -0.3892 -0.4332 -0.0968
   70SLPC    HS 5991   3.751   4.853  10.453 -1.6911  2.0030  0.5974
   70SLPC   O21 5992   3.940   4.901  10.407  0.2958  0.4833  0.4048
   70SLPC   C21 5993   3.971   4.797  10.335  0.8285 -0.0166  0.2244
   70SLPC   O22 5994   3.917   4.687  10.337 -0.4207  0.1618  0.5341
   70SLPC   C22 5995   4.088   4.830  10.237  0.2746 -0.0651 -0.1688
   70SLPC   H2R 5996   4.168   4.866  10.305  0.5987 -1.6960  0.3519
   70SLPC   H2S 5997   4.118   4.731  10.196 -1.8602 -0.2719 -1.3972
   70SLPC    C3 5998   3.808   5.027  10.566  0.6822  1.6059 -0.5222
   70SLPC    HX 5999   3.895   5.057  10.628  0.2764 -0.6960  1.2982
   70SLPC    HY 6000   3.727   5.008  10.639  1.5708 -0.1951  0.0643
   70SLPC   O31 6001   3.801   5.132  10.468 -0.2203 -0.1110 -0.2431
   70SLPC   C31 6002   3.682   5.186  10.467 -0.0177 -0.8522  0.4634
   70SLPC   O32 6003   3.582   5.133  10.516  0.1449 -0.1458 -0.1560
   70SLPC   C32 6004   3.676   5.317  10.392  0.1929 -0.8291 -0.7180
   70SLPC   H2X 6005   3.716   5.398  10.457 -1.2102 -1.8348  1.5128
   70SLPC   H2Y 6006   3.569   5.331  10.365  0.2204 -0.4547 -0.6366
   70SLPC   C23 6007   4.041   4.919  10.118  0.7652 -0.0520  0.0686
   70SLPC   H3R 6008   4.026   5.025  10.145  2.6561  0.1307  0.5393
   70SLPC   H3S 6009   3.944   4.873  10.088 -0.1116  1.1133  1.0437
   70SLPC   C24 6010   4.122   4.917   9.989 -0.0088 -0.2800  0.9424
   70SLPC   H4R 6011   4.179   4.821   9.982  0.9014  0.2364  1.1591
   70SLPC   H4S 6012   4.200   4.996   9.986 -1.0573  0.7788  0.5820
   70SLPC   C25 6013   4.029   4.921   9.867  0.4617  0.5889  0.5160
   70SLPC   H5R 6014   3.950   4.997   9.879 -2.4247 -2.3443  1.5060
   70SLPC   H5S 6015   3.963   4.833   9.886  0.8897 -0.1061 -1.0261
   70SLPC   C26 6016   4.080   4.928   9.723 -0.4761  0.0084 -0.7742
   70SLPC   H6R 6017   4.149   4.842   9.709 -0.5591 -0.2967  0.5620
   70SLPC   H6S 6018   4.139   5.021   9.711  1.1409 -0.9202 -0.2313
   70SLPC   C27 6019   3.982   4.913   9.605  0.0594  0.6896 -0.2519
   70SLPC   H7R 6020   3.921   5.006   9.596 -0.7295  0.0401 -2.1559
   70SLPC   H7S 6021   3.919   4.831   9.643  2.6577 -0.0182  2.9500
   70SLPC   C28 6022   4.047   4.882   9.469 -0.1702  0.9963 -0.2962
   70SLPC   H8R 6023   4.131   4.812   9.489 -2.4144 -1.2285  2.1466
   70SLPC   H8S 6024   4.101   4.966   9.421 -0.8982 -0.0627 -3.1365
   70SLPC   C29 6025   3.964   4.826   9.364 -0.2451 -0.2838 -0.0645
   70SLPC   H9R 6026   3.860   4.803   9.393  0.2864 -0.4367  1.8973
   70SLPC  C210 6027   4.000   4.821   9.233  0.0070 -0.2079  0.2155
   70SLPC  H10R 6028   3.918   4.786   9.168 -1.4764  1.6972  0.9621
   70SLPC  C211 6029   4.128   4.857   9.162 -0.0850  0.0392  0.3382
   70SLPC  H11R 6030   4.178   4.766   9.124 -1.4046 -0.1651 -1.0128
   70SLPC  H11S 6031   4.192   4.907   9.238 -1.2070 -2.0914  2.8324
   70SLPC  C212 6032   4.106   4.954   9.051 -0.1038 -0.0149  0.4316
   70SLPC  H12R 6033   4.061   5.051   9.074  0.0067  0.2428 -0.4070
   70SLPC  C213 6034   4.131   4.931   8.916  1.1458 -0.0534 -0.2810
   70SLPC  H13R 6035   4.131   5.007   8.837 -2.0038  0.5834  0.1805
   70SLPC  C214 6036   4.162   4.794   8.867 -0.3272 -0.5862 -0.1483
   70SLPC  H14R 6037   4.107   4.774   8.772 -0.8724  3.5761 -0.8948
   70SLPC  H14S 6038   4.116   4.721   8.937 -0.7128 -1.4522 -1.2770
   70SLPC  C215 6039   4.310   4.759   8.845 -0.1749 -0.1343  0.0258
   70SLPC  H15R 6040   4.310   4.649   8.825 -0.4648  0.2448 -2.3724
   70SLPC  H15S 6041   4.365   4.782   8.938  0.4890 -1.9947  0.1415
   70SLPC  C216 6042   4.370   4.834   8.728  0.4314 -0.6463  0.4727
   70SLPC  H16R 6043   4.347   4.942   8.737  0.7693 -0.5357 -0.0159
   70SLPC  H16S 6044   4.302   4.807   8.644 -0.6067 -0.7038  1.3129
   70SLPC  C217 6045   4.512   4.803   8.684  0.2160 -0.3816  0.2166
   70SLPC  H17R 6046   4.579   4.838   8.765  0.3322 -0.6572  0.2431
   70SLPC  H17S 6047   4.527   4.869   8.596  0.0122 -2.5661 -1.5653
   70SLPC  C218 6048   4.540   4.661   8.648  0.1656 -0.4489 -0.5024
   70SLPC  H18R 6049   4.474   4.632   8.563  0.2584  0.6947 -0.9821
   70SLPC  H18S 6050   4.516   4.596   8.734 -0.3476  0.0311 -0.2745
   70SLPC  H18T 6051   4.647   4.643   8.623  0.3343 -0.8357  0.4673
   70SLPC   C33 6052   3.743   5.317  10.257  0.5203  0.1700  0.6592
   70SLPC   H3X 6053   3.816   5.234  10.248  1.7665  1.3111 -0.2823
   70SLPC   H3Y 6054   3.817   5.399  10.243  1.5545 -0.8754 -0.1531
   70SLPC   C34 6055   3.648   5.320  10.139  0.2924  0.1621  0.2670
   70SLPC   H4X 6056   3.591   5.415  10.131  0.5149  0.2611 -0.1376
   70SLPC   H4Y 6057   3.576   5.236  10.139  0.6892 -0.1912 -0.5713
   70SLPC   C35 6058   3.733   5.305  10.014  0.1083  0.0534 -0.1333
   70SLPC   H5X 6059   3.777   5.204  10.004 -0.7516 -0.2903 -0.5218
   70SLPC   H5Y 6060   3.812   5.383  10.019 -2.4645  2.8898 -0.2835
   70SLPC   C36 6061   3.661   5.334   9.882 -0.3284  0.5799  0.2468
   70SLPC   H6X 6062   3.637   5.442   9.875 -0.4575  0.5437  0.1301
   70SLPC   H6Y 6063   3.566   5.277   9.873 -0.4891  1.0455 -1.4379
   70SLPC   C37 6064   3.750   5.305   9.757 -0.2736 -0.2399  0.0618
   70SLPC   H7X 6065   3.784   5.199   9.756 -1.4415 -0.6421  0.2514
   70SLPC   H7Y 6066   3.848   5.356   9.764 -0.2424  0.4699 -3.5994
   70SLPC   C38 6067   3.682   5.342   9.631  0.2244 -1.2584  0.7419
   70SLPC   H8X 6068   3.655   5.448   9.646 -2.5196 -2.0775  2.4610
   70SLPC   H8Y 6069   3.580   5.299   9.620  0.0198 -0.5491 -0.2835
   70SLPC   C39 6070   3.760   5.337   9.500  0.3986  0.0107 -0.1679
   70SLPC   H9X 6071   3.795   5.233   9.482  0.0029 -0.9823  3.7108
   70SLPC   H9Y 6072   3.854   5.397   9.502 -0.3110  1.2660 -1.9419
   70SLPC  C310 6073   3.687   5.408   9.389 -0.7316 -0.2189 -0.9171
   70SLPC  H10X 6074   3.672   5.511   9.427 -1.4960 -0.3833 -0.7650
   70SLPC  H10Y 6075   3.584   5.367   9.381 -1.3121  1.2792 -1.5601
   70SLPC  C311 6076   3.757   5.404   9.255  0.2394 -0.3753 -0.2997
   70SLPC  H11X 6077   3.863   5.436   9.261  0.1964 -0.3884  0.5581
   70SLPC  H11Y 6078   3.699   5.477   9.193  0.8815  3.1740  2.8890
   70SLPC  C312 6079   3.769   5.266   9.184  0.2463  0.5339 -0.0611
   70SLPC  H12X 6080   3.674   5.211   9.166  0.8741 -0.4503 -0.5071
   70SLPC  H12Y 6081   3.840   5.204   9.243  0.3990 -0.1595 -0.9336
   70SLPC  C313 6082   3.844   5.279   9.044 -0.5989 -0.0594  1.0186
   70SLPC  H13X 6083   3.953   5.296   9.060 -0.5788  0.4545  0.3786
   70SLPC  H13Y 6084   3.801   5.364   8.986 -0.6529 -0.7285  0.0587
   70SLPC  C314 6085   3.814   5.165   8.948 -0.4477  0.0403 -0.3757
   70SLPC  H14X 6086   3.704   5.164   8.935 -0.3557  1.0370 -1.3939
   70SLPC  H14Y 6087   3.839   5.066   8.991 -1.3375  0.9761  2.5644
   70SLPC  C315 6088   3.881   5.176   8.806 -0.5082  1.2103  0.7289
   70SLPC  H15X 6089   3.991   5.161   8.805 -0.3791  1.7128 -2.3482
   70SLPC  H15Y 6090   3.858   5.275   8.763 -0.2987  0.6029 -0.8668
   70SLPC  C316 6091   3.807   5.078   8.718  0.3039  0.0566 -0.1096
   70SLPC  H16X 6092   3.710   5.120   8.683  0.2769 -0.3660 -0.5565
   70SLPC  H16Y 6093   3.792   4.989   8.784 -0.6053 -1.3868 -2.1441
   70SLPC  C317 6094   3.890   5.026   8.597  0.2946 -0.2616  0.7335
   70SLPC  H17X 6095   3.842   4.930   8.566 -0.9123  1.2267 -2.3945
   70SLPC  H17Y 6096   3.993   5.002   8.631  0.1955 -1.3316  0.3192
   70SLPC  C318 6097   3.879   5.111   8.477  0.2825 -0.3490  0.7780
   70SLPC  H18X 6098   3.774   5.135   8.450  0.6012  0.3256  0.1178
   70SLPC  H18Y 6099   3.918   5.047   8.395  0.3786  0.3356  0.2819
   70SLPC  H18Z 6100   3.941   5.202   8.493  0.7247 -0.9134  2.4980
   71SLPC     N 6101   3.290   4.803  11.146  0.6479 -0.5559 -0.0512
   71SLPC   C13 6102   3.203   4.780  11.267 -0.5534  0.1824 -0.4970
   71SLPC  H13A 6103   3.158   4.872  11.303  0.9772  0.6017  0.4303
   71SLPC  H13B 6104   3.126   4.710  11.238  0.7860 -1.4860 -0.1567
   71SLPC  H13C 6105   3.256   4.748  11.355  1.0702  0.8807 -1.1752
   71SLPC   C14 6106   3.331   4.671  11.100 -0.0002  0.7261 -0.4315
   71SLPC  H14A 6107   3.253   4.602  11.072  0.8254 -0.7389  0.6923
   71SLPC  H14B 6108   3.411   4.674  11.027  1.5221  0.4137  1.1555
   71SLPC  H14C 6109   3.370   4.621  11.188 -1.7511  1.9206  1.0810
   71SLPC   C15 6110   3.411   4.880  11.194  0.4276  0.8122  0.1295
   71SLPC  H15A 6111   3.482   4.831  11.259  1.7331  1.3451 -0.8483
   71SLPC  H15B 6112   3.476   4.900  11.111 -1.1498  1.4410 -0.9936
   71SLPC  H15C 6113   3.385   4.982  11.218  0.9500  0.9738  0.0053
   71SLPC   C12 6114   3.212   4.870  11.032  0.3958  0.2503  0.0697
   71SLPC  H12A 6115   3.166   4.960  11.068 -0.4273  0.2164 -0.8540
   71SLPC  H12B 6116   3.131   4.810  10.994  1.1860  0.4019 -1.9947
   71SLPC   C11 6117   3.302   4.919  10.913 -0.2418  0.5218  0.7610
   71SLPC  H11A 6118   3.370   4.998  10.950  1.2608 -0.0456 -0.6558
   71SLPC  H11B 6119   3.230   4.969  10.844 -1.6958 -2.7675 -0.3282
   71SLPC     P 6120   3.499   4.847  10.745  0.0033 -0.3174 -0.2734
   71SLPC   O13 6121   3.555   4.977  10.787 -0.8974  0.3199  0.5416
   71SLPC   O14 6122   3.592   4.731  10.750 -0.2226 -0.4312  0.3641
   71SLPC   O12 6123   3.374   4.814  10.843  0.5524 -1.0924  0.3145
   71SLPC   O11 6124   3.430   4.856  10.599  0.6204  0.1421  0.5482
   71SLPC    C1 6125   3.293   4.807  10.576  0.2688 -0.4410 -0.4915
   71SLPC    HA 6126   3.266   4.717  10.635  1.1243  0.8403  2.0112
   71SLPC    HB 6127   3.219   4.890  10.587  0.6947  0.0598 -1.2867
   71SLPC    C2 6128   3.280   4.772  10.427  0.2711  0.1936  0.4718
   71SLPC    HS 6129   3.310   4.665  10.416 -2.1028 -0.4067 -1.1457
   71SLPC   O21 6130   3.357   4.879  10.355 -0.1471  0.4442 -0.2899
   71SLPC   C21 6131   3.463   4.831  10.286 -0.4262  0.1525 -0.5219
   71SLPC   O22 6132   3.490   4.714  10.280  0.1735  0.4534  0.2235
   71SLPC   C22 6133   3.538   4.931  10.207 -0.0933 -0.3956  0.5682
   71SLPC   H2R 6134   3.514   5.039  10.218  2.1423  0.3112 -0.8400
   71SLPC   H2S 6135   3.642   4.934  10.246  1.0864 -0.0804 -2.3380
   71SLPC    C3 6136   3.126   4.757  10.385 -0.3869 -0.7970 -0.0174
   71SLPC    HX 6137   3.092   4.862  10.372 -1.4401 -1.1183  0.0752
   71SLPC    HY 6138   3.071   4.723  10.475  1.3382  2.7914  2.6493
   71SLPC   O31 6139   3.104   4.690  10.255 -0.4050  0.1411 -0.2836
   71SLPC   C31 6140   3.078   4.566  10.264 -0.4724 -0.0321 -0.0421
   71SLPC   O32 6141   3.059   4.513  10.375 -0.0167 -0.0086  0.0845
   71SLPC   C32 6142   3.058   4.521  10.118  0.6245 -0.0027  0.4669
   71SLPC   H2X 6143   3.144   4.539  10.051  0.6434 -0.7691  0.2722
   71SLPC   H2Y 6144   2.968   4.580  10.089  1.7845  1.6738  0.1902
   71SLPC   C23 6145   3.542   4.906  10.056 -0.6049 -0.1938 -0.3606
   71SLPC   H3R 6146   3.570   5.002  10.006 -2.8106  0.0568 -1.2143
   71SLPC   H3S 6147   3.441   4.875  10.023 -0.6040  0.7868 -1.3305
   71SLPC   C24 6148   3.639   4.797  10.010 -0.1193  0.0988 -0.9120
   71SLPC   H4R 6149   3.610   4.692  10.032 -2.2206  0.6859 -0.5584
   71SLPC   H4S 6150   3.738   4.813  10.057 -0.2866 -2.6903  0.6374
   71SLPC   C25 6151   3.675   4.805   9.861 -0.0155 -0.3674 -0.0047
   71SLPC   H5R 6152   3.762   4.737   9.846  0.8930  1.1142 -2.0170
   71SLPC   H5S 6153   3.703   4.910   9.834 -0.4352 -0.0942  0.6145
   71SLPC   C26 6154   3.563   4.753   9.767 -0.2191 -0.2794  0.1949
   71SLPC   H6R 6155   3.475   4.815   9.795  0.3973  1.7213 -1.9994
   71SLPC   H6S 6156   3.548   4.644   9.777 -2.7249  0.0212  0.4022
   71SLPC   C27 6157   3.576   4.800   9.619 -0.8040  0.2820 -0.3421
   71SLPC   H7R 6158   3.501   4.740   9.564  0.8975  1.0251 -3.7494
   71SLPC   H7S 6159   3.676   4.776   9.576 -0.5847  0.9519 -0.2134
   71SLPC   C28 6160   3.540   4.950   9.600  0.3398 -0.3232 -0.6790
   71SLPC   H8R 6161   3.613   5.010   9.659  0.0159 -1.1873  0.6515
   71SLPC   H8S 6162   3.442   4.968   9.650  0.6436 -0.5659  0.0118
   71SLPC   C29 6163   3.531   5.018   9.471 -0.6580  0.5046 -0.1188
   71SLPC   H9R 6164   3.541   5.126   9.491  1.3176  0.4983 -0.8835
   71SLPC  C210 6165   3.518   4.980   9.340 -0.5296  0.5346 -0.5049
   71SLPC  H10R 6166   3.496   5.057   9.264 -0.2113  0.2497 -0.8890
   71SLPC  C211 6167   3.490   4.845   9.281 -0.0806  0.4649 -0.5134
   71SLPC  H11R 6168   3.436   4.778   9.351 -2.3540  0.1207 -2.4689
   71SLPC  H11S 6169   3.586   4.793   9.257 -0.4401 -0.6140  0.3206
   71SLPC  C212 6170   3.400   4.849   9.166  1.1450 -0.6628  0.3054
   71SLPC  H12R 6171   3.291   4.850   9.181  1.0613 -1.4114 -0.2026
   71SLPC  C213 6172   3.447   4.862   9.043 -0.2962  0.1964  0.1520
   71SLPC  H13R 6173   3.373   4.868   8.962 -2.6317 -0.1515  2.1345
   71SLPC  C214 6174   3.585   4.878   8.995 -0.2350 -0.3115 -0.3891
   71SLPC  H14R 6175   3.654   4.933   9.062  1.2343 -0.2707 -1.8767
   71SLPC  H14S 6176   3.587   4.947   8.908  1.0220 -0.1934 -0.2761
   71SLPC  C215 6177   3.653   4.739   8.950  0.1286 -0.1642 -0.1185
   71SLPC  H15R 6178   3.656   4.686   9.048  0.2738  2.1313  1.1969
   71SLPC  H15S 6179   3.757   4.761   8.920 -0.4616  2.1346 -0.6807
   71SLPC  C216 6180   3.583   4.662   8.839  0.5069  0.2644  0.3158
   71SLPC  H16R 6181   3.473   4.683   8.837  0.1658 -0.8969  2.7632
   71SLPC  H16S 6182   3.604   4.553   8.843 -1.6941 -0.2600 -0.5007
   71SLPC  C217 6183   3.648   4.697   8.704  0.0933  0.0123 -0.3351
   71SLPC  H17R 6184   3.749   4.652   8.700 -1.0941 -2.8528 -0.3666
   71SLPC  H17S 6185   3.659   4.808   8.709  0.7272 -0.0780  0.3810
   71SLPC  C218 6186   3.559   4.664   8.585 -0.0039 -0.8834  0.3789
   71SLPC  H18R 6187   3.574   4.728   8.495  0.1391 -2.2394 -0.5842
   71SLPC  H18S 6188   3.451   4.681   8.605 -0.0628  1.9756 -1.7004
   71SLPC  H18T 6189   3.585   4.559   8.562  3.7918 -0.1635  0.7001
   71SLPC   C33 6190   3.011   4.371  10.117  0.4220  0.0504  0.9152
   71SLPC   H3X 6191   2.903   4.352  10.136  0.0651 -1.7037 -2.1443
   71SLPC   H3Y 6192   3.070   4.305  10.184  2.7685 -2.0109 -2.7886
   71SLPC   C34 6193   3.015   4.308   9.980  0.4017  0.1578 -0.3019
   71SLPC   H4X 6194   2.991   4.202  10.001  0.9846 -0.1244 -1.0323
   71SLPC   H4Y 6195   3.120   4.321   9.946  0.9776 -2.2900  0.3704
   71SLPC   C35 6196   2.910   4.366   9.890  0.2903 -0.0517  0.3396
   71SLPC   H5X 6197   2.925   4.475   9.875 -0.0269 -0.0257  0.1963
   71SLPC   H5Y 6198   2.812   4.360   9.943 -0.3014  0.3619 -0.6728
   71SLPC   C36 6199   2.885   4.297   9.746 -0.2445  1.2060 -0.3722
   71SLPC   H6X 6200   2.872   4.188   9.763 -2.5825  1.1952 -1.8594
   71SLPC   H6Y 6201   2.977   4.311   9.686 -1.6513  1.2433 -2.6308
   71SLPC   C37 6202   2.765   4.354   9.679 -0.2867 -0.1787 -0.1018
   71SLPC   H7X 6203   2.775   4.463   9.659  1.2146  0.0158  1.4704
   71SLPC   H7Y 6204   2.682   4.356   9.754 -0.2215  0.6193 -0.0419
   71SLPC   C38 6205   2.728   4.284   9.547 -0.2116  0.5187  0.3401
   71SLPC   H8X 6206   2.704   4.176   9.557 -2.3581  1.0219  1.2656
   71SLPC   H8Y 6207   2.815   4.278   9.479 -0.0578  1.0775  0.4809
   71SLPC   C39 6208   2.608   4.343   9.475  1.2181  0.2109  0.1233
   71SLPC   H9X 6209   2.641   4.435   9.423  0.1437  0.2515 -0.5216
   71SLPC   H9Y 6210   2.521   4.369   9.539 -0.0411  1.3922 -1.9524
   71SLPC  C310 6211   2.559   4.248   9.356 -0.2938  0.2557  0.2199
   71SLPC  H10X 6212   2.543   4.146   9.396  1.7350  0.1078  0.7777
   71SLPC  H10Y 6213   2.641   4.237   9.282 -1.2619 -0.8298 -0.7178
   71SLPC  C311 6214   2.430   4.298   9.289  0.0229 -0.2947  0.0690
   71SLPC  H11X 6215   2.435   4.406   9.265 -0.2427 -0.2870  0.0541
   71SLPC  H11Y 6216   2.357   4.291   9.372  1.1862 -2.7334  0.9921
   71SLPC  C312 6217   2.385   4.217   9.165 -1.1209 -0.4530 -0.0591
   71SLPC  H12X 6218   2.430   4.117   9.179  1.4889 -0.0551 -3.9872
   71SLPC  H12Y 6219   2.433   4.262   9.076  3.4264 -0.6361  2.0437
   71SLPC  C313 6220   2.237   4.195   9.153 -0.7112 -0.4217 -0.5688
   71SLPC  H13X 6221   2.215   4.149   9.252 -0.9605 -0.0414 -0.4449
   71SLPC  H13Y 6222   2.205   4.134   9.066 -1.0804  0.0646 -0.7850
   71SLPC  C314 6223   2.159   4.322   9.138  0.8164 -0.8093  0.3114
   71SLPC  H14X 6224   2.174   4.395   9.220 -1.6659  0.1255  0.0420
   71SLPC  H14Y 6225   2.050   4.298   9.137  0.5495  0.2006 -1.8422
   71SLPC  C315 6226   2.188   4.396   9.002 -0.7605 -0.4353  0.0372
   71SLPC  H15X 6227   2.122   4.346   8.928 -0.2833 -2.9832  1.2339
   71SLPC  H15Y 6228   2.292   4.390   8.965 -1.0678  2.5512 -1.5650
   71SLPC  C316 6229   2.142   4.549   9.018  0.3907 -0.0263  0.4063
   71SLPC  H16X 6230   2.196   4.597   9.102 -1.7790  1.7418  0.8923
   71SLPC  H16Y 6231   2.033   4.547   9.037  0.3180  0.5777  0.0612
   71SLPC  C317 6232   2.166   4.625   8.877  0.3400  0.2283 -0.2839
   71SLPC  H17X 6233   2.262   4.595   8.830  0.4919 -1.2495  0.8790
   71SLPC  H17Y 6234   2.170   4.733   8.902  0.4195 -0.3338  2.4522
   71SLPC  C318 6235   2.047   4.605   8.790  0.2358  0.1854  0.0432
   71SLPC  H18X 6236   2.075   4.632   8.686  1.1027 -0.4017  0.1157
   71SLPC  H18Y 6237   1.956   4.657   8.825 -1.7856 -1.7638 -1.9319
   71SLPC  H18Z 6238   2.011   4.500   8.788  3.6801 -1.1197  0.3868
   72SLPC     N 6239   4.108   1.350  10.865 -0.2644 -0.2830  0.2893
   72SLPC   C13 6240   3.990   1.405  10.939  0.3489 -0.0937 -0.5454
   72SLPC  H13A 6241   3.954   1.346  11.022  0.4668  1.2146  0.4728
   72SLPC  H13B 6242   4.003   1.504  10.981 -0.6004  0.9313 -2.5287
   72SLPC  H13C 6243   3.909   1.414  10.868  1.7518 -0.7698 -2.3130
   72SLPC   C14 6244   4.070   1.206  10.824  0.1457 -0.4061  0.5272
   72SLPC  H14A 6245   3.972   1.205  10.779  0.4447  1.5966 -0.2581
   72SLPC  H14B 6246   4.149   1.156  10.770  1.2005 -0.4435  2.0665
   72SLPC  H14C 6247   4.060   1.153  10.918 -0.8847  0.5033  0.9550
   72SLPC   C15 6248   4.215   1.335  10.965 -0.1569  0.1466 -0.1336
   72SLPC  H15A 6249   4.243   1.432  11.003 -2.1757  0.5927  0.3340
   72SLPC  H15B 6250   4.190   1.270  11.048  0.8742  0.7436  0.6614
   72SLPC  H15C 6251   4.304   1.287  10.929 -0.2860 -0.4907  0.3637
   72SLPC   C12 6252   4.138   1.433  10.740  0.4352  0.4566  0.1589
   72SLPC  H12A 6253   4.049   1.431  10.679  2.7742  1.7706 -3.5852
   72SLPC  H12B 6254   4.212   1.384  10.679  0.9076  0.9784  0.2983
   72SLPC   C11 6255   4.177   1.580  10.760 -0.6600 -0.8777  0.1880
   72SLPC  H11A 6256   4.102   1.638  10.817 -0.2339  0.0113 -0.1316
   72SLPC  H11B 6257   4.186   1.618  10.655 -0.0262 -0.9421  0.2168
   72SLPC     P 6258   4.450   1.553  10.752 -0.1420  0.0730  0.1174
   72SLPC   O13 6259   4.541   1.670  10.765  0.2148  0.0877 -0.1803
   72SLPC   O14 6260   4.496   1.431  10.815  0.0255 -0.0030 -0.0100
   72SLPC   O12 6261   4.308   1.595  10.815  0.1822  0.3853  0.2125
   72SLPC   O11 6262   4.432   1.534  10.598  0.5237 -0.1363 -0.0328
   72SLPC    C1 6263   4.468   1.633  10.499 -0.6086 -0.2113  0.8166
   72SLPC    HA 6264   4.390   1.711  10.506 -0.8038 -0.3260  0.0618
   72SLPC    HB 6265   4.560   1.691  10.521 -1.1294  1.0337 -0.1331
   72SLPC    C2 6266   4.465   1.575  10.353 -0.3696 -0.2068 -0.3824
   72SLPC    HS 6267   4.546   1.499  10.348 -1.1427 -1.2444  1.6556
   72SLPC   O21 6268   4.484   1.680  10.265 -0.7345 -0.6400 -0.4015
   72SLPC   C21 6269   4.611   1.714  10.236  0.0219 -0.1272  0.4116
   72SLPC   O22 6270   4.711   1.674  10.293 -0.9757 -0.0019 -0.3490
   72SLPC   C22 6271   4.609   1.828  10.137  0.1321 -0.5079  0.3138
   72SLPC   H2R 6272   4.525   1.816  10.064  0.2592 -1.2900  0.2816
   72SLPC   H2S 6273   4.586   1.924  10.187 -0.3848 -0.2495 -0.4084
   72SLPC    C3 6274   4.333   1.491  10.325 -1.0240 -0.2381  0.0725
   72SLPC    HX 6275   4.251   1.552  10.369 -1.2852  0.8929 -1.8414
   72SLPC    HY 6276   4.348   1.399  10.385  3.7883  1.7551  2.5414
   72SLPC   O31 6277   4.323   1.467  10.186  0.0072 -0.7663 -0.7016
   72SLPC   C31 6278   4.225   1.391  10.145  0.0821 -0.2396 -0.2862
   72SLPC   O32 6279   4.151   1.331  10.223 -0.0944  0.3075 -0.6931
   72SLPC   C32 6280   4.211   1.402   9.995  0.0725  0.0743 -0.2245
   72SLPC   H2X 6281   4.202   1.511   9.975 -1.5959  0.6342  2.9018
   72SLPC   H2Y 6282   4.109   1.359   9.982 -0.3377  1.1528 -0.6589
   72SLPC   C23 6283   4.747   1.851  10.058  0.3701  0.4136 -0.0142
   72SLPC   H3R 6284   4.818   1.857  10.143  0.0491  0.2447  0.2685
   72SLPC   H3S 6285   4.734   1.949  10.006 -1.3432  0.6575  0.8108
   72SLPC   C24 6286   4.767   1.743   9.955 -0.1735  0.2410 -0.8938
   72SLPC   H4R 6287   4.745   1.645  10.003 -0.4917 -0.3340 -2.1687
   72SLPC   H4S 6288   4.873   1.743   9.920 -0.3935  2.7125 -1.7439
   72SLPC   C25 6289   4.688   1.743   9.820 -0.2667 -0.1003 -0.6033
   72SLPC   H5R 6290   4.748   1.820   9.768  2.3213 -0.7467  1.2778
   72SLPC   H5S 6291   4.579   1.764   9.833 -0.5920 -1.8455 -0.2404
   72SLPC   C26 6292   4.700   1.612   9.744  0.1021  0.1523  0.2969
   72SLPC   H6R 6293   4.669   1.536   9.819 -2.2987  0.9600  0.1857
   72SLPC   H6S 6294   4.808   1.590   9.729  0.4750  0.4762  2.1841
   72SLPC   C27 6295   4.610   1.613   9.620  0.0259 -0.6528 -0.3283
   72SLPC   H7R 6296   4.515   1.662   9.650  1.9987  4.0896 -0.9109
   72SLPC   H7S 6297   4.590   1.508   9.589  1.7099 -1.0266 -0.2626
   72SLPC   C28 6298   4.660   1.699   9.497  0.2432 -0.8643 -0.1642
   72SLPC   H8R 6299   4.746   1.643   9.455 -0.0923 -0.3267 -1.6158
   72SLPC   H8S 6300   4.703   1.792   9.538  0.6072 -0.8342 -0.6098
   72SLPC   C29 6301   4.543   1.735   9.406 -0.2404 -0.1221 -0.2249
   72SLPC   H9R 6302   4.442   1.727   9.450 -1.2190  0.1532 -2.2705
   72SLPC  C210 6303   4.544   1.760   9.277  0.0193 -0.0564 -0.1889
   72SLPC  H10R 6304   4.456   1.789   9.217 -0.7275 -0.2624  0.7715
   72SLPC  C211 6305   4.676   1.763   9.199  0.1689  0.3825  0.5375
   72SLPC  H11R 6306   4.744   1.676   9.192 -1.9333 -1.1714 -3.2156
   72SLPC  H11S 6307   4.737   1.846   9.240  4.1896 -2.1492  0.1383
   72SLPC  C212 6308   4.654   1.818   9.059 -0.4219  0.0013  0.3012
   72SLPC  H12R 6309   4.681   1.922   9.038  0.0680  0.0496  1.1248
   72SLPC  C213 6310   4.602   1.742   8.958 -0.0475 -0.1877 -0.0138
   72SLPC  H13R 6311   4.599   1.792   8.860 -0.5018  0.7584  0.4637
   72SLPC  C214 6312   4.567   1.598   8.975  0.4545 -0.4714  0.0787
   72SLPC  H14R 6313   4.489   1.595   9.054  1.1332  1.0253  0.8511
   72SLPC  H14S 6314   4.655   1.541   9.011 -0.0477 -0.4748  1.3293
   72SLPC  C215 6315   4.519   1.522   8.854 -0.4974  0.0038 -0.3229
   72SLPC  H15R 6316   4.595   1.525   8.773 -1.4980  0.0340 -1.2835
   72SLPC  H15S 6317   4.417   1.562   8.835  0.3539  3.3717  1.4885
   72SLPC  C216 6318   4.524   1.369   8.887 -0.9490  0.2379 -0.1982
   72SLPC  H16R 6319   4.479   1.346   8.987 -0.4250 -2.1019 -0.4456
   72SLPC  H16S 6320   4.629   1.340   8.910 -0.2694  1.7192 -1.2571
   72SLPC  C217 6321   4.471   1.290   8.776  0.2945  0.3373  0.3508
   72SLPC  H17R 6322   4.506   1.186   8.788 -0.7027 -0.0082  0.3889
   72SLPC  H17S 6323   4.519   1.324   8.682  1.1494 -0.5420  0.4651
   72SLPC  C218 6324   4.315   1.308   8.761 -0.2923  0.0326  0.2888
   72SLPC  H18R 6325   4.301   1.410   8.720 -0.6450 -0.4144 -0.7282
   72SLPC  H18S 6326   4.268   1.297   8.861 -0.1359  1.9737  0.6115
   72SLPC  H18T 6327   4.272   1.235   8.689 -0.6607  0.6007 -0.0704
   72SLPC   C33 6328   4.312   1.327   9.914 -0.1182  0.4798 -0.1807
   72SLPC   H3X 6329   4.339   1.222   9.939  1.4343  0.4658 -1.6888
   72SLPC   H3Y 6330   4.402   1.386   9.942 -0.5970  1.2130 -0.1539
   72SLPC   C34 6331   4.285   1.334   9.765 -0.6836 -0.0132  0.2724
   72SLPC   H4X 6332   4.215   1.252   9.738  0.1002 -0.6416  0.1081
   72SLPC   H4Y 6333   4.380   1.313   9.712 -1.5016  0.4464 -1.4518
   72SLPC   C35 6334   4.236   1.470   9.705 -0.1264 -0.1469  0.2349
   72SLPC   H5X 6335   4.298   1.550   9.750  1.0008 -0.3871 -0.8294
   72SLPC   H5Y 6336   4.133   1.490   9.741  1.1870  0.7598  3.9256
   72SLPC   C36 6337   4.249   1.478   9.555  0.9573 -0.2320 -0.0729
   72SLPC   H6X 6338   4.358   1.468   9.536  1.8198  3.9263  1.6067
   72SLPC   H6Y 6339   4.225   1.580   9.518 -0.9739  0.2536  2.2352
   72SLPC   C37 6340   4.150   1.388   9.488  0.4938  1.4399  0.0082
   72SLPC   H7X 6341   4.049   1.423   9.519  0.7776  0.2169  2.5142
   72SLPC   H7Y 6342   4.160   1.282   9.518  2.3162  1.5508 -0.0840
   72SLPC   C38 6343   4.162   1.395   9.331 -0.7572 -0.2673  0.8445
   72SLPC   H8X 6344   4.265   1.369   9.298 -0.3220  2.3226 -0.0186
   72SLPC   H8Y 6345   4.163   1.504   9.315  0.5700 -0.2913  0.6600
   72SLPC   C39 6346   4.050   1.320   9.254 -0.4307  0.3972 -0.1572
   72SLPC   H9X 6347   3.962   1.313   9.321 -1.5867  1.3355 -1.5198
   72SLPC   H9Y 6348   4.078   1.214   9.236 -5.0369 -0.9996 -0.2022
   72SLPC  C310 6349   4.027   1.394   9.125  0.4823 -0.2694 -0.2691
   72SLPC  H10X 6350   4.124   1.388   9.071  0.3595 -1.5562 -0.3718
   72SLPC  H10Y 6351   3.998   1.498   9.153  1.4977  0.0544 -0.3822
   72SLPC  C311 6352   3.918   1.332   9.031 -0.1897 -0.2103  0.1178
   72SLPC  H11X 6353   3.911   1.397   8.941  0.6210  1.2692  1.0616
   72SLPC  H11Y 6354   3.824   1.338   9.090 -1.6273 -2.8770 -1.7285
   72SLPC  C312 6355   3.940   1.184   8.987  0.5411  0.0391 -0.9294
   72SLPC  H12X 6356   3.951   1.120   9.076 -1.0551 -1.4115 -1.7156
   72SLPC  H12Y 6357   4.024   1.159   8.919 -1.2042 -2.7708 -2.2542
   72SLPC  C313 6358   3.805   1.134   8.930  0.0410 -0.2611  0.1316
   72SLPC  H13X 6359   3.737   1.159   9.015  1.9392 -1.2202  2.0461
   72SLPC  H13Y 6360   3.790   1.026   8.909  1.2802 -0.2784 -0.7271
   72SLPC  C314 6361   3.771   1.215   8.804  0.6037 -0.0667  0.1441
   72SLPC  H14X 6362   3.753   1.324   8.821  3.2237  0.7160 -1.3511
   72SLPC  H14Y 6363   3.677   1.179   8.757  0.5598  0.2174  0.0091
   72SLPC  C315 6364   3.882   1.204   8.695  0.5550 -0.0371  0.2023
   72SLPC  H15X 6365   3.865   1.105   8.646 -0.5811 -0.2736  1.0249
   72SLPC  H15Y 6366   3.987   1.217   8.730  0.8257 -1.3753 -0.0623
   72SLPC  C316 6367   3.864   1.301   8.573 -0.6540 -0.2242  0.1802
   72SLPC  H16X 6368   3.964   1.311   8.527 -0.3785  2.2837  1.1499
   72SLPC  H16Y 6369   3.848   1.403   8.614 -1.7654  0.4934 -1.9121
   72SLPC  C317 6370   3.746   1.276   8.474  0.7928  0.4789 -1.0677
   72SLPC  H17X 6371   3.656   1.290   8.538  1.4764  0.6985 -0.1294
   72SLPC  H17Y 6372   3.751   1.171   8.440 -1.6181 -0.1218  0.2043
   72SLPC  C318 6373   3.746   1.370   8.357 -0.4673  0.5332  0.0788
   72SLPC  H18X 6374   3.837   1.352   8.295 -0.8774 -0.4460 -0.2673
   72SLPC  H18Y 6375   3.756   1.479   8.376  0.3741  0.5980 -0.6591
   72SLPC  H18Z 6376   3.660   1.365   8.287  1.3155  0.7902 -2.2620
   73SLPC     N 6377   5.798   0.529  10.890  0.6376 -0.0839 -0.2640
   73SLPC   C13 6378   5.893   0.529  10.773 -0.1582  1.4193  0.2369
   73SLPC  H13A 6379   5.858   0.451  10.707  0.5485  0.6407  0.7478
   73SLPC  H13B 6380   5.893   0.626  10.725 -2.5660  0.6893 -1.3926
   73SLPC  H13C 6381   5.989   0.485  10.800 -0.4976 -0.5452 -1.4670
   73SLPC   C14 6382   5.732   0.393  10.917  0.0855  0.2029 -0.6247
   73SLPC  H14A 6383   5.670   0.395  11.005 -0.6742  0.5692 -1.1597
   73SLPC  H14B 6384   5.670   0.353  10.838 -1.4306 -0.4945  0.8641
   73SLPC  H14C 6385   5.811   0.323  10.937 -0.1433  0.3745  1.0057
   73SLPC   C15 6386   5.687   0.622  10.859  0.1454 -0.5884  0.0600
   73SLPC  H15A 6387   5.722   0.713  10.814 -2.4779  0.0365 -0.8878
   73SLPC  H15B 6388   5.628   0.579  10.779 -0.8494  0.4512  0.2155
   73SLPC  H15C 6389   5.620   0.639  10.942 -2.1530 -0.9176 -1.6338
   73SLPC   C12 6390   5.876   0.573  11.005 -0.4006  0.3052  0.8084
   73SLPC  H12A 6391   5.936   0.492  11.043  0.9257  1.2274  0.7402
   73SLPC  H12B 6392   5.809   0.587  11.089  1.2315 -0.8025  2.3546
   73SLPC   C11 6393   5.956   0.699  10.988  0.3585 -1.3454 -0.0057
   73SLPC  H11A 6394   6.036   0.700  10.910 -0.6200  2.4129 -1.1987
   73SLPC  H11B 6395   6.014   0.700  11.083 -0.1007 -0.0200  0.2920
   73SLPC     P 6396   5.893   0.931  10.865 -0.1752  0.0951 -0.4896
   73SLPC   O13 6397   5.770   1.012  10.873  0.0464  0.0658 -0.7263
   73SLPC   O14 6398   6.014   1.012  10.873 -0.7649  0.5575 -0.1031
   73SLPC   O12 6399   5.878   0.822  10.983 -0.4536  0.3729  0.0835
   73SLPC   O11 6400   5.881   0.847  10.728 -0.1986 -0.0488  0.8133
   73SLPC    C1 6401   5.967   0.865  10.618 -0.3870  0.2629 -0.3018
   73SLPC    HA 6402   5.991   0.973  10.614  1.2529 -0.0271  0.6604
   73SLPC    HB 6403   6.062   0.809  10.630  0.9217  2.5858  0.8768
   73SLPC    C2 6404   5.907   0.822  10.488 -0.1668  0.7973  0.4118
   73SLPC    HS 6405   5.816   0.884  10.479 -0.8777 -0.4744 -2.2442
   73SLPC   O21 6406   5.879   0.672  10.487 -0.4766  0.4847 -0.3698
   73SLPC   C21 6407   5.792   0.637  10.396  0.6927  0.6331  0.3395
   73SLPC   O22 6408   5.731   0.711  10.324  0.1297 -0.3851 -0.7222
   73SLPC   C22 6409   5.785   0.479  10.385  0.2583 -0.3986 -0.4218
   73SLPC   H2R 6410   5.875   0.445  10.441 -1.1929 -0.0987  2.2825
   73SLPC   H2S 6411   5.687   0.445  10.425  0.5904 -0.0666  0.7222
   73SLPC    C3 6412   5.996   0.870  10.370  0.4964  0.0878 -1.2866
   73SLPC    HX 6413   6.096   0.824  10.387  0.8290  0.3696 -2.3584
   73SLPC    HY 6414   6.011   0.979  10.387 -2.1023 -0.0398  3.4159
   73SLPC   O31 6415   5.959   0.834  10.235  0.0822  0.0234  0.0682
   73SLPC   C31 6416   5.863   0.910  10.178 -0.3444 -0.2858  0.2356
   73SLPC   O32 6417   5.806   1.004  10.236 -0.3678  1.0970  0.2852
   73SLPC   C32 6418   5.859   0.865  10.031  0.2340 -0.2114 -0.0614
   73SLPC   H2X 6419   5.849   0.756  10.015 -0.9606 -0.4267  1.8769
   73SLPC   H2Y 6420   5.942   0.893   9.962  0.0206 -0.0469 -0.2571
   73SLPC   C23 6421   5.790   0.415  10.242  1.1646 -0.1052  0.1614
   73SLPC   H3R 6422   5.694   0.438  10.192  1.6244 -3.1039 -2.3831
   73SLPC   H3S 6423   5.787   0.305  10.253 -0.7938  0.0845  2.3343
   73SLPC   C24 6424   5.917   0.447  10.161  0.9139  0.7501 -0.2943
   73SLPC   H4R 6425   5.990   0.395  10.226 -0.9716  0.6368  1.8499
   73SLPC   H4S 6426   5.963   0.548  10.167 -0.9542  1.6580 -0.3807
   73SLPC   C25 6427   5.928   0.385  10.024  0.3670  0.2227  0.2029
   73SLPC   H5R 6428   5.891   0.283  10.045  0.4491  0.5012  1.7719
   73SLPC   H5S 6429   6.033   0.380   9.989  0.2594 -2.3255  0.1071
   73SLPC   C26 6430   5.836   0.444   9.917  0.3695 -0.0671 -0.4659
   73SLPC   H6R 6431   5.893   0.534   9.886  3.4398 -1.2440  1.2695
   73SLPC   H6S 6432   5.751   0.468   9.983  1.2714  0.5111  0.5168
   73SLPC   C27 6433   5.820   0.364   9.790 -0.1249 -0.7644  0.1477
   73SLPC   H7R 6434   5.787   0.258   9.802 -0.7779 -0.8670 -2.0446
   73SLPC   H7S 6435   5.925   0.366   9.754  0.6328  1.3014  2.2857
   73SLPC   C28 6436   5.711   0.439   9.704  0.1333 -0.2099 -0.0800
   73SLPC   H8R 6437   5.613   0.411   9.749  0.2524 -0.5595 -0.0321
   73SLPC   H8S 6438   5.716   0.401   9.600  0.5135 -1.7505  0.4717
   73SLPC   C29 6439   5.734   0.590   9.695  0.2886 -0.1228  0.2453
   73SLPC   H9R 6440   5.659   0.643   9.756 -0.0468  0.6263 -0.7828
   73SLPC  C210 6441   5.805   0.661   9.599  0.0053  0.0237 -1.0292
   73SLPC  H10R 6442   5.810   0.770   9.585  0.0287 -0.0250 -1.3993
   73SLPC  C211 6443   5.873   0.605   9.479 -0.4953 -0.0794  0.0362
   73SLPC  H11R 6444   5.910   0.503   9.503  4.3044  1.1705 -0.9857
   73SLPC  H11S 6445   5.975   0.642   9.457  0.2793 -2.2853 -0.3795
   73SLPC  C212 6446   5.776   0.622   9.365 -0.4579 -0.4126 -0.1049
   73SLPC  H12R 6447   5.668   0.635   9.381 -0.3801  3.1287 -1.6040
   73SLPC  C213 6448   5.806   0.628   9.236 -0.5497 -0.2256  0.1547
   73SLPC  H13R 6449   5.726   0.628   9.161  0.4626 -1.4353 -0.9635
   73SLPC  C214 6450   5.940   0.612   9.169  0.1190 -0.2218  0.0914
   73SLPC  H14R 6451   5.940   0.524   9.101  0.6624  0.0141 -0.2236
   73SLPC  H14S 6452   6.019   0.588   9.244  0.5027 -0.4549 -0.3794
   73SLPC  C215 6453   5.989   0.729   9.091  0.3123 -0.2419  0.2926
   73SLPC  H15R 6454   6.094   0.717   9.059 -0.0164  0.3733 -1.0952
   73SLPC  H15S 6455   5.996   0.822   9.153 -0.1680  0.8253 -1.1859
   73SLPC  C216 6456   5.904   0.761   8.970 -0.5186 -0.2142  0.2876
   73SLPC  H16R 6457   5.807   0.803   9.002  0.7402  2.1666  1.1603
   73SLPC  H16S 6458   5.888   0.669   8.908  2.7475  1.2053 -3.0350
   73SLPC  C217 6459   5.974   0.862   8.868  0.2246  0.3489 -0.3623
   73SLPC  H17R 6460   5.919   0.863   8.771  0.5603  2.9105 -0.5964
   73SLPC  H17S 6461   6.073   0.821   8.839 -0.9433 -3.9460  0.9790
   73SLPC  C218 6462   5.990   1.006   8.913  0.2987 -0.0772  0.1283
   73SLPC  H18R 6463   5.886   1.045   8.917 -1.1927 -3.5655 -0.8594
   73SLPC  H18S 6464   6.053   1.057   8.838 -2.1076  1.1034 -1.2057
   73SLPC  H18T 6465   6.029   0.991   9.016 -0.1863 -0.1372  0.3073
   73SLPC   C33 6466   5.730   0.922   9.958  0.0683 -0.3094 -0.0187
   73SLPC   H3X 6467   5.646   0.906  10.028  1.5974 -1.0043  1.7357
   73SLPC   H3Y 6468   5.712   0.863   9.866 -2.5429 -0.7993  0.7286
   73SLPC   C34 6469   5.727   1.070   9.908 -0.7464 -0.2428  0.3923
   73SLPC   H4X 6470   5.787   1.141   9.969 -1.3953  0.7838 -0.1211
   73SLPC   H4Y 6471   5.626   1.108   9.932 -0.0548  0.4513  2.4266
   73SLPC   C35 6472   5.752   1.088   9.757  0.3210  0.5601 -0.0176
   73SLPC   H5X 6473   5.734   1.195   9.732  0.5953  0.4872 -0.5291
   73SLPC   H5Y 6474   5.673   1.038   9.698  2.0998 -4.3794  1.2296
   73SLPC   C36 6475   5.902   1.062   9.717 -0.2209  0.1028  0.0692
   73SLPC   H6X 6476   5.923   0.955   9.696 -0.4174  0.2155 -0.7217
   73SLPC   H6Y 6477   5.966   1.111   9.794 -0.3256  0.5827 -0.1449
   73SLPC   C37 6478   5.952   1.153   9.605  0.3010 -0.2316  0.2507
   73SLPC   H7X 6479   6.059   1.131   9.581  0.1252 -0.4025 -0.4087
   73SLPC   H7Y 6480   5.937   1.260   9.627  0.7157 -0.5842  2.5169
   73SLPC   C38 6481   5.877   1.125   9.477 -0.6203 -0.7775  0.6435
   73SLPC   H8X 6482   5.781   1.174   9.503 -1.5691 -2.2459 -0.0126
   73SLPC   H8Y 6483   5.859   1.016   9.478  0.5467 -1.0432 -1.7981
   73SLPC   C39 6484   5.936   1.164   9.344 -0.8977 -0.1087  0.4016
   73SLPC   H9X 6485   5.855   1.143   9.271  0.5447 -1.4919 -0.8916
   73SLPC   H9Y 6486   6.015   1.089   9.322 -0.7067  0.3134 -0.3691
   73SLPC  C310 6487   5.982   1.311   9.334 -0.3380  0.3481  0.7703
   73SLPC  H10X 6488   6.047   1.331   9.423  1.2882  0.8478 -0.4730
   73SLPC  H10Y 6489   5.888   1.364   9.359  0.3300  2.0052 -0.0661
   73SLPC  C311 6490   6.038   1.357   9.194 -0.3950 -0.1248  0.1851
   73SLPC  H11X 6491   6.133   1.302   9.177 -0.2044  0.5285 -1.0349
   73SLPC  H11Y 6492   6.068   1.464   9.193  1.6272 -0.6126  1.8230
   73SLPC  C312 6493   5.945   1.342   9.074  0.6482  0.1199  0.3662
   73SLPC  H12X 6494   5.861   1.412   9.093 -0.7570 -1.0091 -1.3302
   73SLPC  H12Y 6495   5.890   1.245   9.070 -1.0233  1.0353  0.1639
   73SLPC  C313 6496   5.998   1.396   8.942 -0.2223  0.0378 -0.6495
   73SLPC  H13X 6497   6.083   1.335   8.906  2.3365  3.1311 -0.3483
   73SLPC  H13Y 6498   6.034   1.500   8.955  0.5499 -0.1084 -1.5444
   73SLPC  C314 6499   5.884   1.378   8.838  0.1064  0.0982 -0.6876
   73SLPC  H14X 6500   5.810   1.459   8.857 -0.2076  0.1355 -1.9581
   73SLPC  H14Y 6501   5.842   1.277   8.857  0.2230  0.0901 -0.4784
   73SLPC  C315 6502   5.914   1.382   8.687 -0.3162 -0.2730 -0.4891
   73SLPC  H15X 6503   5.980   1.463   8.649  0.1373 -0.3992  0.0250
   73SLPC  H15Y 6504   5.811   1.387   8.645 -0.3229 -3.3605 -1.1122
   73SLPC  C316 6505   5.970   1.256   8.630 -0.2737  0.0683  0.3145
   73SLPC  H16X 6506   5.920   1.164   8.666  0.0506 -0.1549  0.1945
   73SLPC  H16Y 6507   6.079   1.263   8.651  0.0414 -0.2285 -1.1303
   73SLPC  C317 6508   5.954   1.249   8.485 -0.5916 -0.2425 -0.5656
   73SLPC  H17X 6509   5.984   1.342   8.433  0.5698 -0.4926 -0.3656
   73SLPC  H17Y 6510   5.844   1.244   8.468 -0.7373  2.3568 -0.8057
   73SLPC  C318 6511   6.011   1.132   8.406 -0.3835 -0.0766  0.3541
   73SLPC  H18X 6512   5.954   1.037   8.421 -0.7907 -0.0403 -0.8091
   73SLPC  H18Y 6513   6.121   1.133   8.416 -0.2827  1.9947 -0.4894
   73SLPC  H18Z 6514   5.983   1.154   8.300 -1.9917 -1.1020  0.5191
   74SLPC     N 6515   5.517   1.702  10.609  0.3796  0.2318  0.0807
   74SLPC   C13 6516   5.376   1.647  10.636  0.3635 -0.2921  0.4734
   74SLPC  H13A 6517   5.294   1.702  10.593  0.2488 -0.7137  0.1426
   74SLPC  H13B 6518   5.374   1.550  10.589  0.6454 -0.0399 -0.0690
   74SLPC  H13C 6519   5.367   1.643  10.744  1.7421  0.2204  0.6243
   74SLPC   C14 6520   5.626   1.623  10.682 -0.6461  0.0473  0.9703
   74SLPC  H14A 6521   5.615   1.641  10.788  0.4373  0.0761  1.0861
   74SLPC  H14B 6522   5.620   1.517  10.660 -3.6797  0.1515  0.8266
   74SLPC  H14C 6523   5.730   1.644  10.663 -0.5171 -1.3002  0.0268
   74SLPC   C15 6524   5.518   1.840  10.671  0.3158  0.4107  0.0231
   74SLPC  H15A 6525   5.434   1.898  10.636  0.2279  0.4330  0.2646
   74SLPC  H15B 6526   5.518   1.840  10.779 -0.1756 -0.2989  0.0291
   74SLPC  H15C 6527   5.607   1.889  10.635 -0.2483  0.3302 -1.5708
   74SLPC   C12 6528   5.544   1.710  10.463  0.4014 -0.2005  0.1612
   74SLPC  H12A 6529   5.475   1.782  10.423 -0.5995 -0.1520  1.8796
   74SLPC  H12B 6530   5.520   1.616  10.416 -0.7686  0.6778 -1.0613
   74SLPC   C11 6531   5.690   1.758  10.422 -0.9225 -0.2833 -0.4058
   74SLPC  H11A 6532   5.691   1.751  10.311 -2.7216 -0.9886 -0.4133
   74SLPC  H11B 6533   5.770   1.690  10.460  1.2094  0.7358 -2.7617
   74SLPC     P 6534   5.858   1.944  10.501  0.3695 -0.1280  0.0013
   74SLPC   O13 6535   5.865   2.090  10.479  0.2151  0.0936  0.3519
   74SLPC   O14 6536   5.897   1.901  10.630 -0.0360  0.3089  0.1482
   74SLPC   O12 6537   5.719   1.888  10.468 -0.6999 -0.4217  0.4445
   74SLPC   O11 6538   5.935   1.870  10.387 -0.1288  0.3132  0.1033
   74SLPC    C1 6539   6.084   1.873  10.375  0.3442  0.2877  0.0519
   74SLPC    HA 6540   6.130   1.884  10.476 -0.4707 -0.2835  0.4945
   74SLPC    HB 6541   6.123   1.776  10.336  0.0119 -0.6679  1.9696
   74SLPC    C2 6542   6.136   1.989  10.284  0.1428  0.5520 -0.0398
   74SLPC    HS 6543   6.094   2.087  10.313  1.1740  1.0614 -0.2491
   74SLPC   O21 6544   6.106   1.952  10.152  0.3589  0.0794 -0.5432
   74SLPC   C21 6545   6.094   2.048  10.062  0.2903 -0.9902  0.0390
   74SLPC   O22 6546   6.119   2.168  10.083 -0.0978 -0.2910  0.0809
   74SLPC   C22 6547   6.058   1.997   9.931  0.4960 -0.1325  0.0489
   74SLPC   H2R 6548   6.096   1.896   9.907  2.0268  0.5121 -0.3584
   74SLPC   H2S 6549   5.947   2.002   9.932  0.5355  2.5833 -0.0874
   74SLPC    C3 6550   6.288   2.015  10.301  0.7077 -0.0930 -0.0150
   74SLPC    HX 6551   6.301   2.025  10.411 -2.7220 -2.5601  0.7529
   74SLPC    HY 6552   6.312   2.115  10.258 -0.3142  0.8072  1.4241
   74SLPC   O31 6553   6.369   1.913  10.239  0.8414 -0.1468 -0.9076
   74SLPC   C31 6554   6.425   1.823  10.324 -0.7627  0.3332 -0.1841
   74SLPC   O32 6555   6.422   1.831  10.448  0.0787  0.1633  0.3094
   74SLPC   C32 6556   6.505   1.722  10.242 -0.4813  0.1761  0.3725
   74SLPC   H2X 6557   6.568   1.686  10.327  0.1564  3.1282  1.2997
   74SLPC   H2Y 6558   6.580   1.769  10.175  0.7991 -1.4125  0.6393
   74SLPC   C23 6559   6.095   2.096   9.823 -0.2869 -0.8107  0.0076
   74SLPC   H3R 6560   6.205   2.105   9.812 -0.0958  1.0617  2.5115
   74SLPC   H3S 6561   6.044   2.192   9.845  2.8955  0.8313  0.8391
   74SLPC   C24 6562   6.044   2.044   9.687  0.2556  0.9307  0.6414
   74SLPC   H4R 6563   5.949   1.989   9.702 -0.6424  1.9229 -1.1288
   74SLPC   H4S 6564   6.116   1.965   9.657 -1.1146  1.0026 -3.4719
   74SLPC   C25 6565   6.037   2.148   9.572  0.7754 -0.4831 -0.2245
   74SLPC   H5R 6566   6.125   2.216   9.576 -0.2451  0.8306  1.1181
   74SLPC   H5S 6567   5.956   2.220   9.594  2.1156  0.3692  2.3282
   74SLPC   C26 6568   5.999   2.089   9.432  0.4785  0.1078 -0.2896
   74SLPC   H6R 6569   5.907   2.028   9.444  1.0609 -0.5890  0.9924
   74SLPC   H6S 6570   6.068   2.006   9.406  0.6109 -0.3955  1.4778
   74SLPC   C27 6571   5.993   2.192   9.320  0.3702 -0.0719 -0.5358
   74SLPC   H7R 6572   6.087   2.250   9.315  0.6402  0.1561  3.5672
   74SLPC   H7S 6573   5.912   2.265   9.340  2.4938  1.7853  2.1441
   74SLPC   C28 6574   5.965   2.131   9.184 -0.2455  0.6609 -0.5296
   74SLPC   H8R 6575   5.929   2.204   9.108 -0.2093  1.0629 -0.1626
   74SLPC   H8S 6576   5.893   2.048   9.200  0.2196  0.4625  0.5486
   74SLPC   C29 6577   6.093   2.070   9.120 -0.3795  0.5623 -0.3494
   74SLPC   H9R 6578   6.104   1.967   9.155 -0.1242  0.3060 -1.1747
   74SLPC  C210 6579   6.177   2.124   9.030  0.3670 -0.0688  0.3500
   74SLPC  H10R 6580   6.265   2.068   8.996  1.3812  1.4772  0.3364
   74SLPC  C211 6581   6.162   2.263   8.974  0.0575 -0.5451 -0.0223
   74SLPC  H11R 6582   6.233   2.327   9.032 -1.7659  0.0746  1.6370
   74SLPC  H11S 6583   6.067   2.313   9.002 -1.2680 -2.1398 -1.4527
   74SLPC  C212 6584   6.169   2.256   8.825 -0.2903  0.3059  0.1604
   74SLPC  H12R 6585   6.069   2.272   8.785  0.1641  0.6815 -0.8426
   74SLPC  C213 6586   6.280   2.234   8.747 -0.3784 -0.5509 -0.0684
   74SLPC  H13R 6587   6.271   2.224   8.638 -0.9401 -0.8315 -0.0005
   74SLPC  C214 6588   6.420   2.238   8.795 -0.0884 -0.0666 -0.5615
   74SLPC  H14R 6589   6.466   2.157   8.736 -0.1660 -0.5374  0.0176
   74SLPC  H14S 6590   6.438   2.209   8.901  0.3151 -0.7202 -0.8021
   74SLPC  C215 6591   6.498   2.366   8.757  0.3201 -0.5319 -0.0159
   74SLPC  H15R 6592   6.458   2.458   8.806 -0.9626 -0.1579 -1.6746
   74SLPC  H15S 6593   6.483   2.374   8.648  1.4148 -0.6173 -0.1871
   74SLPC  C216 6594   6.651   2.350   8.767  0.2713  0.5537 -0.5660
   74SLPC  H16R 6595   6.685   2.250   8.731  0.7735 -0.3334  2.1151
   74SLPC  H16S 6596   6.689   2.345   8.871  2.6362  2.9209 -1.1862
   74SLPC  C217 6597   6.723   2.464   8.699 -0.6789 -0.3596 -0.3962
   74SLPC  H17R 6598   6.660   2.555   8.703  1.5948  1.3057 -0.6299
   74SLPC  H17S 6599   6.721   2.434   8.592 -1.7093 -1.4890 -0.0791
   74SLPC  C218 6600   6.863   2.492   8.757  0.9908 -0.5267  0.0572
   74SLPC  H18R 6601   6.852   2.502   8.867 -0.3866  0.5534 -0.1554
   74SLPC  H18S 6602   6.899   2.582   8.703 -1.0040  0.5349  0.4037
   74SLPC  H18T 6603   6.920   2.397   8.742 -0.4497 -1.8238  2.2153
   74SLPC   C33 6604   6.422   1.621  10.171 -0.1804  0.4706 -0.0971
   74SLPC   H3X 6605   6.347   1.597  10.250 -0.3900  0.5519 -0.2725
   74SLPC   H3Y 6606   6.484   1.531  10.154 -2.0351 -0.8030 -0.3162
   74SLPC   C34 6607   6.349   1.665  10.042  0.0635 -0.0173 -0.6562
   74SLPC   H4X 6608   6.275   1.746  10.063 -0.2762 -0.6932  0.9347
   74SLPC   H4Y 6609   6.295   1.572  10.014 -0.7314 -0.9724  3.4016
   74SLPC   C35 6610   6.440   1.705   9.932  0.6950  0.1498 -0.3802
   74SLPC   H5X 6611   6.542   1.661   9.945  0.9566  0.8731  0.1006
   74SLPC   H5Y 6612   6.447   1.816   9.927 -1.9228  0.4518  0.7685
   74SLPC   C36 6613   6.390   1.653   9.803 -0.4317  0.1283  0.2404
   74SLPC   H6X 6614   6.280   1.668   9.805 -0.6477 -1.2431 -0.7152
   74SLPC   H6Y 6615   6.398   1.544   9.786 -2.8234  0.1447 -1.5186
   74SLPC   C37 6616   6.450   1.731   9.682 -0.1237  0.4253 -1.0045
   74SLPC   H7X 6617   6.559   1.713   9.671 -0.0841 -1.2268  1.3584
   74SLPC   H7Y 6618   6.427   1.840   9.683  0.7828  0.6310 -1.3735
   74SLPC   C38 6619   6.386   1.677   9.550 -0.4787  0.0203  0.1260
   74SLPC   H8X 6620   6.276   1.691   9.549 -0.5551 -0.3239 -2.0592
   74SLPC   H8Y 6621   6.409   1.570   9.527 -2.4480 -0.9282  2.1669
   74SLPC   C39 6622   6.424   1.756   9.419  0.0873 -0.5447  0.3707
   74SLPC   H9X 6623   6.531   1.729   9.402 -0.1337 -1.5891  0.5900
   74SLPC   H9Y 6624   6.427   1.867   9.421  0.7269 -0.5656  1.2201
   74SLPC  C310 6625   6.341   1.712   9.296  0.5689  0.4670 -0.9351
   74SLPC  H10X 6626   6.242   1.762   9.292 -0.0884 -0.8419 -2.2404
   74SLPC  H10Y 6627   6.322   1.603   9.289  1.6798  0.1463  0.5987
   74SLPC  C311 6628   6.401   1.753   9.154  0.1249  0.0795 -0.1139
   74SLPC  H11X 6629   6.504   1.711   9.147  0.5666  1.1166 -0.1021
   74SLPC  H11Y 6630   6.414   1.863   9.158  0.4271  0.0496 -0.1825
   74SLPC  C312 6631   6.336   1.702   9.032 -0.1191 -0.2107  0.3853
   74SLPC  H12X 6632   6.238   1.755   9.030  0.1637  0.3072  0.1472
   74SLPC  H12Y 6633   6.314   1.593   9.040  3.7282 -1.1500  0.0737
   74SLPC  C313 6634   6.423   1.731   8.907 -0.0284 -0.0186  0.1328
   74SLPC  H13X 6635   6.512   1.665   8.915 -1.0835 -1.4386  0.4304
   74SLPC  H13Y 6636   6.461   1.835   8.910  0.3735 -0.1781  0.7689
   74SLPC  C314 6637   6.354   1.700   8.774  0.1373 -0.1587  0.0203
   74SLPC  H14X 6638   6.277   1.779   8.758 -0.0017 -0.6270 -1.9279
   74SLPC  H14Y 6639   6.315   1.597   8.788  0.1646 -0.1056  0.5013
   74SLPC  C315 6640   6.448   1.716   8.654 -0.4317  0.2986 -0.6003
   74SLPC  H15X 6641   6.547   1.667   8.660 -0.5559  0.0547 -0.5406
   74SLPC  H15Y 6642   6.472   1.824   8.649  0.6901  0.1020  0.2297
   74SLPC  C316 6643   6.394   1.668   8.521  0.4993  0.0832  0.0783
   74SLPC  H16X 6644   6.461   1.715   8.446 -0.1129  1.0859  0.1450
   74SLPC  H16Y 6645   6.294   1.710   8.497 -0.3396 -2.0896 -0.4607
   74SLPC  C317 6646   6.403   1.519   8.506  0.6053  0.0309  0.2124
   74SLPC  H17X 6647   6.490   1.476   8.559  1.4581  1.5050  0.0594
   74SLPC  H17Y 6648   6.419   1.491   8.399 -1.7158 -1.8870  0.2779
   74SLPC  C318 6649   6.271   1.455   8.554 -0.0307  0.1384 -0.7165
   74SLPC  H18X 6650   6.272   1.429   8.662  3.1432  0.3240 -0.6144
   74SLPC  H18Y 6651   6.252   1.356   8.507  2.5916 -0.6030 -0.3495
   74SLPC  H18Z 6652   6.183   1.518   8.529 -2.0602 -2.9280 -1.8333
   75SLPC     N 6653   5.878   4.465   6.667  0.5933  0.4736 -0.5173
   75SLPC   C13 6654   5.950   4.342   6.717 -0.6414 -0.0050  0.1683
   75SLPC  H13A 6655   6.006   4.372   6.804  0.2833 -0.8646 -0.1222
   75SLPC  H13B 6656   5.882   4.267   6.757  2.8008 -1.7455  3.3098
   75SLPC  H13C 6657   6.019   4.292   6.652 -0.1670  0.8247  0.0252
   75SLPC   C14 6658   5.976   4.568   6.626 -0.5304 -0.4438 -0.0546
   75SLPC  H14A 6659   6.030   4.598   6.715 -2.0711 -1.1615  1.1734
   75SLPC  H14B 6660   6.047   4.535   6.551  0.6001  1.9680 -0.1360
   75SLPC  H14C 6661   5.924   4.656   6.594  1.1054  0.7549  0.4548
   75SLPC   C15 6662   5.803   4.519   6.785  0.0247 -0.1948 -0.2976
   75SLPC  H15A 6663   5.742   4.439   6.823  1.8078 -1.6351 -0.3028
   75SLPC  H15B 6664   5.865   4.555   6.865 -0.8640 -0.6749  0.6266
   75SLPC  H15C 6665   5.751   4.613   6.769  1.3044  0.9220  1.6698
   75SLPC   C12 6666   5.787   4.434   6.551  0.0312  0.8494  0.0240
   75SLPC  H12A 6667   5.717   4.353   6.564  1.1601  0.1706  2.5180
   75SLPC  H12B 6668   5.850   4.403   6.469  0.9870 -1.1867  1.4543
   75SLPC   C11 6669   5.716   4.557   6.493  0.2832  0.0478  0.1717
   75SLPC  H11A 6670   5.676   4.525   6.394  1.4194  0.0217 -0.2981
   75SLPC  H11B 6671   5.790   4.637   6.470 -1.8647  1.8900 -0.7103
   75SLPC     P 6672   5.478   4.525   6.579 -0.3628  0.5396  0.1249
   75SLPC   O13 6673   5.374   4.598   6.507  0.3782 -0.2717 -0.3540
   75SLPC   O14 6674   5.505   4.386   6.530 -0.0513  0.4288 -0.5564
   75SLPC   O12 6675   5.608   4.610   6.576 -0.8756  0.0944  0.0075
   75SLPC   O11 6676   5.448   4.524   6.736  0.3109  0.1624 -0.0160
   75SLPC    C1 6677   5.458   4.399   6.812  0.8185  0.5193  0.0679
   75SLPC    HA 6678   5.398   4.324   6.757 -0.8310  2.6387 -1.1919
   75SLPC    HB 6679   5.564   4.367   6.803  0.3332 -0.7620 -1.5820
   75SLPC    C2 6680   5.420   4.412   6.968 -1.0779  0.2801 -0.3224
   75SLPC    HS 6681   5.471   4.501   7.008  0.2680 -0.3193 -0.6557
   75SLPC   O21 6682   5.446   4.292   7.046  0.0184 -0.4871 -0.4987
   75SLPC   C21 6683   5.574   4.279   7.059  0.0109  0.4695 -0.1243
   75SLPC   O22 6684   5.660   4.358   7.021  0.4574 -1.1661  0.0468
   75SLPC   C22 6685   5.607   4.141   7.125 -0.1539 -0.9645  0.3390
   75SLPC   H2R 6686   5.579   4.060   7.054 -0.8582 -0.7900  0.4055
   75SLPC   H2S 6687   5.717   4.132   7.131 -0.1941 -0.8260  1.6364
   75SLPC    C3 6688   5.268   4.452   6.973 -0.3730 -0.2135 -0.2318
   75SLPC    HX 6689   5.198   4.399   6.906 -0.7456 -0.3567  0.2592
   75SLPC    HY 6690   5.267   4.558   6.939  1.4678 -1.0189 -3.0840
   75SLPC   O31 6691   5.211   4.444   7.107 -0.4780 -0.1435  0.1828
   75SLPC   C31 6692   5.170   4.326   7.144  0.4566  0.2041  0.4426
   75SLPC   O32 6693   5.166   4.225   7.072 -0.0145 -0.5951  0.5804
   75SLPC   C32 6694   5.126   4.321   7.292 -0.1293 -0.1090 -0.0437
   75SLPC   H2X 6695   5.067   4.227   7.303  0.8960 -0.9409 -1.2488
   75SLPC   H2Y 6696   5.064   4.412   7.305  0.8083  0.8295 -1.7513
   75SLPC   C23 6697   5.547   4.125   7.263  0.3177 -0.5890 -0.3427
   75SLPC   H3R 6698   5.437   4.123   7.251  0.2217  1.7075 -0.2942
   75SLPC   H3S 6699   5.578   4.219   7.312  0.8195 -1.2838  0.7203
   75SLPC   C24 6700   5.610   4.001   7.327  0.6307  0.0228  0.0397
   75SLPC   H4R 6701   5.720   4.017   7.334  0.5543  0.1856  0.9888
   75SLPC   H4S 6702   5.593   3.911   7.264 -0.8991  0.7711 -0.6486
   75SLPC   C25 6703   5.560   3.982   7.471 -0.2026  0.2427  0.5549
   75SLPC   H5R 6704   5.451   3.967   7.484 -0.5581  2.6180  0.8453
   75SLPC   H5S 6705   5.579   4.073   7.533 -0.0532  0.7323 -0.1908
   75SLPC   C26 6706   5.632   3.860   7.536 -0.0926  0.2610 -0.0888
   75SLPC   H6R 6707   5.639   3.772   7.469 -0.0932  0.2202 -0.0352
   75SLPC   H6S 6708   5.577   3.821   7.625  1.0730  0.2459  0.6531
   75SLPC   C27 6709   5.771   3.893   7.596 -0.6522 -0.6497 -0.4190
   75SLPC   H7R 6710   5.745   3.938   7.694 -2.2629 -2.2142 -0.0759
   75SLPC   H7S 6711   5.823   3.966   7.530 -1.3479 -1.7140 -2.2312
   75SLPC   C28 6712   5.859   3.766   7.629  0.0921  0.0440 -0.1206
   75SLPC   H8R 6713   5.951   3.799   7.681 -0.6167  0.3936  0.9310
   75SLPC   H8S 6714   5.886   3.706   7.539 -1.0600  1.8792 -1.7760
   75SLPC   C29 6715   5.792   3.673   7.726 -0.2808  0.2137 -0.4268
   75SLPC   H9R 6716   5.735   3.588   7.686  0.8241 -1.3670  1.1995
   75SLPC  C210 6717   5.799   3.685   7.865 -0.9448  0.4593 -0.2337
   75SLPC  H10R 6718   5.760   3.597   7.919 -1.1397  0.7700  0.1346
   75SLPC  C211 6719   5.875   3.784   7.955  0.4799  1.5805 -0.0979
   75SLPC  H11R 6720   5.911   3.858   7.881 -0.7012  0.8171 -1.4894
   75SLPC  H11S 6721   5.967   3.728   7.985 -0.4642 -0.4184 -0.7240
   75SLPC  C212 6722   5.791   3.839   8.073  1.0378  0.5108  0.0516
   75SLPC  H12R 6723   5.691   3.872   8.040 -0.4081 -2.6684  0.8416
   75SLPC  C213 6724   5.824   3.839   8.202  0.5198 -0.2360  0.3808
   75SLPC  H13R 6725   5.757   3.880   8.279  1.3609  1.6915  0.1430
   75SLPC  C214 6726   5.959   3.789   8.243 -0.1491 -0.2829  0.1144
   75SLPC  H14R 6727   6.029   3.758   8.162 -0.1110 -0.3747  0.1842
   75SLPC  H14S 6728   5.950   3.704   8.314 -3.4475 -1.2309 -1.2228
   75SLPC  C215 6729   6.040   3.894   8.325 -0.0146 -0.2192 -0.0896
   75SLPC  H15R 6730   6.060   3.978   8.255  3.1376 -0.4916  0.3588
   75SLPC  H15S 6731   6.139   3.845   8.333 -0.6000 -1.2312  1.3674
   75SLPC  C216 6732   5.994   3.935   8.463  0.0846  0.3420  0.5019
   75SLPC  H16R 6733   5.886   3.959   8.457 -0.1312 -0.8594 -1.7933
   75SLPC  H16S 6734   6.043   4.025   8.505  0.4321 -0.3173  1.5543
   75SLPC  C217 6735   6.013   3.821   8.564  0.6883  0.0542 -0.1540
   75SLPC  H17R 6736   6.024   3.725   8.509 -4.3517 -0.7241 -0.3249
   75SLPC  H17S 6737   5.925   3.817   8.632 -1.2390  0.5870 -2.4644
   75SLPC  C218 6738   6.133   3.853   8.653 -0.0072  0.5016 -0.0332
   75SLPC  H18R 6739   6.116   3.960   8.679 -1.6641  1.2899 -3.6664
   75SLPC  H18S 6740   6.226   3.859   8.592 -2.2201  1.0964 -3.6952
   75SLPC  H18T 6741   6.133   3.778   8.734 -0.1989  0.2396 -0.2772
   75SLPC   C33 6742   5.246   4.302   7.393 -0.1364  0.3398  0.5915
   75SLPC   H3X 6743   5.284   4.198   7.392  0.1471  0.4142  1.9169
   75SLPC   H3Y 6744   5.328   4.371   7.364  0.0467 -0.5061 -1.0000
   75SLPC   C34 6745   5.218   4.353   7.530 -0.3950 -0.1206 -0.2241
   75SLPC   H4X 6746   5.116   4.332   7.568 -0.7681  2.5524  0.4554
   75SLPC   H4Y 6747   5.220   4.464   7.527  1.9058 -0.1347 -1.0507
   75SLPC   C35 6748   5.314   4.296   7.632  1.3391 -0.0894 -0.1394
   75SLPC   H5X 6749   5.416   4.337   7.613  1.2396 -0.0634 -0.6308
   75SLPC   H5Y 6750   5.325   4.187   7.617  1.4606  0.0644 -1.2184
   75SLPC   C36 6751   5.268   4.320   7.776  0.4537  0.0193 -0.2166
   75SLPC   H6X 6752   5.358   4.296   7.837  1.0953  2.0610 -0.2823
   75SLPC   H6Y 6753   5.185   4.250   7.800  0.6033 -0.2392 -0.4545
   75SLPC   C37 6754   5.223   4.459   7.814 -0.0248 -0.0270  0.1819
   75SLPC   H7X 6755   5.130   4.497   7.766 -0.3644  0.3374  1.1136
   75SLPC   H7Y 6756   5.303   4.530   7.786  1.6704 -0.9147  2.4503
   75SLPC   C38 6757   5.186   4.459   7.966 -0.0706 -0.3674 -0.0392
   75SLPC   H8X 6758   5.215   4.560   8.001 -0.2136 -1.2225  2.7929
   75SLPC   H8Y 6759   5.266   4.391   8.002  1.1180 -1.6454 -4.4387
   75SLPC   C39 6760   5.045   4.404   8.006  0.0222 -0.0372  0.8470
   75SLPC   H9X 6761   5.032   4.304   7.960  0.4142  0.4084 -0.2798
   75SLPC   H9Y 6762   4.966   4.469   7.960  0.9911  0.6291  0.0844
   75SLPC  C310 6763   5.037   4.391   8.159 -0.6643 -0.3965 -0.0725
   75SLPC  H10X 6764   5.053   4.494   8.198  0.5162 -0.2311 -0.9345
   75SLPC  H10Y 6765   5.119   4.326   8.196 -0.3706  0.3535  0.6137
   75SLPC  C311 6766   4.901   4.338   8.229 -0.4328 -0.2839  0.1055
   75SLPC  H11X 6767   4.902   4.234   8.189  0.8129  0.2482 -1.3107
   75SLPC  H11Y 6768   4.806   4.385   8.195 -0.9457 -0.0133  1.8107
   75SLPC  C312 6769   4.909   4.353   8.377  0.9774  0.3907  0.0653
   75SLPC  H12X 6770   4.808   4.355   8.423  1.5106 -2.8335  1.6853
   75SLPC  H12Y 6771   4.956   4.451   8.400  2.0335  0.2667 -1.4065
   75SLPC  C313 6772   5.008   4.246   8.449  0.2008 -0.1330 -0.2039
   75SLPC  H13X 6773   5.117   4.252   8.430 -0.3195  1.0700 -3.3771
   75SLPC  H13Y 6774   4.984   4.147   8.404 -1.0179 -0.3394  0.8352
   75SLPC  C314 6775   4.989   4.230   8.599 -0.0183  0.6070 -0.2581
   75SLPC  H14X 6776   5.016   4.331   8.637 -0.0432  0.1038  1.1499
   75SLPC  H14Y 6777   5.058   4.165   8.657  0.5410  0.5765 -0.9361
   75SLPC  C315 6778   4.841   4.203   8.639 -0.6350 -0.6664 -0.1277
   75SLPC  H15X 6779   4.814   4.101   8.605 -2.0691 -1.1776  2.2390
   75SLPC  H15Y 6780   4.760   4.259   8.587 -3.4100 -2.1916  2.2266
   75SLPC  C316 6781   4.822   4.198   8.788  0.2429  0.5267  0.2128
   75SLPC  H16X 6782   4.905   4.136   8.829  0.4960 -1.1144 -2.5282
   75SLPC  H16Y 6783   4.724   4.148   8.804  0.2895 -0.2976 -1.7242
   75SLPC  C317 6784   4.820   4.334   8.856 -0.5865 -0.1832 -0.1387
   75SLPC  H17X 6785   4.918   4.386   8.861 -0.4037 -0.0918 -3.0633
   75SLPC  H17Y 6786   4.786   4.313   8.960 -0.3658 -0.4632 -0.1255
   75SLPC  C318 6787   4.733   4.447   8.798  0.4716  0.1138 -0.3576
   75SLPC  H18X 6788   4.705   4.519   8.878  0.3048 -0.9688  0.5833
   75SLPC  H18Y 6789   4.635   4.408   8.765  0.4656 -0.2258  0.0627
   75SLPC  H18Z 6790   4.786   4.487   8.708  1.8906 -0.6921  0.0967
   76SLPC     N 6791   0.683   3.910   5.985 -0.0845 -0.5941  0.3913
   76SLPC   C13 6792   0.595   3.791   6.025 -0.5448  0.2326 -0.2866
   76SLPC  H13A 6793   0.645   3.696   6.035 -2.5550 -0.8066  0.6604
   76SLPC  H13B 6794   0.546   3.814   6.118 -1.6057 -0.8465 -0.5472
   76SLPC  H13C 6795   0.516   3.780   5.952  0.0502  2.8602 -1.4173
   76SLPC   C14 6796   0.607   4.030   5.963 -0.0288  0.3963 -0.4264
   76SLPC  H14A 6797   0.547   4.027   5.873  0.5886  2.9722 -1.0090
   76SLPC  H14B 6798   0.540   4.048   6.046 -2.4891  1.4349 -2.4914
   76SLPC  H14C 6799   0.669   4.119   5.960 -1.7971  1.6724 -1.4792
   76SLPC   C15 6800   0.751   3.871   5.859  0.2222 -0.8073  1.0201
   76SLPC  H15A 6801   0.682   3.868   5.776  0.1499  2.1053  0.8959
   76SLPC  H15B 6802   0.827   3.943   5.835 -0.2498 -0.1748  1.3861
   76SLPC  H15C 6803   0.791   3.770   5.857 -0.8082 -1.2364 -1.3239
   76SLPC   C12 6804   0.789   3.944   6.087 -0.0343 -0.4009  0.5222
   76SLPC  H12A 6805   0.826   4.041   6.060  0.0642 -1.2164 -2.6495
   76SLPC  H12B 6806   0.866   3.874   6.060 -0.3947 -1.1347  1.3116
   76SLPC   C11 6807   0.763   3.930   6.237 -0.0724 -0.4868 -0.8788
   76SLPC  H11A 6808   0.684   4.000   6.269  2.3889  1.3837  1.5816
   76SLPC  H11B 6809   0.858   3.965   6.283 -0.8549  3.5024 -1.9889
   76SLPC     P 6810   0.854   3.698   6.284 -0.4068 -0.3885  0.2544
   76SLPC   O13 6811   0.804   3.561   6.304 -0.0759 -0.0275 -0.4250
   76SLPC   O14 6812   0.941   3.713   6.158 -0.3919  0.0549 -0.4761
   76SLPC   O12 6813   0.736   3.801   6.278 -0.1123  0.3874 -0.1901
   76SLPC   O11 6814   0.940   3.751   6.411 -0.2933  0.2622  0.1581
   76SLPC    C1 6815   0.864   3.803   6.524 -0.0987 -0.5858 -0.2803
   76SLPC    HA 6816   0.932   3.872   6.578  0.3229  0.1486 -1.7136
   76SLPC    HB 6817   0.785   3.872   6.487  1.6727  0.1751 -2.9437
   76SLPC    C2 6818   0.835   3.687   6.619  0.9431  0.3744  0.2864
   76SLPC    HS 6819   0.738   3.642   6.587  0.8891 -0.4068  1.4564
   76SLPC   O21 6820   0.821   3.743   6.750 -1.2903 -0.5992 -0.1407
   76SLPC   C21 6821   0.754   3.671   6.834 -0.2900 -0.4864  0.6615
   76SLPC   O22 6822   0.693   3.567   6.806  0.6955  0.1205 -0.4295
   76SLPC   C22 6823   0.753   3.732   6.975 -0.2720 -0.1595  0.6324
   76SLPC   H2R 6824   0.858   3.727   7.009  0.4631 -1.7911 -1.6007
   76SLPC   H2S 6825   0.721   3.837   6.958  1.2308 -0.0781 -2.4898
   76SLPC    C3 6826   0.950   3.589   6.612  0.2277  0.0319 -0.1839
   76SLPC    HX 6827   1.030   3.663   6.636 -0.7985  1.4912 -1.0774
   76SLPC    HY 6828   0.971   3.544   6.513  4.5305 -2.1639  1.4701
   76SLPC   O31 6829   0.940   3.492   6.719 -0.0707 -0.6001  0.9326
   76SLPC   C31 6830   0.919   3.366   6.682  0.4109 -0.0718 -0.1969
   76SLPC   O32 6831   0.884   3.327   6.572 -0.1585 -0.0314  0.3187
   76SLPC   C32 6832   0.941   3.273   6.800 -0.0145  0.4694  0.8544
   76SLPC   H2X 6833   1.045   3.295   6.834  1.0041 -1.6752 -0.6265
   76SLPC   H2Y 6834   0.949   3.173   6.751  1.2671  1.8490 -1.9760
   76SLPC   C23 6835   0.661   3.658   7.074 -0.1647 -0.1596  0.0230
   76SLPC   H3R 6836   0.710   3.558   7.070  1.9139  0.7789  0.6631
   76SLPC   H3S 6837   0.560   3.648   7.029 -0.3379  0.9233  0.1368
   76SLPC   C24 6838   0.660   3.712   7.216 -0.7273 -0.7500 -0.1136
   76SLPC   H4R 6839   0.629   3.818   7.220  1.8137  0.0874 -0.8304
   76SLPC   H4S 6840   0.764   3.722   7.252 -1.9251  2.4184  3.1555
   76SLPC   C25 6841   0.572   3.628   7.313 -0.0789  0.2190  0.7385
   76SLPC   H5R 6842   0.573   3.523   7.275  0.9421  0.5161 -0.1166
   76SLPC   H5S 6843   0.467   3.662   7.299 -0.4788 -1.2116  0.0344
   76SLPC   C26 6844   0.603   3.645   7.462 -0.1626 -0.0357  0.2440
   76SLPC   H6R 6845   0.701   3.598   7.488 -1.1508 -0.4858  3.6467
   76SLPC   H6S 6846   0.534   3.583   7.522 -0.1546 -0.1493  0.1365
   76SLPC   C27 6847   0.598   3.793   7.513  0.1423  0.1202 -0.4273
   76SLPC   H7R 6848   0.498   3.842   7.504 -0.2947 -0.2147  1.9821
   76SLPC   H7S 6849   0.675   3.840   7.447  2.6523 -1.8252  0.9670
   76SLPC   C28 6850   0.628   3.814   7.660 -0.4078 -0.3358 -0.1280
   76SLPC   H8R 6851   0.727   3.769   7.684  1.3062  2.3862 -1.5484
   76SLPC   H8S 6852   0.626   3.925   7.658  0.9537 -0.3051 -1.6046
   76SLPC   C29 6853   0.531   3.742   7.747  0.6050  0.3689  0.0025
   76SLPC   H9R 6854   0.444   3.698   7.698  3.5128 -2.8697 -2.7806
   76SLPC  C210 6855   0.540   3.703   7.881  0.5807  0.3277 -0.0483
   76SLPC  H10R 6856   0.448   3.663   7.928  1.2650 -1.5286 -0.2291
   76SLPC  C211 6857   0.652   3.731   7.977 -0.7301  0.1828  0.2912
   76SLPC  H11R 6858   0.753   3.713   7.936 -0.9027 -1.9526  0.6905
   76SLPC  H11S 6859   0.637   3.665   8.064 -1.3944  0.5831  0.4948
   76SLPC  C212 6860   0.636   3.870   8.027  0.1000  0.2293  1.1070
   76SLPC  H12R 6861   0.639   3.943   7.945 -0.4031 -1.5142 -0.5331
   76SLPC  C213 6862   0.575   3.908   8.143  0.0915 -0.1435  0.0004
   76SLPC  H13R 6863   0.546   4.011   8.167  2.1898  0.2676  1.0619
   76SLPC  C214 6864   0.523   3.812   8.247 -0.1156  0.0123 -0.7382
   76SLPC  H14R 6865   0.500   3.710   8.210 -2.2741  0.6937 -1.4693
   76SLPC  H14S 6866   0.429   3.855   8.289 -0.7777 -2.7015  0.7860
   76SLPC  C215 6867   0.621   3.803   8.365  0.0582  0.6354 -0.0027
   76SLPC  H15R 6868   0.644   3.906   8.400  0.6152 -0.8673  4.6070
   76SLPC  H15S 6869   0.723   3.772   8.334  0.0753 -0.8096  1.3957
   76SLPC  C216 6870   0.571   3.709   8.477  0.2597 -0.7903  0.5107
   76SLPC  H16R 6871   0.523   3.618   8.434  1.4114 -1.1320 -0.1024
   76SLPC  H16S 6872   0.491   3.768   8.526  1.4328  2.4621 -1.2094
   76SLPC  C217 6873   0.677   3.676   8.589  0.4437 -0.3815 -0.0512
   76SLPC  H17R 6874   0.725   3.775   8.608  2.2371 -1.0925 -0.6547
   76SLPC  H17S 6875   0.761   3.611   8.557 -0.7863 -1.9418 -0.1660
   76SLPC  C218 6876   0.615   3.608   8.713 -0.1060 -0.7629 -0.1800
   76SLPC  H18R 6877   0.688   3.602   8.796 -0.3601  0.0605  0.1171
   76SLPC  H18S 6878   0.587   3.501   8.701  0.7449 -0.8586 -1.5891
   76SLPC  H18T 6879   0.530   3.671   8.747  1.9727  2.4518 -0.4383
   76SLPC   C33 6880   0.847   3.283   6.917  0.1279  0.4908  0.3832
   76SLPC   H3X 6881   0.746   3.247   6.890  0.7001 -0.1403 -0.9870
   76SLPC   H3Y 6882   0.845   3.384   6.964  1.9435 -0.1307  1.9417
   76SLPC   C34 6883   0.898   3.199   7.030 -0.1882  0.4588 -0.2476
   76SLPC   H4X 6884   0.997   3.231   7.069  0.3092 -1.2108 -0.0885
   76SLPC   H4Y 6885   0.914   3.092   7.008  1.6328  0.6620 -0.0532
   76SLPC   C35 6886   0.807   3.197   7.152  0.2607 -0.2202 -0.1978
   76SLPC   H5X 6887   0.712   3.150   7.119 -0.0430  2.0878 -2.9764
   76SLPC   H5Y 6888   0.791   3.297   7.199 -0.4770  0.6950 -2.2455
   76SLPC   C36 6889   0.875   3.101   7.261 -0.3122  0.2950  0.0179
   76SLPC   H6X 6890   0.974   3.141   7.290  0.8894 -2.2983 -0.3063
   76SLPC   H6Y 6891   0.902   3.006   7.212 -0.5204  0.1565  0.1661
   76SLPC   C37 6892   0.789   3.074   7.389  0.3556  0.2303  1.5123
   76SLPC   H7X 6893   0.688   3.030   7.369  0.6091 -1.6581  3.8578
   76SLPC   H7Y 6894   0.774   3.178   7.424 -0.0064  0.9400 -0.6349
   76SLPC   C38 6895   0.867   2.988   7.489  0.0790  0.0858  0.8617
   76SLPC   H8X 6896   0.974   3.017   7.476  0.2448 -1.1984 -1.0811
   76SLPC   H8Y 6897   0.866   2.884   7.449 -2.6565 -0.5783  2.4459
   76SLPC   C39 6898   0.820   2.989   7.634  0.1645 -0.2785 -0.4370
   76SLPC   H9X 6899   0.842   2.895   7.688 -0.0775  0.3293  0.7403
   76SLPC   H9Y 6900   0.710   3.004   7.629 -0.0589 -1.1649  1.2826
   76SLPC  C310 6901   0.894   3.094   7.718  0.5583 -0.4005 -0.3205
   76SLPC  H10X 6902   0.876   3.198   7.681 -1.7817 -1.6056 -3.0108
   76SLPC  H10Y 6903   1.003   3.077   7.727  0.2008 -2.8803 -0.2167
   76SLPC  C311 6904   0.840   3.072   7.860 -0.3514  0.0003  0.2168
   76SLPC  H11X 6905   0.729   3.070   7.856 -0.3434  0.9179 -0.9156
   76SLPC  H11Y 6906   0.862   3.165   7.917  1.3243  1.2014 -2.2260
   76SLPC  C312 6907   0.886   2.943   7.936  0.5315 -0.7364 -0.0021
   76SLPC  H12X 6908   0.995   2.933   7.919  0.2781 -0.4866 -1.9880
   76SLPC  H12Y 6909   0.839   2.851   7.894  2.9613 -1.5781 -1.0669
   76SLPC  C313 6910   0.851   2.960   8.079  0.0065 -0.0125 -0.8526
   76SLPC  H13X 6911   0.747   2.987   8.105  0.6063  1.2094  0.4505
   76SLPC  H13Y 6912   0.906   3.046   8.123  0.9296 -1.5209  1.1293
   76SLPC  C314 6913   0.895   2.832   8.157  0.2612  0.4174 -0.8751
   76SLPC  H14X 6914   0.994   2.807   8.112  0.6124  0.9499 -0.4240
   76SLPC  H14Y 6915   0.816   2.755   8.147 -0.1201  0.5201  0.9387
   76SLPC  C315 6916   0.922   2.854   8.307 -0.4648 -0.5178 -0.0360
   76SLPC  H15X 6917   0.991   2.940   8.317 -1.2634  0.4920 -2.4179
   76SLPC  H15Y 6918   0.964   2.765   8.359  1.5845  0.8086  0.6943
   76SLPC  C316 6919   0.801   2.907   8.390 -0.2333 -0.7841  0.5492
   76SLPC  H16X 6920   0.734   2.819   8.380 -1.5126  0.1009  1.1304
   76SLPC  H16Y 6921   0.761   2.997   8.338 -0.6156 -1.3937 -0.2278
   76SLPC  C317 6922   0.826   2.928   8.541  0.5032  0.0163  0.8459
   76SLPC  H17X 6923   0.866   2.833   8.582  1.0334  0.4876  1.4379
   76SLPC  H17Y 6924   0.726   2.945   8.586 -0.7604 -1.3070 -1.2875
   76SLPC  C318 6925   0.920   3.049   8.578 -0.1275 -0.4026  0.1503
   76SLPC  H18X 6926   1.019   3.038   8.529 -0.9176 -1.1959 -1.3313
   76SLPC  H18Y 6927   0.927   3.034   8.688 -0.8699  0.9406  0.3912
   76SLPC  H18Z 6928   0.856   3.134   8.548  1.5454 -0.2774 -3.6565
   77SLPC     N 6929   3.198   1.540   6.348 -0.0738 -0.1288 -0.5683
   77SLPC   C13 6930   3.057   1.540   6.305  0.1295  0.3259  0.8601
   77SLPC  H13A 6931   3.044   1.520   6.200 -2.7755 -0.1031  1.2325
   77SLPC  H13B 6932   3.008   1.466   6.367 -0.7092 -0.8450 -1.1151
   77SLPC  H13C 6933   3.002   1.633   6.305 -1.3737 -0.5340  1.0177
   77SLPC   C14 6934   3.210   1.590   6.490  0.4316  0.3369 -0.0588
   77SLPC  H14A 6935   3.293   1.545   6.543  3.1807  0.7253 -3.6345
   77SLPC  H14B 6936   3.242   1.693   6.486 -0.0951  0.4693 -2.5969
   77SLPC  H14C 6937   3.120   1.579   6.548  2.0420 -0.9537  2.3535
   77SLPC   C15 6938   3.279   1.644   6.263  0.5915 -0.6247  0.9789
   77SLPC  H15A 6939   3.268   1.617   6.159 -0.3299 -0.5264  1.0390
   77SLPC  H15B 6940   3.232   1.741   6.272 -0.2565 -0.3719 -3.7184
   77SLPC  H15C 6941   3.380   1.657   6.298  0.0856  1.8349  1.7069
   77SLPC   C12 6942   3.254   1.399   6.325 -0.6601 -0.3748 -0.5419
   77SLPC  H12A 6943   3.262   1.379   6.219 -2.0416 -0.6890 -0.6157
   77SLPC  H12B 6944   3.187   1.322   6.361 -0.8961  0.0008 -0.1642
   77SLPC   C11 6945   3.384   1.356   6.397  0.1606 -0.0562  0.6879
   77SLPC  H11A 6946   3.471   1.405   6.349  1.1651 -3.5390 -1.4080
   77SLPC  H11B 6947   3.400   1.247   6.377 -1.3751 -0.2160  0.1590
   77SLPC     P 6948   3.312   1.282   6.633  0.5608 -0.1763 -0.1215
   77SLPC   O13 6949   3.194   1.237   6.561 -0.0619  0.2015  0.0660
   77SLPC   O14 6950   3.404   1.192   6.694  0.3756  0.0345 -0.4438
   77SLPC   O12 6951   3.390   1.385   6.538  0.6747 -0.1353  0.2589
   77SLPC   O11 6952   3.253   1.368   6.752  0.1530  0.4067  0.2508
   77SLPC    C1 6953   3.351   1.452   6.818 -0.1177  0.1861  0.3394
   77SLPC    HA 6954   3.454   1.449   6.777 -0.4684  0.5465 -0.5836
   77SLPC    HB 6955   3.314   1.555   6.799 -0.5020  0.1129  0.6694
   77SLPC    C2 6956   3.352   1.428   6.975  0.8279 -0.4614 -0.5851
   77SLPC    HS 6957   3.383   1.527   7.016 -0.0604 -0.5926  0.4225
   77SLPC   O21 6958   3.440   1.326   7.020  0.3045 -0.0441  0.6612
   77SLPC   C21 6959   3.573   1.355   7.017  0.8258 -0.1283  0.1633
   77SLPC   O22 6960   3.607   1.471   6.994 -0.1868 -0.3638 -0.0010
   77SLPC   C22 6961   3.655   1.237   7.062  0.7509 -0.7799  0.0887
   77SLPC   H2R 6962   3.599   1.174   7.134  0.0784 -1.0616 -0.6686
   77SLPC   H2S 6963   3.673   1.188   6.964  0.2125  1.5153 -1.2446
   77SLPC    C3 6964   3.214   1.395   7.034 -0.1409 -0.4399 -0.7067
   77SLPC    HX 6965   3.169   1.323   6.962 -2.2454  2.8427 -3.0069
   77SLPC    HY 6966   3.150   1.486   7.037 -1.7507 -1.5331  2.9554
   77SLPC   O31 6967   3.225   1.353   7.169  0.1607 -0.1133 -0.2145
   77SLPC   C31 6968   3.199   1.233   7.190  0.1465 -0.0443 -0.8758
   77SLPC   O32 6969   3.149   1.155   7.112 -0.1482 -0.6614 -0.0693
   77SLPC   C32 6970   3.249   1.191   7.334 -0.1883 -0.3510  0.3161
   77SLPC   H2X 6971   3.171   1.227   7.405 -2.8538 -1.5333 -1.8201
   77SLPC   H2Y 6972   3.346   1.240   7.358 -0.3106  0.7178 -1.2089
   77SLPC   C23 6973   3.786   1.286   7.135  0.3616 -0.0725 -0.8872
   77SLPC   H3R 6974   3.828   1.363   7.067  0.3272 -1.5559 -2.6832
   77SLPC   H3S 6975   3.859   1.203   7.126  2.0176  1.0215  1.5182
   77SLPC   C24 6976   3.770   1.334   7.278  0.2956  0.3021 -0.2244
   77SLPC   H4R 6977   3.690   1.410   7.289  0.4793  0.2799  1.6180
   77SLPC   H4S 6978   3.859   1.390   7.315  0.0689  0.1108  0.6285
   77SLPC   C25 6979   3.727   1.226   7.380 -0.4427 -0.6558  0.1209
   77SLPC   H5R 6980   3.801   1.145   7.362 -0.9845 -1.1539  0.1462
   77SLPC   H5S 6981   3.622   1.195   7.363 -0.3265 -1.8141  1.3432
   77SLPC   C26 6982   3.746   1.264   7.531 -0.1150 -0.5933 -0.1532
   77SLPC   H6R 6983   3.666   1.334   7.563 -0.3972 -1.8697  2.0923
   77SLPC   H6S 6984   3.839   1.324   7.536 -0.8739  0.4795  2.0709
   77SLPC   C27 6985   3.751   1.139   7.621  0.1663  0.0112 -0.5533
   77SLPC   H7R 6986   3.845   1.084   7.601 -0.4293 -0.6809 -1.5330
   77SLPC   H7S 6987   3.667   1.071   7.597 -0.4661  1.1130 -1.5641
   77SLPC   C28 6988   3.780   1.148   7.772  0.4804  0.5589 -0.1005
   77SLPC   H8R 6989   3.872   1.207   7.792 -0.1881  0.7565  2.8539
   77SLPC   H8S 6990   3.792   1.052   7.826 -1.0013  1.3126  1.7015
   77SLPC   C29 6991   3.658   1.219   7.824  0.6651  0.9008  0.4096
   77SLPC   H9R 6992   3.631   1.313   7.774  0.9772  0.8404  0.1257
   77SLPC  C210 6993   3.580   1.184   7.935 -0.4012 -0.2101  0.1959
   77SLPC  H10R 6994   3.481   1.232   7.950 -0.1149  0.3895  0.2083
   77SLPC  C211 6995   3.611   1.067   8.028 -0.5288  0.4521  0.2185
   77SLPC  H11R 6996   3.711   1.020   8.024 -0.7804 -0.0213 -1.0691
   77SLPC  H11S 6997   3.535   0.987   8.013 -0.7380  0.7163 -0.1450
   77SLPC  C212 6998   3.589   1.109   8.168  0.4583 -0.3516  0.4402
   77SLPC  H12R 6999   3.621   1.212   8.191 -2.1377  1.0743 -1.8034
   77SLPC  C213 7000   3.521   1.043   8.264 -0.5531  0.5398  0.7347
   77SLPC  H13R 7001   3.500   1.087   8.363 -0.5092  0.6517  0.6948
   77SLPC  C214 7002   3.469   0.899   8.266 -0.3075  0.1864  0.0365
   77SLPC  H14R 7003   3.441   0.866   8.163 -0.8482 -0.9706  0.5404
   77SLPC  H14S 7004   3.377   0.894   8.327 -0.1113  3.2036  0.6943
   77SLPC  C215 7005   3.576   0.801   8.320 -0.1830  0.2357  0.9675
   77SLPC  H15R 7006   3.673   0.806   8.266 -1.6607 -1.2702 -2.0795
   77SLPC  H15S 7007   3.535   0.699   8.308  1.7393 -0.3954 -0.6009
   77SLPC  C216 7008   3.606   0.812   8.469  0.0732 -0.5690 -0.2098
   77SLPC  H16R 7009   3.668   0.903   8.487 -1.4836  0.3008  0.9488
   77SLPC  H16S 7010   3.674   0.728   8.496 -0.1602 -0.0788  2.0397
   77SLPC  C217 7011   3.500   0.818   8.586 -0.9227  0.0191  0.1830
   77SLPC  H17R 7012   3.448   0.720   8.592 -0.1950 -0.4338 -0.5896
   77SLPC  H17S 7013   3.429   0.901   8.565 -2.3699 -1.1239  0.4275
   77SLPC  C218 7014   3.559   0.847   8.725 -0.2653 -0.7608  0.7611
   77SLPC  H18R 7015   3.643   0.918   8.708 -1.2678  0.1946 -0.4203
   77SLPC  H18S 7016   3.616   0.762   8.769  1.9857 -0.6795 -1.7609
   77SLPC  H18T 7017   3.479   0.883   8.794 -1.6428 -0.6674 -0.8209
   77SLPC   C33 7018   3.285   1.041   7.345  0.3871  0.5885  0.3420
   77SLPC   H3X 7019   3.354   1.030   7.259 -0.1969  0.4139 -0.1144
   77SLPC   H3Y 7020   3.198   0.977   7.319  0.2417  2.0800 -3.5972
   77SLPC   C34 7021   3.357   1.009   7.470 -0.5671 -0.3309 -0.3523
   77SLPC   H4X 7022   3.451   1.066   7.483 -0.2187 -1.2455  1.6005
   77SLPC   H4Y 7023   3.378   0.900   7.481  0.5946 -0.0960 -0.0904
   77SLPC   C35 7024   3.274   1.045   7.597  0.4106 -0.7976  0.1701
   77SLPC   H5X 7025   3.163   1.046   7.587  0.2957  1.0684  1.3586
   77SLPC   H5Y 7026   3.287   1.153   7.618  3.0834 -0.8249 -0.9596
   77SLPC   C36 7027   3.332   0.969   7.715  0.0236  0.2626 -0.3262
   77SLPC   H6X 7028   3.319   1.030   7.806 -1.1109 -1.7763  0.9560
   77SLPC   H6Y 7029   3.442   0.976   7.702 -0.0796  1.9501 -0.5433
   77SLPC   C37 7030   3.272   0.833   7.747  0.3497 -0.2740 -0.0599
   77SLPC   H7X 7031   3.278   0.777   7.651  0.6063  2.4331 -1.7208
   77SLPC   H7Y 7032   3.164   0.847   7.767  0.2082  1.2606 -1.6647
   77SLPC   C38 7033   3.336   0.771   7.869 -1.2493  0.1533  0.3932
   77SLPC   H8X 7034   3.333   0.845   7.952 -1.4449  1.3192 -0.6159
   77SLPC   H8Y 7035   3.443   0.746   7.853 -1.1663  0.0599  1.0736
   77SLPC   C39 7036   3.274   0.638   7.917  0.9306 -0.0231  0.9061
   77SLPC   H9X 7037   3.241   0.581   7.828  0.7431  1.1725  0.1952
   77SLPC   H9Y 7038   3.179   0.671   7.964  0.2485  1.2955 -1.2677
   77SLPC  C310 7039   3.363   0.557   8.007 -0.1621  0.8638 -0.5750
   77SLPC  H10X 7040   3.425   0.626   8.068 -3.6400  1.3492  2.7595
   77SLPC  H10Y 7041   3.430   0.492   7.946  2.4187  2.1462  0.6885
   77SLPC  C311 7042   3.273   0.469   8.095 -0.4835 -0.1843  0.8011
   77SLPC  H11X 7043   3.233   0.393   8.023  2.4830 -0.4289 -0.7283
   77SLPC  H11Y 7044   3.185   0.530   8.125 -0.5523 -0.2125  0.6600
   77SLPC  C312 7045   3.343   0.384   8.207  0.3169 -0.1151 -0.2057
   77SLPC  H12X 7046   3.414   0.462   8.242  0.3794  0.4220 -1.4819
   77SLPC  H12Y 7047   3.400   0.296   8.168 -0.5376 -1.2797  1.0706
   77SLPC  C313 7048   3.251   0.342   8.322 -0.1908 -0.0923 -0.1672
   77SLPC  H13X 7049   3.174   0.271   8.287 -2.0394  1.4914  0.5147
   77SLPC  H13Y 7050   3.202   0.438   8.348  0.2650  0.7739 -2.2731
   77SLPC  C314 7051   3.331   0.279   8.438 -0.2301  0.5470  0.2907
   77SLPC  H14X 7052   3.407   0.338   8.493  0.8184 -0.5032  0.0189
   77SLPC  H14Y 7053   3.378   0.190   8.391 -0.9457 -0.0945  0.7601
   77SLPC  C315 7054   3.239   0.224   8.543  0.5900 -0.5794  0.0350
   77SLPC  H15X 7055   3.291   0.144   8.600  0.2532 -0.9184 -0.1369
   77SLPC  H15Y 7056   3.149   0.176   8.500 -0.0104 -0.2516  0.9003
   77SLPC  C316 7057   3.199   0.335   8.639  0.1492 -0.1707 -0.0570
   77SLPC  H16X 7058   3.179   0.430   8.586 -1.9524 -1.3146 -1.4559
   77SLPC  H16Y 7059   3.276   0.355   8.717  1.8283 -2.1601 -1.1015
   77SLPC  C317 7060   3.073   0.295   8.724  0.5625  0.4186 -0.2746
   77SLPC  H17X 7061   2.986   0.337   8.668 -0.8536  1.1134  2.2520
   77SLPC  H17Y 7062   3.075   0.352   8.819  2.8479 -0.7442  0.4435
   77SLPC  C318 7063   3.047   0.143   8.744 -0.0573 -0.2261  0.0697
   77SLPC  H18X 7064   3.144   0.096   8.773 -0.3334 -1.4522 -0.9178
   77SLPC  H18Y 7065   3.003   0.098   8.653 -0.1018  0.6955 -0.3813
   77SLPC  H18Z 7066   2.971   0.128   8.823  0.5749 -3.0658  0.2461
   78SLPC     N 7067   4.917   2.616   6.155  0.0932  0.0184 -0.4516
   78SLPC   C13 7068   5.001   2.499   6.202  0.1049  0.3434 -0.4480
   78SLPC  H13A 7069   4.990   2.481   6.308 -0.3810  3.2887  0.0735
   78SLPC  H13B 7070   4.967   2.405   6.162  1.2622 -1.7996  3.0876
   78SLPC  H13C 7071   5.104   2.506   6.169  1.1757 -2.2294  1.9444
   78SLPC   C14 7072   4.778   2.576   6.136  0.9974 -0.3548  0.2239
   78SLPC  H14A 7073   4.726   2.557   6.228 -2.5952  0.1669 -1.5039
   78SLPC  H14B 7074   4.724   2.658   6.091  2.9571  0.8361 -0.0400
   78SLPC  H14C 7075   4.769   2.489   6.072 -1.4078 -0.1699  0.2233
   78SLPC   C15 7076   4.974   2.652   6.016  0.1112 -0.6096 -0.7383
   78SLPC  H15A 7077   4.947   2.570   5.951 -1.5389 -1.3821  0.8287
   78SLPC  H15B 7078   4.922   2.739   5.981 -3.0558  0.0789  4.4991
   78SLPC  H15C 7079   5.081   2.664   6.028 -0.1461  0.7568  0.3669
   78SLPC   C12 7080   4.945   2.734   6.253  0.0645  0.1305 -0.0336
   78SLPC  H12A 7081   4.892   2.820   6.212 -0.0311 -0.0895 -0.3811
   78SLPC  H12B 7082   5.047   2.765   6.239 -0.2579  2.2407  1.7194
   78SLPC   C11 7083   4.908   2.713   6.399 -0.1891 -0.1886  0.3021
   78SLPC  H11A 7084   4.971   2.787   6.454 -0.2286 -1.3954  2.0437
   78SLPC  H11B 7085   4.938   2.611   6.432 -1.4355  0.0972  2.5397
   78SLPC     P 7086   4.696   2.865   6.400 -0.4120  0.1395 -0.0812
   78SLPC   O13 7087   4.769   2.956   6.307  0.2508  0.4233 -0.6333
   78SLPC   O14 7088   4.551   2.851   6.372  0.7341 -0.4190 -0.2753
   78SLPC   O12 7089   4.764   2.731   6.411 -0.1967  0.1261 -0.4003
   78SLPC   O11 7090   4.710   2.917   6.552  0.1887 -0.6176  0.3909
   78SLPC    C1 7091   4.616   2.885   6.661  0.1965 -0.2163 -0.4125
   78SLPC    HA 7092   4.607   2.970   6.732 -1.9816  0.9723 -1.9745
   78SLPC    HB 7093   4.513   2.880   6.618 -0.0093 -2.0950  0.2248
   78SLPC    C2 7094   4.635   2.749   6.728  0.1425  0.9037 -0.0206
   78SLPC    HS 7095   4.664   2.677   6.648  0.0198  2.1742 -1.2477
   78SLPC   O21 7096   4.513   2.708   6.796 -0.3346  0.4076 -0.6396
   78SLPC   C21 7097   4.508   2.577   6.820 -0.1492  0.3320  0.1049
   78SLPC   O22 7098   4.592   2.493   6.791 -0.2696 -0.6459 -0.6657
   78SLPC   C22 7099   4.376   2.550   6.897 -0.1478 -0.4880 -0.3670
   78SLPC   H2R 7100   4.343   2.644   6.946 -0.8979 -1.9042  2.0015
   78SLPC   H2S 7101   4.304   2.513   6.821  0.5572  0.1471 -1.3642
   78SLPC    C3 7102   4.759   2.752   6.817 -0.9311 -0.4701  0.5201
   78SLPC    HX 7103   4.836   2.756   6.738 -1.4144  0.1235  0.0686
   78SLPC    HY 7104   4.782   2.655   6.866  1.7125 -0.1186  0.1152
   78SLPC   O31 7105   4.761   2.865   6.908  0.7727 -0.5577 -0.0678
   78SLPC   C31 7106   4.722   2.834   7.032 -0.2926  0.5064 -0.1468
   78SLPC   O32 7107   4.687   2.731   7.077 -0.2492  0.1535  0.6136
   78SLPC   C32 7108   4.742   2.962   7.118 -0.2150 -0.0740 -0.2818
   78SLPC   H2X 7109   4.635   2.976   7.146 -1.6606 -2.5928 -3.8124
   78SLPC   H2Y 7110   4.787   3.043   7.057  0.9264 -0.8330 -0.4657
   78SLPC   C23 7111   4.383   2.442   7.015 -0.0145 -0.4603 -0.2398
   78SLPC   H3R 7112   4.438   2.347   6.996  0.3955 -0.5816  1.3906
   78SLPC   H3S 7113   4.277   2.418   7.039 -0.1767  0.1790 -0.3032
   78SLPC   C24 7114   4.443   2.515   7.140  0.2713  0.0310 -0.4345
   78SLPC   H4R 7115   4.348   2.542   7.190  0.6220  0.0020  0.2608
   78SLPC   H4S 7116   4.488   2.611   7.106 -2.7532  1.7029 -0.0650
   78SLPC   C25 7117   4.527   2.422   7.235 -0.4072  0.0376 -0.7658
   78SLPC   H5R 7118   4.466   2.330   7.248 -1.3069  0.6855 -0.2646
   78SLPC   H5S 7119   4.542   2.470   7.335  1.1877 -1.1818 -0.3897
   78SLPC   C26 7120   4.661   2.387   7.169  0.2099 -0.3400 -0.0037
   78SLPC   H6R 7121   4.713   2.480   7.139 -1.5807  1.1083  1.1753
   78SLPC   H6S 7122   4.655   2.331   7.073  0.8232 -0.0356 -0.2271
   78SLPC   C27 7123   4.751   2.288   7.249  0.6131  0.7335  0.7796
   78SLPC   H7R 7124   4.836   2.243   7.192 -1.0732 -4.0346  1.5469
   78SLPC   H7S 7125   4.689   2.198   7.268 -0.6021  1.7998  2.0416
   78SLPC   C28 7126   4.804   2.335   7.386 -0.5440 -0.0468 -0.2885
   78SLPC   H8R 7127   4.722   2.382   7.445 -0.4408  0.3603 -0.4647
   78SLPC   H8S 7128   4.870   2.421   7.362  1.9881 -1.6568  0.5726
   78SLPC   C29 7129   4.885   2.245   7.467 -0.2797 -0.0450  0.2616
   78SLPC   H9R 7130   4.955   2.183   7.409  1.0190  1.8603 -0.3124
   78SLPC  C210 7131   4.877   2.240   7.598 -0.9269 -0.0153 -0.4888
   78SLPC  H10R 7132   4.950   2.173   7.647  0.3087  1.3449 -0.3989
   78SLPC  C211 7133   4.787   2.325   7.691 -0.2223  0.2838 -0.3866
   78SLPC  H11R 7134   4.787   2.433   7.665 -2.8723  0.4253 -0.0532
   78SLPC  H11S 7135   4.827   2.319   7.794 -0.9571  0.0063 -0.1142
   78SLPC  C212 7136   4.652   2.258   7.700  0.7030 -0.6551 -0.1490
   78SLPC  H12R 7137   4.653   2.153   7.667  0.4037 -0.8508  0.4635
   78SLPC  C213 7138   4.534   2.319   7.727 -0.8726  0.5972 -0.2643
   78SLPC  H13R 7139   4.448   2.250   7.719  0.7481 -1.5299 -0.0969
   78SLPC  C214 7140   4.503   2.456   7.773  0.2221  0.6907 -0.5984
   78SLPC  H14R 7141   4.600   2.506   7.794  0.9049 -0.6986 -0.3040
   78SLPC  H14S 7142   4.478   2.435   7.880 -1.9526  0.8748 -1.0287
   78SLPC  C215 7143   4.408   2.538   7.689 -0.1115 -0.4354  0.4521
   78SLPC  H15R 7144   4.443   2.538   7.583 -0.6788 -1.0576  0.2529
   78SLPC  H15S 7145   4.404   2.644   7.721 -0.2927 -0.6592  1.1959
   78SLPC  C216 7146   4.267   2.492   7.699 -0.1478  0.4184  0.7780
   78SLPC  H16R 7147   4.233   2.499   7.805  1.0091  1.7330  1.0871
   78SLPC  H16S 7148   4.259   2.389   7.658 -2.0821  0.2376  1.4686
   78SLPC  C217 7149   4.177   2.574   7.596  0.0789  0.0269 -0.5713
   78SLPC  H17R 7150   4.202   2.681   7.612 -0.7719 -0.1765  3.0882
   78SLPC  H17S 7151   4.068   2.556   7.609 -0.1068 -2.3233 -4.0845
   78SLPC  C218 7152   4.204   2.532   7.452 -0.3553  0.3232 -1.1913
   78SLPC  H18R 7153   4.125   2.572   7.386  1.0407  2.5680 -1.6304
   78SLPC  H18S 7154   4.193   2.422   7.446  0.8577  0.0959  0.2117
   78SLPC  H18T 7155   4.294   2.581   7.407 -0.3153  0.5656 -0.8448
   78SLPC   C33 7156   4.825   2.955   7.248  0.0234  0.5551  0.3685
   78SLPC   H3X 7157   4.930   2.924   7.229 -0.3978 -2.3796  2.2059
   78SLPC   H3Y 7158   4.780   2.874   7.309 -0.7031  0.4005 -0.3610
   78SLPC   C34 7159   4.817   3.081   7.346  0.4406  0.6446 -0.6554
   78SLPC   H4X 7160   4.722   3.138   7.344 -1.0998 -1.6377  1.2968
   78SLPC   H4Y 7161   4.891   3.159   7.317  1.2616  0.1755  0.0861
   78SLPC   C35 7162   4.849   3.028   7.489 -0.0083 -0.1944 -1.1307
   78SLPC   H5X 7163   4.876   3.111   7.558 -1.6640 -1.2424  0.9328
   78SLPC   H5Y 7164   4.935   2.959   7.475 -1.6933 -2.6740 -0.1136
   78SLPC   C36 7165   4.732   2.947   7.554  0.5511  0.7731 -0.5738
   78SLPC   H6X 7166   4.743   2.841   7.524  0.1273  0.3753  0.6323
   78SLPC   H6Y 7167   4.632   2.983   7.522  0.0499  0.7093  0.8330
   78SLPC   C37 7168   4.745   2.951   7.705  0.0738  0.0534  0.8580
   78SLPC   H7X 7169   4.746   3.057   7.739  2.0358  0.2643  0.2476
   78SLPC   H7Y 7170   4.831   2.888   7.736  0.7274  0.5603  0.1236
   78SLPC   C38 7171   4.627   2.883   7.773 -0.3773  0.0133  0.4719
   78SLPC   H8X 7172   4.616   2.777   7.743 -0.9059  0.0509  0.5270
   78SLPC   H8Y 7173   4.533   2.923   7.730  1.4332  2.4751 -1.4725
   78SLPC   C39 7174   4.622   2.894   7.929  0.4486 -0.6526  0.6888
   78SLPC   H9X 7175   4.604   2.997   7.966 -0.5885 -0.8923  0.8776
   78SLPC   H9Y 7176   4.725   2.870   7.963  1.1970 -1.0379 -1.6335
   78SLPC  C310 7177   4.525   2.795   7.992 -0.3260  0.4374 -1.1922
   78SLPC  H10X 7178   4.568   2.695   7.969 -0.6963  0.2154 -0.9044
   78SLPC  H10Y 7179   4.424   2.803   7.946 -2.1662  0.2996  2.4881
   78SLPC  C311 7180   4.522   2.814   8.146  0.0063 -0.6864  0.2252
   78SLPC  H11X 7181   4.628   2.823   8.176  0.4124  0.5856 -1.4440
   78SLPC  H11Y 7182   4.481   2.722   8.194 -0.2485 -0.4846  0.4043
   78SLPC  C312 7183   4.445   2.940   8.185 -0.0913  0.1140 -0.1827
   78SLPC  H12X 7184   4.342   2.931   8.143 -0.0912  2.6549 -0.8824
   78SLPC  H12Y 7185   4.489   3.031   8.138 -0.2586 -0.2508 -1.0783
   78SLPC  C313 7186   4.441   2.962   8.339 -0.0902  0.0724 -0.2143
   78SLPC  H13X 7187   4.388   2.873   8.380  1.8678 -1.7866 -1.4728
   78SLPC  H13Y 7188   4.391   3.060   8.356 -1.6566 -0.8460  0.7149
   78SLPC  C314 7189   4.585   2.977   8.395  0.1116  0.8249 -0.2216
   78SLPC  H14X 7190   4.629   2.876   8.384 -0.0304  0.4302  2.2215
   78SLPC  H14Y 7191   4.568   2.988   8.504  2.0114 -2.2049  0.4761
   78SLPC  C315 7192   4.672   3.087   8.332  0.0638 -0.2527  0.3906
   78SLPC  H15X 7193   4.677   3.101   8.222  1.3626  1.2358  0.6032
   78SLPC  H15Y 7194   4.778   3.066   8.359  0.7446  1.1865 -0.9881
   78SLPC  C316 7195   4.643   3.223   8.399  1.0911  0.2523  0.2326
   78SLPC  H16X 7196   4.619   3.217   8.507  2.6597  3.1516  0.8286
   78SLPC  H16Y 7197   4.550   3.259   8.350 -0.5521 -1.8369  1.6389
   78SLPC  C317 7198   4.763   3.320   8.410 -0.1087  1.2477 -0.1895
   78SLPC  H17X 7199   4.807   3.327   8.308  0.3940  0.4148 -0.0446
   78SLPC  H17Y 7200   4.843   3.291   8.481  0.0342  2.4762  0.1654
   78SLPC  C318 7201   4.717   3.459   8.471 -0.4887  0.4668  0.3756
   78SLPC  H18X 7202   4.669   3.427   8.566  0.2737 -1.3193  0.2007
   78SLPC  H18Y 7203   4.644   3.505   8.402  0.7089  0.5702 -0.8664
   78SLPC  H18Z 7204   4.803   3.525   8.498  0.2462  0.2086 -1.2110
   79SLPC     N 7205   2.621   6.376   5.959 -0.0674 -0.0316 -0.2257
   79SLPC   C13 7206   2.476   6.418   5.971  0.1548 -0.1598  0.4125
   79SLPC  H13A 7207   2.477   6.509   6.030  0.8307 -1.4502  2.4823
   79SLPC  H13B 7208   2.431   6.434   5.874  0.4780 -1.8163 -0.0367
   79SLPC  H13C 7209   2.416   6.344   6.021 -1.2033  1.1887  0.8524
   79SLPC   C14 7210   2.674   6.434   5.831  0.4428 -0.0960  0.2560
   79SLPC  H14A 7211   2.780   6.413   5.822  0.6928  1.3675 -0.5665
   79SLPC  H14B 7212   2.622   6.393   5.746 -1.1154  0.6602  0.8155
   79SLPC  H14C 7213   2.669   6.541   5.821  0.9145  0.1140  1.9400
   79SLPC   C15 7214   2.634   6.226   5.944  0.0948 -0.4493  0.0100
   79SLPC  H15A 7215   2.555   6.182   5.885  0.3539 -0.5016 -0.3008
   79SLPC  H15B 7216   2.732   6.195   5.912  0.4476 -0.4796  1.0773
   79SLPC  H15C 7217   2.630   6.179   6.041 -0.0881 -0.3689  0.0422
   79SLPC   C12 7218   2.698   6.425   6.079 -0.6097 -0.3950  0.0859
   79SLPC  H12A 7219   2.651   6.385   6.168  2.0642 -0.7958  1.4269
   79SLPC  H12B 7220   2.689   6.532   6.087  1.1937 -0.1691 -0.2721
   79SLPC   C11 7221   2.856   6.403   6.089  0.1796  0.0703 -0.2979
   79SLPC  H11A 7222   2.889   6.470   6.171 -0.6762  1.5978 -1.1448
   79SLPC  H11B 7223   2.909   6.440   5.999 -2.1800 -2.5614 -2.9921
   79SLPC     P 7224   2.907   6.205   6.251  0.2264 -0.4494  0.0954
   79SLPC   O13 7225   2.778   6.238   6.319  0.2711 -0.4291 -0.1649
   79SLPC   O14 7226   2.952   6.061   6.258 -0.1300 -0.1749  0.2543
   79SLPC   O12 7227   2.901   6.269   6.107  0.2726  0.2924  0.2561
   79SLPC   O11 7228   3.019   6.283   6.327 -0.0802  0.0179  0.0313
   79SLPC    C1 7229   3.152   6.283   6.291  0.4292 -0.2496  0.4790
   79SLPC    HA 7230   3.180   6.230   6.197  1.1241  0.5396  0.2280
   79SLPC    HB 7231   3.178   6.388   6.266 -1.6399  0.8314  2.5740
   79SLPC    C2 7232   3.247   6.239   6.404  0.1880  0.5688 -0.5478
   79SLPC    HS 7233   3.226   6.135   6.437 -1.2333  1.5669  2.0016
   79SLPC   O21 7234   3.220   6.325   6.521 -0.1324  0.2116  0.5171
   79SLPC   C21 7235   3.125   6.282   6.608 -0.3783 -0.3129 -0.4319
   79SLPC   O22 7236   3.070   6.172   6.603 -0.6907 -0.2798  0.2197
   79SLPC   C22 7237   3.101   6.394   6.710  0.0173  0.3591 -0.9716
   79SLPC   H2R 7238   3.189   6.443   6.757 -0.5315 -1.6248  2.4394
   79SLPC   H2S 7239   3.039   6.473   6.663 -0.9460 -0.0374 -0.4017
   79SLPC    C3 7240   3.392   6.259   6.377 -0.5060 -0.3717  0.3206
   79SLPC    HX 7241   3.406   6.343   6.306 -0.1541 -1.9874 -1.5811
   79SLPC    HY 7242   3.413   6.169   6.315  0.9064 -0.4667  0.8852
   79SLPC   O31 7243   3.476   6.260   6.491 -0.2519  0.3714 -0.0313
   79SLPC   C31 7244   3.493   6.378   6.554  0.6527  0.1121  0.4801
   79SLPC   O32 7245   3.471   6.485   6.501  0.0334  0.2943  0.7261
   79SLPC   C32 7246   3.558   6.368   6.692  0.0010 -0.0775 -0.3067
   79SLPC   H2X 7247   3.663   6.400   6.676 -0.3464  2.1355  1.4482
   79SLPC   H2Y 7248   3.550   6.260   6.718 -0.3602 -0.2580 -1.1637
   79SLPC   C23 7249   3.022   6.331   6.824 -0.1309 -0.2341  0.5832
   79SLPC   H3R 7250   3.076   6.237   6.853  1.7347  0.0858 -1.5773
   79SLPC   H3S 7251   2.923   6.316   6.777  1.0805  0.5379 -2.4098
   79SLPC   C24 7252   3.009   6.412   6.949 -0.2498  0.0701  0.3348
   79SLPC   H4R 7253   3.109   6.427   6.994 -0.8770  2.4615  1.0905
   79SLPC   H4S 7254   2.942   6.352   7.015 -1.5399  0.0573 -0.9546
   79SLPC   C25 7255   2.939   6.540   6.929  0.0218  0.8807 -0.1656
   79SLPC   H5R 7256   2.834   6.510   6.908  0.4378 -0.7572 -0.0394
   79SLPC   H5S 7257   2.990   6.607   6.856  0.4525  3.3057  2.1826
   79SLPC   C26 7258   2.941   6.627   7.061 -0.2351 -0.1846 -0.2254
   79SLPC   H6R 7259   3.048   6.652   7.075 -0.5352  0.6439  0.6327
   79SLPC   H6S 7260   2.916   6.562   7.148  0.4147  1.6054  1.3564
   79SLPC   C27 7261   2.848   6.749   7.057  0.5350 -0.2209  0.6508
   79SLPC   H7R 7262   2.741   6.726   7.038  0.7374  0.5977 -1.7532
   79SLPC   H7S 7263   2.879   6.806   6.967 -1.4104  3.4799  2.1005
   79SLPC   C28 7264   2.862   6.822   7.192 -0.1087  0.4624  0.4464
   79SLPC   H8R 7265   2.834   6.749   7.271 -3.3391  2.1786  1.0627
   79SLPC   H8S 7266   2.774   6.889   7.187 -0.7430 -0.4488 -2.5456
   79SLPC   C29 7267   2.988   6.887   7.231 -0.7493  0.0644 -0.0161
   79SLPC   H9R 7268   3.025   6.966   7.163  0.7413 -0.9317 -0.4258
   79SLPC  C210 7269   3.065   6.844   7.334 -0.2548  0.1063  0.2227
   79SLPC  H10R 7270   3.147   6.908   7.369 -0.1127  0.0091  0.0716
   79SLPC  C211 7271   3.041   6.721   7.419  0.2726  0.5211 -0.4922
   79SLPC  H11R 7272   3.011   6.632   7.359  0.3612  0.1359  0.0262
   79SLPC  H11S 7273   2.962   6.755   7.488 -1.9524 -1.4531 -1.9250
   79SLPC  C212 7274   3.160   6.670   7.491 -0.0126  0.2496 -0.0301
   79SLPC  H12R 7275   3.255   6.700   7.444 -0.8587  0.3352 -1.7511
   79SLPC  C213 7276   3.161   6.605   7.613  0.3030 -0.0646 -1.0746
   79SLPC  H13R 7277   3.252   6.561   7.654  0.8555 -0.8545 -3.0178
   79SLPC  C214 7278   3.038   6.559   7.689  0.0475 -0.0801  0.5336
   79SLPC  H14R 7279   2.953   6.538   7.620 -0.2829 -0.7002  1.1193
   79SLPC  H14S 7280   2.998   6.637   7.756 -0.3162  0.3485 -0.1631
   79SLPC  C215 7281   3.056   6.428   7.764  0.0634 -0.2167  0.6286
   79SLPC  H15R 7282   3.139   6.450   7.835 -0.7911  0.6318  1.3978
   79SLPC  H15S 7283   3.090   6.342   7.702 -1.5668 -0.3459 -0.1099
   79SLPC  C216 7284   2.933   6.403   7.852  0.0186  0.7582 -0.2977
   79SLPC  H16R 7285   2.845   6.391   7.785  0.5265 -0.8697 -0.7097
   79SLPC  H16S 7286   2.913   6.485   7.924 -0.0499 -0.4435  1.0819
   79SLPC  C217 7287   2.947   6.274   7.933 -0.1869 -0.2697 -0.9868
   79SLPC  H17R 7288   3.045   6.272   7.986 -0.0942 -0.6869 -1.1691
   79SLPC  H17S 7289   2.946   6.183   7.870  2.7648  0.1039 -1.7173
   79SLPC  C218 7290   2.816   6.252   8.019  0.4941  0.0744  0.2079
   79SLPC  H18R 7291   2.789   6.345   8.073  2.1215  2.6252 -2.9940
   79SLPC  H18S 7292   2.831   6.174   8.096 -0.0313 -1.3344 -1.0664
   79SLPC  H18T 7293   2.727   6.231   7.957  0.7351 -0.7763  0.1373
   79SLPC   C33 7294   3.495   6.457   6.793 -0.1151  0.6386 -0.6879
   79SLPC   H3X 7295   3.406   6.513   6.757 -1.0674 -0.8412 -0.7285
   79SLPC   H3Y 7296   3.566   6.529   6.838  1.8417 -2.0184  0.7510
   79SLPC   C34 7297   3.445   6.375   6.916 -0.2669 -0.1303 -0.2889
   79SLPC   H4X 7298   3.513   6.291   6.942 -1.5146 -1.1629 -0.2481
   79SLPC   H4Y 7299   3.346   6.333   6.889 -0.9217  2.5261 -2.4725
   79SLPC   C35 7300   3.421   6.474   7.035 -0.1535  0.3186 -0.3510
   79SLPC   H5X 7301   3.333   6.538   7.014  0.5907  1.9608  1.3252
   79SLPC   H5Y 7302   3.518   6.526   7.045  0.7053 -1.2023 -0.3933
   79SLPC   C36 7303   3.403   6.398   7.160 -1.0194 -0.6113 -1.5090
   79SLPC   H6X 7304   3.498   6.345   7.182 -0.6663  0.1350 -1.2014
   79SLPC   H6Y 7305   3.324   6.321   7.144 -0.9714 -0.9087 -0.4409
   79SLPC   C37 7306   3.372   6.484   7.284 -0.0966  0.2329 -0.3405
   79SLPC   H7X 7307   3.327   6.416   7.359 -1.8064 -1.3389 -2.6552
   79SLPC   H7Y 7308   3.282   6.543   7.258 -2.2966 -3.1032 -0.8409
   79SLPC   C38 7309   3.482   6.582   7.329 -0.0984 -0.2944  0.1187
   79SLPC   H8X 7310   3.462   6.613   7.434  1.9052  1.4954  0.0210
   79SLPC   H8Y 7311   3.488   6.666   7.257  1.8790 -0.6194 -0.1523
   79SLPC   C39 7312   3.624   6.526   7.340  0.2673 -0.2505 -0.3431
   79SLPC   H9X 7313   3.688   6.613   7.365  0.2702 -0.7694  1.5917
   79SLPC   H9Y 7314   3.661   6.476   7.248  0.4144 -1.6904  0.4670
   79SLPC  C310 7315   3.643   6.409   7.443  0.9414 -0.2035 -0.3323
   79SLPC  H10X 7316   3.720   6.335   7.412  1.5967  0.2150  0.2676
   79SLPC  H10Y 7317   3.554   6.342   7.446 -1.2100  2.3944 -1.3199
   79SLPC  C311 7318   3.695   6.450   7.587 -0.1217  0.1742 -0.2402
   79SLPC  H11X 7319   3.636   6.540   7.612  0.1226 -0.2014  1.8648
   79SLPC  H11Y 7320   3.797   6.490   7.569 -0.2985 -0.2083 -2.2894
   79SLPC  C312 7321   3.686   6.330   7.690 -0.9037  0.2539 -0.0595
   79SLPC  H12X 7322   3.772   6.265   7.664  1.1415  1.6981  2.5562
   79SLPC  H12Y 7323   3.592   6.276   7.666 -2.7872  1.8257  3.1002
   79SLPC  C313 7324   3.699   6.350   7.836  0.0834 -0.1595  0.1819
   79SLPC  H13X 7325   3.601   6.393   7.867  0.8987  1.9866 -0.0655
   79SLPC  H13Y 7326   3.771   6.431   7.858  0.4134 -0.6919  1.0890
   79SLPC  C314 7327   3.730   6.216   7.909 -0.5683 -1.1247 -0.1685
   79SLPC  H14X 7328   3.824   6.173   7.870 -0.0602  2.8981 -4.1938
   79SLPC  H14Y 7329   3.654   6.137   7.894  0.2312 -1.8387 -0.5197
   79SLPC  C315 7330   3.729   6.234   8.065 -0.5566  0.0564  0.9892
   79SLPC  H15X 7331   3.799   6.320   8.075  0.0851 -0.6091  2.6249
   79SLPC  H15Y 7332   3.775   6.143   8.107 -1.4816 -1.9238 -2.0096
   79SLPC  C316 7333   3.597   6.253   8.137 -0.3499 -0.2706  0.3977
   79SLPC  H16X 7334   3.531   6.169   8.106  0.8217 -0.4745 -1.6940
   79SLPC  H16Y 7335   3.553   6.348   8.100 -1.5145 -0.9291  0.0496
   79SLPC  C317 7336   3.622   6.251   8.296 -0.2783  0.3787  0.5834
   79SLPC  H17X 7337   3.703   6.325   8.307  0.0880  0.0404  0.2142
   79SLPC  H17Y 7338   3.666   6.153   8.324  0.0738 -1.0308 -3.9774
   79SLPC  C318 7339   3.500   6.283   8.374 -0.1921  0.2805 -0.2741
   79SLPC  H18X 7340   3.471   6.390   8.364  0.5397  0.4449 -0.7629
   79SLPC  H18Y 7341   3.510   6.262   8.483 -1.4463  1.3357  0.0589
   79SLPC  H18Z 7342   3.414   6.220   8.343  1.0502 -2.2936  1.2113
   80SLPC     N 7343   4.527   3.349   6.314  0.4804  0.6881 -0.6478
   80SLPC   C13 7344   4.574   3.226   6.248 -0.1611  0.0185  0.7627
   80SLPC  H13A 7345   4.601   3.253   6.147  1.5876 -0.4157  1.0766
   80SLPC  H13B 7346   4.660   3.179   6.294 -0.8312 -2.1126 -0.0554
   80SLPC  H13C 7347   4.505   3.145   6.234  2.4915 -1.9483 -2.1984
   80SLPC   C14 7348   4.422   3.400   6.220  0.2437  0.4384 -0.0418
   80SLPC  H14A 7349   4.330   3.350   6.244  1.2363 -0.7951  1.3492
   80SLPC  H14B 7350   4.397   3.504   6.237 -2.5255 -0.5339  2.5336
   80SLPC  H14C 7351   4.456   3.375   6.120  2.3342  0.2104  0.6690
   80SLPC   C15 7352   4.637   3.442   6.327 -0.7777  0.3876  0.3837
   80SLPC  H15A 7353   4.679   3.454   6.228 -1.1414  0.8008  0.2767
   80SLPC  H15B 7354   4.601   3.539   6.355 -1.2129  0.0959  0.8618
   80SLPC  H15C 7355   4.700   3.413   6.410  0.3502  4.3752  1.0883
   80SLPC   C12 7356   4.464   3.317   6.450 -0.5326  0.1844  0.2385
   80SLPC  H12A 7357   4.417   3.403   6.494 -0.9626 -0.7737  1.7104
   80SLPC  H12B 7358   4.544   3.300   6.520 -2.0885  0.9524  2.2941
   80SLPC   C11 7359   4.371   3.196   6.454 -0.4211 -0.2507 -0.0591
   80SLPC  H11A 7360   4.343   3.183   6.561 -0.7431 -0.0380 -0.1169
   80SLPC  H11B 7361   4.416   3.098   6.425 -1.6670 -1.0784  0.7055
   80SLPC     P 7362   4.145   3.118   6.343  0.6465  0.1712 -0.1133
   80SLPC   O13 7363   4.022   3.184   6.296 -0.6870  0.0071  0.1332
   80SLPC   O14 7364   4.197   3.011   6.255  0.7976  0.3531 -0.2932
   80SLPC   O12 7365   4.252   3.228   6.373 -0.8095 -0.5837  0.0933
   80SLPC   O11 7366   4.111   3.061   6.487  0.5576 -0.1373 -0.6055
   80SLPC    C1 7367   4.032   3.129   6.583  0.4371  0.3044 -0.5768
   80SLPC    HA 7368   4.069   3.232   6.603  2.0898 -0.5520  1.0897
   80SLPC    HB 7369   3.928   3.150   6.549 -0.1070 -0.3822  0.5999
   80SLPC    C2 7370   4.008   3.049   6.715 -0.2524  0.1070 -0.1125
   80SLPC    HS 7371   3.958   3.108   6.796  0.1111 -0.7887  0.7889
   80SLPC   O21 7372   4.137   3.003   6.761 -0.1933  0.6076  0.3610
   80SLPC   C21 7373   4.207   3.076   6.843 -0.1923  0.2214  0.0598
   80SLPC   O22 7374   4.165   3.179   6.889 -0.6186 -0.1581  0.3503
   80SLPC   C22 7375   4.341   3.015   6.867 -0.1269  0.1400  0.1542
   80SLPC   H2R 7376   4.350   2.914   6.822 -0.4627 -0.4205  1.3193
   80SLPC   H2S 7377   4.409   3.064   6.794  0.5255 -2.5708 -1.1913
   80SLPC    C3 7378   3.921   2.920   6.682  0.5545 -0.1880  0.3548
   80SLPC    HX 7379   3.978   2.862   6.607 -0.0465 -0.4994  0.1387
   80SLPC    HY 7380   3.832   2.969   6.638  0.6582 -0.2296  0.1000
   80SLPC   O31 7381   3.882   2.841   6.794  0.4642  0.1648 -0.1094
   80SLPC   C31 7382   3.959   2.741   6.832 -0.8584 -0.6937 -0.0963
   80SLPC   O32 7383   4.067   2.711   6.780  0.3522 -0.0272 -0.1936
   80SLPC   C32 7384   3.894   2.683   6.964 -0.1368 -0.0487 -0.2572
   80SLPC   H2X 7385   3.968   2.605   6.994 -0.0714  0.2223  0.2971
   80SLPC   H2Y 7386   3.800   2.628   6.944 -1.2528  1.3147  1.1197
   80SLPC   C23 7387   4.374   3.023   7.016  0.2367  0.0241  1.5927
   80SLPC   H3R 7388   4.361   3.123   7.063  2.0180  0.5786  0.9959
   80SLPC   H3S 7389   4.478   2.986   7.028  0.4462  0.5037  1.2735
   80SLPC   C24 7390   4.291   2.924   7.101  0.3206 -0.7091  0.7449
   80SLPC   H4R 7391   4.282   2.828   7.047 -2.3898  0.3436 -0.8841
   80SLPC   H4S 7392   4.185   2.951   7.117 -0.1661 -1.5210 -0.9288
   80SLPC   C25 7393   4.360   2.888   7.234  1.2457  1.1678  0.1409
   80SLPC   H5R 7394   4.455   2.835   7.215  1.3645  0.8202  1.6557
   80SLPC   H5S 7395   4.304   2.814   7.294 -0.3499  1.7494 -0.5689
   80SLPC   C26 7396   4.399   3.002   7.320  0.2979 -0.2587  0.0176
   80SLPC   H6R 7397   4.462   3.067   7.255 -0.8319  0.0680 -0.7832
   80SLPC   H6S 7398   4.465   2.954   7.396 -1.5152 -0.8132  1.3060
   80SLPC   C27 7399   4.279   3.088   7.385 -0.2071  0.8542 -0.3363
   80SLPC   H7R 7400   4.211   3.010   7.425  3.4012 -2.2824  0.2459
   80SLPC   H7S 7401   4.222   3.146   7.309 -2.4610 -0.1257  0.5064
   80SLPC   C28 7402   4.330   3.175   7.501  0.3379 -0.6496 -0.6229
   80SLPC   H8R 7403   4.418   3.237   7.474  1.6805 -2.2867 -0.2291
   80SLPC   H8S 7404   4.361   3.104   7.581  1.3184 -2.3156 -2.4017
   80SLPC   C29 7405   4.219   3.269   7.546  0.7276 -0.1934 -1.3374
   80SLPC   H9R 7406   4.169   3.324   7.464 -2.0343 -3.7376 -2.3287
   80SLPC  C210 7407   4.186   3.291   7.676 -0.3348 -0.2924  0.0094
   80SLPC  H10R 7408   4.104   3.359   7.704 -1.0230 -1.2472  0.3649
   80SLPC  C211 7409   4.237   3.227   7.800 -0.5942  0.2331 -0.1054
   80SLPC  H11R 7410   4.338   3.186   7.778  0.3270  2.3294 -0.0275
   80SLPC  H11S 7411   4.175   3.140   7.831  0.1202 -0.2668 -0.0650
   80SLPC  C212 7412   4.240   3.324   7.911 -0.5779  0.4192  0.0281
   80SLPC  H12R 7413   4.323   3.396   7.894  1.0180 -0.7281  2.3919
   80SLPC  C213 7414   4.150   3.350   8.013 -0.0952 -0.6625  0.6336
   80SLPC  H13R 7415   4.161   3.441   8.073  2.2113 -1.9860  2.3608
   80SLPC  C214 7416   4.014   3.283   8.023 -0.1839 -0.2055  0.0285
   80SLPC  H14R 7417   3.993   3.236   7.924  1.1003 -1.1561  0.1947
   80SLPC  H14S 7418   3.941   3.360   8.055 -0.1478  0.2831 -1.0201
   80SLPC  C215 7419   4.018   3.174   8.128 -0.2566 -0.4388  0.1206
   80SLPC  H15R 7420   4.071   3.204   8.221  0.8667 -0.7867 -0.3920
   80SLPC  H15S 7421   4.068   3.084   8.086 -2.0011 -0.2983 -2.4950
   80SLPC  C216 7422   3.876   3.126   8.166 -0.0721 -0.0446 -0.0125
   80SLPC  H16R 7423   3.831   3.111   8.066  0.8665  1.5090 -0.6922
   80SLPC  H16S 7424   3.828   3.212   8.218 -1.9074 -0.9254 -0.1798
   80SLPC  C217 7425   3.865   2.990   8.241 -0.5772 -0.4560  0.2515
   80SLPC  H17R 7426   3.889   2.999   8.349  1.8154 -0.3200 -0.2465
   80SLPC  H17S 7427   3.937   2.916   8.201  0.2645 -1.4624  3.3746
   80SLPC  C218 7428   3.727   2.929   8.230  0.1121  0.6833 -0.9506
   80SLPC  H18R 7429   3.723   2.835   8.289 -2.0316 -0.6557 -3.0094
   80SLPC  H18S 7430   3.714   2.894   8.125  1.5016 -0.6276 -0.7212
   80SLPC  H18T 7431   3.642   2.993   8.264  0.8460  1.7285 -1.0215
   80SLPC   C33 7432   3.866   2.782   7.078 -0.0267 -0.4606 -0.1811
   80SLPC   H3X 7433   3.809   2.863   7.026 -0.9555 -1.0991 -0.1856
   80SLPC   H3Y 7434   3.950   2.841   7.119  1.8276 -2.7048 -0.5428
   80SLPC   C34 7435   3.787   2.723   7.190 -0.2613  0.5786 -0.4174
   80SLPC   H4X 7436   3.858   2.651   7.235 -0.1514  1.4674  0.8810
   80SLPC   H4Y 7437   3.697   2.671   7.149 -0.5286  1.3839 -0.9035
   80SLPC   C35 7438   3.744   2.834   7.291 -0.1536 -0.6027 -0.8462
   80SLPC   H5X 7439   3.666   2.898   7.246  0.7985  0.2538 -1.3195
   80SLPC   H5Y 7440   3.833   2.893   7.322 -0.1188 -1.6518  1.2104
   80SLPC   C36 7441   3.688   2.767   7.423  0.6163  0.0563  0.4907
   80SLPC   H6X 7442   3.656   2.662   7.404 -0.4857  0.5598 -0.5605
   80SLPC   H6Y 7443   3.600   2.828   7.454  2.0367  3.0638 -0.9307
   80SLPC   C37 7444   3.781   2.756   7.544 -0.7399 -0.0295 -0.7091
   80SLPC   H7X 7445   3.827   2.853   7.573  1.2882 -1.1113 -0.1197
   80SLPC   H7Y 7446   3.860   2.682   7.520 -2.1300 -1.3446 -1.3373
   80SLPC   C38 7447   3.717   2.694   7.666  0.1169  0.6918 -0.0731
   80SLPC   H8X 7448   3.647   2.611   7.645 -0.2557  0.8642  0.4504
   80SLPC   H8Y 7449   3.648   2.768   7.712  1.2788  0.3012  2.5184
   80SLPC   C39 7450   3.823   2.654   7.775  0.3570  0.1668  0.2556
   80SLPC   H9X 7451   3.875   2.568   7.729 -2.3571 -1.5116  0.1174
   80SLPC   H9Y 7452   3.772   2.600   7.858  0.5252 -0.4118 -0.0140
   80SLPC  C310 7453   3.913   2.770   7.821 -0.1953  0.1367 -0.3846
   80SLPC  H10X 7454   3.846   2.849   7.862 -0.7372 -0.1833 -0.6397
   80SLPC  H10Y 7455   3.963   2.818   7.734  1.5601  0.2623  0.6414
   80SLPC  C311 7456   4.034   2.719   7.910  0.5990  0.1318  0.5575
   80SLPC  H11X 7457   4.103   2.802   7.938  0.8134  0.6236 -1.3176
   80SLPC  H11Y 7458   4.099   2.648   7.856  0.6386 -0.7581  1.7410
   80SLPC  C312 7459   3.974   2.647   8.031 -0.2630  0.3497 -0.4404
   80SLPC  H12X 7460   3.902   2.562   8.033  0.6035 -0.4335  3.1866
   80SLPC  H12Y 7461   3.921   2.727   8.087 -0.6143  0.5462 -1.0442
   80SLPC  C313 7462   4.095   2.597   8.113 -0.3260  0.1823  0.6095
   80SLPC  H13X 7463   4.179   2.670   8.107  0.3741 -0.6646 -0.5681
   80SLPC  H13Y 7464   4.138   2.517   8.049 -0.2348 -1.9131  3.1283
   80SLPC  C314 7465   4.051   2.537   8.250 -0.2068  0.7179 -0.4571
   80SLPC  H14X 7466   3.999   2.442   8.223 -1.3011  1.1880 -0.0441
   80SLPC  H14Y 7467   3.984   2.607   8.304 -1.2476 -0.8915  0.4302
   80SLPC  C315 7468   4.169   2.523   8.348 -0.4234 -0.1034  0.2179
   80SLPC  H15X 7469   4.248   2.599   8.331  1.5788 -1.7944  1.4841
   80SLPC  H15Y 7470   4.209   2.422   8.324 -3.3112 -1.3029  0.0163
   80SLPC  C316 7471   4.145   2.545   8.501  0.2487  0.4654  0.0229
   80SLPC  H16X 7472   4.227   2.499   8.561 -0.9158  0.9986  2.1238
   80SLPC  H16Y 7473   4.048   2.500   8.531  1.1609 -1.5466  0.0994
   80SLPC  C317 7474   4.146   2.693   8.536  0.5623  0.2426  0.1327
   80SLPC  H17X 7475   4.069   2.752   8.482  1.8653  1.3153 -0.6202
   80SLPC  H17Y 7476   4.244   2.743   8.515  0.9516 -0.4021  0.3789
   80SLPC  C318 7477   4.101   2.710   8.679 -0.1571  0.3101 -0.2913
   80SLPC  H18X 7478   4.101   2.817   8.707  0.6511  0.2132  0.1186
   80SLPC  H18Y 7479   4.178   2.666   8.746  0.2789  2.8460  0.9938
   80SLPC  H18Z 7480   4.002   2.663   8.699 -0.1981  0.7209  0.5204
   81SAPS     N 7481   4.397   6.008  11.137 -0.0379  0.3692  0.3818
   81SAPS   HN1 7482   4.367   6.004  11.037 -2.3736  1.5710  0.9483
   81SAPS   HN2 7483   4.314   6.021  11.199 -0.6362 -0.3694 -0.2354
   81SAPS   HN3 7484   4.449   6.095  11.163 -3.1179  1.7554  2.5586
   81SAPS   C12 7485   4.474   5.893  11.181 -0.5354 -0.1644 -0.0272
   81SAPS  H12A 7486   4.550   5.875  11.107  0.7241  1.5912  0.7617
   81SAPS   C13 7487   4.557   5.916  11.311 -0.6058  0.2605  0.8780
   81SAPS  O13A 7488   4.559   6.028  11.368 -0.1981 -0.1652  0.7391
   81SAPS  O13B 7489   4.623   5.821  11.358  0.3331  0.0105  0.4341
   81SAPS   C11 7490   4.374   5.776  11.196  0.2896  0.1107  0.1018
   81SAPS  H11A 7491   4.295   5.807  11.268  0.4618  1.4390 -0.2458
   81SAPS  H11B 7492   4.433   5.691  11.235  0.0620  0.0755  0.3726
   81SAPS     P 7493   4.189   5.637  11.075  0.2020  0.1706  0.2613
   81SAPS   O13 7494   4.202   5.540  11.189  0.3870 -0.2993  0.0805
   81SAPS   O14 7495   4.062   5.712  11.083  0.3538 -0.2382 -0.1467
   81SAPS   O12 7496   4.305   5.745  11.069  0.3078  0.9702 -0.1009
   81SAPS   O11 7497   4.206   5.553  10.938  0.7989 -0.0857  0.0019
   81SAPS    C1 7498   4.282   5.585  10.833 -0.3266 -0.6784  0.1750
   81SAPS    HA 7499   4.269   5.691  10.806  0.2262 -0.9569 -1.2550
   81SAPS    HB 7500   4.390   5.579  10.857 -0.2262 -1.2334 -0.3902
   81SAPS    C2 7501   4.269   5.491  10.717  0.5045  0.5329 -0.2268
   81SAPS    HS 7502   4.348   5.514  10.642  0.1358  0.3067 -0.6892
   81SAPS   O21 7503   4.137   5.502  10.663 -0.0715  0.0873 -0.2434
   81SAPS   C21 7504   4.116   5.602  10.581  0.6489 -0.1747 -0.4489
   81SAPS   O22 7505   4.194   5.668  10.513 -0.3487 -0.3569  0.0240
   81SAPS   C22 7506   3.962   5.614  10.561 -0.2726  0.5928 -0.0937
   81SAPS   H2R 7507   3.922   5.512  10.545  0.8806  0.2115 -0.6194
   81SAPS   H2S 7508   3.932   5.665  10.656 -0.1316  1.5038 -0.5229
   81SAPS    C3 7509   4.286   5.340  10.767  0.9731  0.0081 -0.4881
   81SAPS    HX 7510   4.208   5.306  10.839  1.6621  0.6035  0.5751
   81SAPS    HY 7511   4.385   5.328  10.817  0.2503 -1.1777  0.7523
   81SAPS   O31 7512   4.285   5.253  10.660 -0.3263  0.7722 -0.1183
   81SAPS   C31 7513   4.165   5.218  10.610 -0.3322  0.6352 -0.0703
   81SAPS   O32 7514   4.057   5.239  10.667  0.3829  0.1366  0.3200
   81SAPS   C32 7515   4.180   5.133  10.485  0.5621  0.3229  0.0960
   81SAPS   H2X 7516   4.080   5.087  10.467  0.4645  0.1188  1.0968
   81SAPS   H2Y 7517   4.244   5.046  10.510 -2.0645 -1.6460  0.3523
   81SAPS   C23 7518   3.913   5.722  10.456  0.0307 -0.1530 -0.9163
   81SAPS   H3R 7519   3.979   5.810  10.471  1.6908 -1.1820 -1.8664
   81SAPS   H3S 7520   3.808   5.740  10.488 -0.1151 -0.4232 -1.2441
   81SAPS   C24 7521   3.926   5.687  10.301 -0.1475  0.9911  0.2867
   81SAPS   H4R 7522   3.850   5.614  10.266  1.8924 -0.2856 -1.7894
   81SAPS   H4S 7523   4.017   5.626  10.281 -0.0694  0.9167  0.8724
   81SAPS   C25 7524   3.926   5.807  10.213  0.2157 -0.4527 -0.5140
   81SAPS   H5R 7525   3.964   5.902  10.255 -1.5315  0.0605 -0.0189
   81SAPS   C26 7526   3.877   5.823  10.090  0.0222 -0.4814 -0.1249
   81SAPS   H6R 7527   3.900   5.914  10.033 -0.3811 -0.7870 -0.7878
   81SAPS   C27 7528   3.820   5.717  10.005  0.6483  0.2869  0.1557
   81SAPS   H7R 7529   3.745   5.759   9.934 -0.3301 -2.8440 -0.8037
   81SAPS   H7S 7530   3.763   5.642  10.064 -3.0809  2.0088 -0.9009
   81SAPS   C28 7531   3.929   5.652   9.920  0.0281 -0.0750 -0.2328
   81SAPS   H8R 7532   4.015   5.612   9.975  0.0176  1.8007  1.2476
   81SAPS   C29 7533   3.939   5.654   9.781 -0.4198  0.3137 -0.2043
   81SAPS   H9R 7534   4.030   5.609   9.739 -2.1510 -0.8046 -3.0235
   81SAPS  C210 7535   3.844   5.718   9.687 -0.1883  0.4525 -0.5109
   81SAPS  H10R 7536   3.752   5.753   9.737  0.1145 -0.6477  0.8769
   81SAPS  H10S 7537   3.818   5.638   9.613  1.2351  0.5697 -1.1844
   81SAPS  C211 7538   3.908   5.838   9.620  0.4190  0.8082 -0.4282
   81SAPS  H11R 7539   3.914   5.926   9.685  0.3694 -0.9487  2.0617
   81SAPS  C212 7540   3.948   5.854   9.492  0.0040 -0.7502  0.2232
   81SAPS  H12R 7541   4.010   5.942   9.472 -2.6312  1.7372  2.1810
   81SAPS  C213 7542   3.934   5.751   9.389 -0.7266  0.1831  0.5997
   81SAPS  H13R 7543   3.898   5.804   9.298 -1.6401  1.9841  1.9518
   81SAPS  H13S 7544   3.862   5.673   9.423  1.3342 -0.7370  3.1932
   81SAPS  C214 7545   4.063   5.671   9.371 -0.1933 -0.4415  0.8420
   81SAPS  H14R 7546   4.091   5.634   9.471  0.5400  0.6960  1.0710
   81SAPS  C215 7547   4.143   5.672   9.265  0.7073 -0.3179  0.2826
   81SAPS  H15R 7548   4.241   5.621   9.261  0.1620 -1.4155 -4.2285
   81SAPS  C216 7549   4.115   5.736   9.136 -0.4944 -0.2976  0.1040
   81SAPS  H16R 7550   4.189   5.816   9.114 -0.8235 -0.2169 -0.7743
   81SAPS  H16S 7551   4.023   5.797   9.133  1.1094  2.5108  2.6334
   81SAPS  C217 7552   4.105   5.638   9.018 -0.0667 -0.2232 -0.3941
   81SAPS  H17R 7553   4.021   5.566   9.021  0.6675 -1.0664  1.4974
   81SAPS  H17S 7554   4.197   5.576   9.031  1.2732  1.3933 -1.6082
   81SAPS  C218 7555   4.092   5.709   8.885 -0.0751 -0.4246 -0.5507
   81SAPS  H18R 7556   4.175   5.783   8.886  0.9997 -1.6111 -0.1259
   81SAPS  H18S 7557   4.000   5.772   8.894  0.7218  1.0137 -1.9069
   81SAPS  C219 7558   4.108   5.627   8.760 -0.1736 -0.0649 -0.2881
   81SAPS  H19R 7559   4.212   5.588   8.761  0.8393  2.3924 -1.1587
   81SAPS  H19S 7560   4.093   5.696   8.674  1.3171 -0.2087 -0.6978
   81SAPS  C220 7561   4.010   5.517   8.730  0.3256  0.8537  0.4420
   81SAPS  H20R 7562   4.054   5.446   8.658 -0.4936 -0.2681  1.0146
   81SAPS  H20S 7563   3.910   5.552   8.696  0.2805 -0.1696 -0.5214
   81SAPS  H20T 7564   3.994   5.450   8.817  1.0388 -2.3399 -1.7231
   81SAPS   C33 7565   4.228   5.199  10.359 -0.1217  0.7694  0.6392
   81SAPS   H3X 7566   4.231   5.123  10.278  2.6941 -0.0119  1.3490
   81SAPS   H3Y 7567   4.331   5.240  10.358  0.8441 -1.5113  0.4725
   81SAPS   C34 7568   4.137   5.314  10.297 -0.7494  0.4022  0.1075
   81SAPS   H4X 7569   4.125   5.393  10.374 -2.3462  1.4085 -1.1039
   81SAPS   H4Y 7570   4.033   5.277  10.281 -0.4473 -1.3910  1.7835
   81SAPS   C35 7571   4.207   5.375  10.174  0.7248  0.7097  0.2908
   81SAPS   H5X 7572   4.317   5.380  10.185  0.6727  1.9303  0.3701
   81SAPS   H5Y 7573   4.179   5.481  10.158 -1.1810 -0.1454 -3.0200
   81SAPS   C36 7574   4.161   5.313  10.038 -0.2392 -0.0758  0.0644
   81SAPS   H6X 7575   4.061   5.355  10.014 -0.3739  0.6224  1.7665
   81SAPS   H6Y 7576   4.144   5.204  10.047 -2.6567  0.2888  0.6240
   81SAPS   C37 7577   4.270   5.342   9.930 -0.1315 -0.5487  0.4466
   81SAPS   H7X 7578   4.347   5.262   9.936 -0.4441 -0.9074 -0.1773
   81SAPS   H7Y 7579   4.318   5.440   9.950 -2.3126  0.1408  2.8957
   81SAPS   C38 7580   4.193   5.344   9.798 -0.1013  0.5268  0.0954
   81SAPS   H8X 7581   4.117   5.425   9.799  0.3080  0.9173  1.5509
   81SAPS   H8Y 7582   4.142   5.246   9.783 -2.4405  1.1979  2.7410
   81SAPS   C39 7583   4.280   5.372   9.674  0.3788 -1.0511  0.6864
   81SAPS   H9X 7584   4.358   5.295   9.659  1.8284  0.7026 -1.6327
   81SAPS   H9Y 7585   4.342   5.464   9.684 -2.3960  1.2511 -1.2215
   81SAPS  C310 7586   4.197   5.386   9.541 -0.7936  0.2881  0.2427
   81SAPS  H10X 7587   4.266   5.440   9.473  0.3222 -0.1150  1.0196
   81SAPS  H10Y 7588   4.109   5.451   9.561 -1.0467 -0.3091  1.1567
   81SAPS  C311 7589   4.159   5.255   9.481 -0.1515  0.4261 -0.1423
   81SAPS  H11X 7590   4.079   5.201   9.538 -0.4478 -0.4872 -1.3954
   81SAPS  H11Y 7591   4.250   5.193   9.496 -2.2406 -2.4871  1.8235
   81SAPS  C312 7592   4.116   5.252   9.332 -0.0390 -0.2631  0.1168
   81SAPS  H12X 7593   4.023   5.311   9.321  0.2072 -0.1438 -1.5060
   81SAPS  H12Y 7594   4.088   5.147   9.307 -0.3493 -0.1994  0.1909
   81SAPS  C313 7595   4.213   5.305   9.228 -0.0170 -0.0807  0.7700
   81SAPS  H13X 7596   4.238   5.413   9.232 -1.2915  0.3168 -0.9548
   81SAPS  H13Y 7597   4.151   5.298   9.136 -1.4122 -1.3057  1.7565
   81SAPS  C314 7598   4.334   5.216   9.218 -0.2911 -0.6851 -1.2759
   81SAPS  H14X 7599   4.301   5.109   9.213  0.5402 -1.1387  1.3755
   81SAPS  H14Y 7600   4.384   5.232   9.315  0.6261 -0.4083 -1.7813
   81SAPS  C315 7601   4.439   5.237   9.103  1.6058 -0.3366 -0.5329
   81SAPS  H15X 7602   4.516   5.158   9.109  1.2067 -0.6588  0.7614
   81SAPS  H15Y 7603   4.462   5.346   9.102  1.1255 -0.2214 -2.2014
   81SAPS  C316 7604   4.370   5.225   8.963 -0.4753 -0.1614 -0.2321
   81SAPS  H16X 7605   4.263   5.253   8.954 -0.1977  0.7290 -0.8444
   81SAPS  H16Y 7606   4.369   5.122   8.923 -1.3727  0.4383 -1.8507
   81SAPS  C317 7607   4.436   5.322   8.860 -0.0558  0.3457 -0.6171
   81SAPS  H17X 7608   4.544   5.299   8.858 -0.5483 -2.3337  0.1322
   81SAPS  H17Y 7609   4.427   5.426   8.898 -0.8458  0.5136 -1.2306
   81SAPS  C318 7610   4.380   5.317   8.717  0.4616  0.0469 -0.0481
   81SAPS  H18X 7611   4.459   5.343   8.644  0.3984 -0.4935 -0.3148
   81SAPS  H18Y 7612   4.291   5.383   8.706  0.7135  0.4668  0.3804
   81SAPS  H18Z 7613   4.362   5.214   8.681  2.0730  0.1305 -1.2098
   82SAPS     N 7614   0.824   3.450  11.010  0.1757 -0.3072 -0.0432
   82SAPS   HN1 7615   0.819   3.548  10.975  3.7088 -0.5500 -1.7267
   82SAPS   HN2 7616   0.926   3.428  11.017 -0.0334 -0.7014  3.8106
   82SAPS   HN3 7617   0.778   3.392  10.938  0.6812 -1.3708  0.4654
   82SAPS   C12 7618   0.757   3.446  11.137 -0.5394 -0.4692 -0.9440
   82SAPS  H12A 7619   0.757   3.346  11.179 -1.3875  0.5347  1.6802
   82SAPS   C13 7620   0.817   3.542  11.252 -0.0923 -0.0028 -0.5217
   82SAPS  O13A 7621   0.946   3.550  11.245  0.0715 -0.5515  0.3052
   82SAPS  O13B 7622   0.755   3.540  11.361  0.1444  0.4649  0.3764
   82SAPS   C11 7623   0.606   3.481  11.120  0.5884  0.2876 -0.4302
   82SAPS  H11A 7624   0.583   3.587  11.097 -3.0498 -0.9092 -3.4559
   82SAPS  H11B 7625   0.558   3.459  11.218 -1.2673  0.6436 -1.2036
   82SAPS     P 7626   0.416   3.443  10.940 -0.2082  0.4000 -0.0695
   82SAPS   O13 7627   0.399   3.337  10.837  0.0063 -0.0878 -0.1096
   82SAPS   O14 7628   0.309   3.466  11.035 -0.0733 -0.2053 -0.4033
   82SAPS   O12 7629   0.549   3.404  11.017 -0.2849 -0.0531 -0.1197
   82SAPS   O11 7630   0.433   3.581  10.868 -0.3944  0.1033  1.0063
   82SAPS    C1 7631   0.555   3.608  10.793 -0.6989  0.2537 -0.2677
   82SAPS    HA 7632   0.594   3.705  10.832  0.0260  0.7189 -2.0863
   82SAPS    HB 7633   0.636   3.536  10.817 -1.6370 -0.1259  2.0989
   82SAPS    C2 7634   0.528   3.616  10.640  0.3231  0.2193  0.0926
   82SAPS    HS 7635   0.544   3.519  10.588  0.4068  2.4038 -4.3943
   82SAPS   O21 7636   0.613   3.711  10.587 -0.2132 -0.6347  0.1017
   82SAPS   C21 7637   0.725   3.677  10.547  0.2794  0.2420  0.4754
   82SAPS   O22 7638   0.775   3.566  10.543  0.0029  0.3685 -0.1371
   82SAPS   C22 7639   0.789   3.801  10.481 -0.2990  0.2388  1.3581
   82SAPS   H2R 7640   0.727   3.838  10.396  1.2755  2.4875  1.1034
   82SAPS   H2S 7641   0.797   3.877  10.562  3.2628  0.8347  0.6025
   82SAPS    C3 7642   0.387   3.663  10.609  0.5047 -1.0863  0.2004
   82SAPS    HX 7643   0.360   3.747  10.676  0.9206  0.2418 -1.2366
   82SAPS    HY 7644   0.308   3.594  10.647 -2.6343  2.7426  1.2215
   82SAPS   O31 7645   0.356   3.711  10.471 -0.4642  0.0443  0.1258
   82SAPS   C31 7646   0.335   3.609  10.382 -0.3893 -0.6265  0.8685
   82SAPS   O32 7647   0.334   3.491  10.409 -0.4637 -0.3383 -0.1406
   82SAPS   C32 7648   0.336   3.670  10.234  0.0839  0.0201 -0.1043
   82SAPS   H2X 7649   0.443   3.673  10.204 -0.0162  0.1134 -0.4685
   82SAPS   H2Y 7650   0.296   3.774  10.234 -1.0022 -0.3480  1.9830
   82SAPS   C23 7651   0.934   3.773  10.428  0.3656 -0.9172  0.3431
   82SAPS   H3R 7652   0.933   3.697  10.347  1.4688 -0.6224  0.0473
   82SAPS   H3S 7653   0.991   3.737  10.517  0.2791 -0.6730  0.4991
   82SAPS   C24 7654   0.992   3.901  10.358 -0.2441  0.3485 -1.2129
   82SAPS   H4R 7655   1.101   3.878  10.348 -0.4549 -0.8081 -1.0323
   82SAPS   H4S 7656   0.994   3.981  10.435  0.8608  0.3593 -1.2372
   82SAPS   C25 7657   0.938   3.945  10.222  0.4678 -0.5131 -0.0083
   82SAPS   H5R 7658   0.830   3.932  10.208  0.2655  0.3542  0.6709
   82SAPS   C26 7659   1.020   4.007  10.130  0.1941  0.3853  0.0597
   82SAPS   H6R 7660   0.975   4.054  10.041  0.9523  1.0768  0.0312
   82SAPS   C27 7661   1.170   4.021  10.134 -0.0331  0.0289  0.4223
   82SAPS   H7R 7662   1.214   3.948  10.062 -0.2446  1.2340 -0.9822
   82SAPS   H7S 7663   1.218   3.982  10.226  0.4661  1.3177  0.7249
   82SAPS   C28 7664   1.226   4.154  10.087 -0.7408 -0.3856 -0.5989
   82SAPS   H8R 7665   1.263   4.225  10.162 -0.1009  0.0904 -1.3431
   82SAPS   C29 7666   1.255   4.197   9.959  0.3378  0.8864  0.8791
   82SAPS   H9R 7667   1.305   4.291   9.932 -1.4847  1.4199 -0.9176
   82SAPS  C210 7668   1.217   4.132   9.836  0.4808 -0.3390 -0.2106
   82SAPS  H10R 7669   1.178   4.203   9.760 -1.1468  0.8122  1.6201
   82SAPS  H10S 7670   1.138   4.058   9.859  1.2634 -0.0588  4.2716
   82SAPS  C211 7671   1.332   4.046   9.778 -0.6805  0.1880 -0.5813
   82SAPS  H11R 7672   1.387   3.992   9.856  0.8691  1.2587 -0.8911
   82SAPS  C212 7673   1.358   4.035   9.653  0.1919 -0.0655  0.4238
   82SAPS  H12R 7674   1.418   3.952   9.611 -1.0077 -1.9232  2.2131
   82SAPS  C213 7675   1.289   4.116   9.552 -0.6555 -0.2643  0.8861
   82SAPS  H13R 7676   1.300   4.224   9.576  0.3752 -0.2059  0.2203
   82SAPS  H13S 7677   1.180   4.095   9.546 -0.4532 -1.3563  0.9205
   82SAPS  C214 7678   1.355   4.095   9.416 -0.4882 -0.0379 -1.0830
   82SAPS  H14R 7679   1.442   4.160   9.402  0.7250 -1.5967 -0.9543
   82SAPS  C215 7680   1.344   4.001   9.322 -0.7664  0.5410 -0.6411
   82SAPS  H15R 7681   1.400   4.007   9.228 -1.1201  0.9976 -0.8315
   82SAPS  C216 7682   1.244   3.891   9.328  0.6224 -0.4464 -0.0802
   82SAPS  H16R 7683   1.142   3.934   9.317  1.3377  1.7646  1.2135
   82SAPS  H16S 7684   1.252   3.845   9.429  0.3780  0.8666  0.5688
   82SAPS  C217 7685   1.257   3.787   9.225  0.1962 -0.0787  0.3240
   82SAPS  H17R 7686   1.184   3.707   9.247  0.3136 -0.3882 -0.3930
   82SAPS  H17S 7687   1.352   3.735   9.247 -0.5307 -0.7105  2.2285
   82SAPS  C218 7688   1.260   3.836   9.078  0.6709  0.1535  0.4407
   82SAPS  H18R 7689   1.283   3.741   9.026  3.1815  0.2005  1.3568
   82SAPS  H18S 7690   1.349   3.894   9.045 -0.8066  3.1826  1.3720
   82SAPS  C219 7691   1.129   3.900   9.024  0.3728 -0.1872 -0.1097
   82SAPS  H19R 7692   1.142   3.924   8.916 -0.9818  1.3200  0.0220
   82SAPS  H19S 7693   1.107   3.999   9.069 -3.4203 -0.2960 -1.3371
   82SAPS  C220 7694   0.998   3.823   9.030 -0.0059  0.0862  0.8051
   82SAPS  H20R 7695   1.018   3.719   8.995 -1.6796  0.0164 -0.0854
   82SAPS  H20S 7696   0.923   3.869   8.962  0.6026 -0.1755 -0.0507
   82SAPS  H20T 7697   0.958   3.814   9.133 -0.0501 -2.3887  0.6443
   82SAPS   C33 7698   0.262   3.587  10.131 -0.7959 -0.1151 -0.3211
   82SAPS   H3X 7699   0.157   3.554  10.147  0.0751 -3.0658 -0.0798
   82SAPS   H3Y 7700   0.320   3.493  10.118  0.5991  0.5458  0.8773
   82SAPS   C34 7701   0.254   3.654   9.990 -0.5764 -0.2018  0.1971
   82SAPS   H4X 7702   0.358   3.672   9.955 -0.5817 -0.1412  0.2144
   82SAPS   H4Y 7703   0.198   3.750   9.990  1.0304  0.8299 -2.3922
   82SAPS   C35 7704   0.204   3.549   9.890 -0.7460 -0.6120  0.0132
   82SAPS   H5X 7705   0.108   3.512   9.932 -0.0160 -1.8346  0.6495
   82SAPS   H5Y 7706   0.283   3.471   9.899  1.4257  1.5789  1.1801
   82SAPS   C36 7707   0.187   3.608   9.751  0.2196 -0.0800  0.6956
   82SAPS   H6X 7708   0.195   3.519   9.685  1.3594  1.1248 -0.8372
   82SAPS   H6Y 7709   0.276   3.668   9.724  0.9682 -1.4770 -0.0853
   82SAPS   C37 7710   0.058   3.694   9.723  0.6638 -0.2683 -0.7077
   82SAPS   H7X 7711   0.060   3.784   9.789 -2.5670  0.4827 -1.4606
   82SAPS   H7Y 7712  -0.033   3.639   9.754  0.3285  0.8577  0.4138
   82SAPS   C38 7713   0.048   3.712   9.570 -0.2447 -0.8176  0.7660
   82SAPS   H8X 7714  -0.054   3.735   9.532 -0.3202 -0.6850  1.0457
   82SAPS   H8Y 7715   0.083   3.617   9.524 -1.7489 -0.1409 -1.9669
   82SAPS   C39 7716   0.138   3.822   9.518 -0.4040 -0.1774 -0.1796
   82SAPS   H9X 7717   0.235   3.841   9.568 -1.0334  1.1926  0.5711
   82SAPS   H9Y 7718   0.084   3.919   9.524  0.5726  0.3062  0.8724
   82SAPS  C310 7719   0.173   3.812   9.365  0.3482 -0.1083  0.0077
   82SAPS  H10X 7720   0.217   3.905   9.324  3.1394 -0.4100  1.9974
   82SAPS  H10Y 7721   0.070   3.801   9.324  0.4511  2.2460 -1.0092
   82SAPS  C311 7722   0.258   3.689   9.329  0.2503 -0.7525 -0.9370
   82SAPS  H11X 7723   0.198   3.596   9.329  1.2721 -1.5458  2.1719
   82SAPS  H11Y 7724   0.334   3.686   9.411  1.4014  0.3323 -1.9212
   82SAPS  C312 7725   0.314   3.701   9.195 -0.8533 -0.4020 -0.5771
   82SAPS  H12X 7726   0.377   3.614   9.169  2.7126  2.1865 -1.2714
   82SAPS  H12Y 7727   0.397   3.774   9.191 -0.7011 -0.6307 -2.2701
   82SAPS  C313 7728   0.208   3.720   9.080 -0.4914  0.5308  0.4688
   82SAPS  H13X 7729   0.127   3.789   9.110 -0.0664  0.0069  3.0683
   82SAPS  H13Y 7730   0.159   3.622   9.057  0.8523  0.4082 -2.1939
   82SAPS  C314 7731   0.271   3.792   8.961 -0.7050 -0.0597 -0.2001
   82SAPS  H14X 7732   0.196   3.794   8.880 -1.6887  0.6061  0.6937
   82SAPS  H14Y 7733   0.354   3.728   8.926 -2.6574 -1.7870 -1.8918
   82SAPS  C315 7734   0.333   3.928   8.989 -0.5837  0.0161  0.3740
   82SAPS  H15X 7735   0.422   3.913   9.053  0.6795 -1.2185 -1.5792
   82SAPS  H15Y 7736   0.269   3.989   9.057 -1.4852 -0.4691 -0.0139
   82SAPS  C316 7737   0.369   3.995   8.852 -0.1861  0.1433  0.0620
   82SAPS  H16X 7738   0.439   3.935   8.791 -0.3831 -0.4494  0.4096
   82SAPS  H16Y 7739   0.431   4.083   8.879 -0.2037 -0.1992  1.2724
   82SAPS  C317 7740   0.248   4.038   8.773  0.1429 -0.6517  0.4563
   82SAPS  H17X 7741   0.169   4.066   8.846 -0.7579  0.9510 -1.0707
   82SAPS  H17Y 7742   0.217   3.963   8.698  1.0593  0.2598 -0.8637
   82SAPS  C318 7743   0.288   4.168   8.692 -0.3814  0.4482 -0.6137
   82SAPS  H18X 7744   0.371   4.138   8.625 -0.5903 -4.2020  0.8169
   82SAPS  H18Y 7745   0.318   4.250   8.760 -1.7250 -0.6704  1.4550
   82SAPS  H18Z 7746   0.207   4.217   8.634 -1.8140  0.5073  1.3308
   83SAPS     N 7747   3.858   5.652  11.260 -0.5189  0.4979  0.3043
   83SAPS   HN1 7748   3.803   5.608  11.184 -1.0172 -0.5287  1.2241
   83SAPS   HN2 7749   3.947   5.682  11.216  0.2269  0.0590  1.4445
   83SAPS   HN3 7750   3.889   5.579  11.328 -0.8757  0.6179  0.6015
   83SAPS   C12 7751   3.772   5.765  11.307 -0.7482  0.5670  0.6126
   83SAPS  H12A 7752   3.731   5.820  11.224  0.1273  0.7197  0.2720
   83SAPS   C13 7753   3.659   5.725  11.405  0.0200 -0.1385  0.2291
   83SAPS  O13A 7754   3.644   5.607  11.449 -0.6134 -0.3552 -0.9610
   83SAPS  O13B 7755   3.585   5.813  11.451 -1.1288 -0.0114  0.2138
   83SAPS   C11 7756   3.871   5.845  11.392  0.0869 -0.0432 -0.5189
   83SAPS  H11A 7757   3.908   5.785  11.478  0.2323 -1.9491 -1.8435
   83SAPS  H11B 7758   3.821   5.928  11.447  2.6449  0.8712  0.6254
   83SAPS     P 7759   4.010   6.040  11.279  0.2373 -0.2445  0.3995
   83SAPS   O13 7760   3.968   6.110  11.406  0.0980 -0.0800 -0.4435
   83SAPS   O14 7761   4.147   6.072  11.234  0.4523  0.2335  0.4596
   83SAPS   O12 7762   3.986   5.886  11.308 -1.1706 -0.3400  0.4847
   83SAPS   O11 7763   3.912   6.092  11.165 -0.1048 -0.3901  0.1493
   83SAPS    C1 7764   3.886   6.012  11.047  0.2996  0.3128  0.4551
   83SAPS    HA 7765   3.842   5.913  11.071  0.1978  0.0925 -0.5856
   83SAPS    HB 7766   3.811   6.069  10.988  1.5083  2.8317  1.2355
   83SAPS    C2 7767   4.012   5.985  10.951  0.1913  0.6791  0.1821
   83SAPS    HS 7768   4.093   5.940  11.013 -0.1270 -2.6870 -1.5887
   83SAPS   O21 7769   4.059   6.108  10.887  0.3753 -0.3905  0.1843
   83SAPS   C21 7770   4.190   6.106  10.848 -0.0467 -0.1784  0.6253
   83SAPS   O22 7771   4.272   6.023  10.889 -0.0033 -0.1460  0.2815
   83SAPS   C22 7772   4.225   6.226  10.773  0.1105  0.3320  0.3435
   83SAPS   H2R 7773   4.141   6.298  10.773  0.4975  0.8928  3.2245
   83SAPS   H2S 7774   4.308   6.276  10.826 -0.4719  2.5228 -0.7061
   83SAPS    C3 7775   3.980   5.890  10.832  0.0582 -0.2257 -0.9424
   83SAPS    HX 7776   3.976   5.789  10.877  1.0630 -0.1142 -0.5627
   83SAPS    HY 7777   4.063   5.886  10.758  1.1850 -0.2910  0.2901
   83SAPS   O31 7778   3.849   5.929  10.776 -0.4973  0.2787  0.2094
   83SAPS   C31 7779   3.861   6.014  10.671 -0.3778 -0.5428 -0.1292
   83SAPS   O32 7780   3.968   6.037  10.614  0.3414 -0.0865  0.7217
   83SAPS   C32 7781   3.730   6.089  10.647 -0.9259  0.1915  0.0139
   83SAPS   H2X 7782   3.701   6.127  10.747  0.7663  0.8388  0.2880
   83SAPS   H2Y 7783   3.657   6.020  10.599 -0.3804 -0.4242  0.0558
   83SAPS   C23 7784   4.271   6.203  10.626 -0.0319 -0.7588  0.0026
   83SAPS   H3R 7785   4.186   6.161  10.568 -0.0762 -0.7190  0.0386
   83SAPS   H3S 7786   4.353   6.128  10.634  1.4422  0.6374 -1.1211
   83SAPS   C24 7787   4.329   6.324  10.549 -0.5135 -0.5550 -0.7892
   83SAPS   H4R 7788   4.364   6.290  10.450  0.1885  0.1783 -0.8053
   83SAPS   H4S 7789   4.420   6.356  10.603  0.0659 -3.5522  0.1795
   83SAPS   C25 7790   4.216   6.428  10.530 -0.7018  0.4431  0.4196
   83SAPS   H5R 7791   4.183   6.477  10.623  0.8942  2.8461 -0.2042
   83SAPS   C26 7792   4.163   6.467  10.406 -0.3705 -0.8014 -0.2621
   83SAPS   H6R 7793   4.083   6.541  10.417 -0.5067 -0.8431 -0.9165
   83SAPS   C27 7794   4.187   6.421  10.267 -0.0137  0.4033  0.4393
   83SAPS   H7R 7795   4.089   6.441  10.220 -1.6849 -0.0112  3.4904
   83SAPS   H7S 7796   4.207   6.312  10.259  1.7306  0.3834  3.6135
   83SAPS   C28 7797   4.309   6.489  10.203  1.2983  0.0751 -0.3535
   83SAPS   H8R 7798   4.399   6.498  10.266  1.0424  2.4724 -0.2607
   83SAPS   C29 7799   4.318   6.540  10.083 -0.1870  0.0533 -0.2161
   83SAPS   H9R 7800   4.413   6.586  10.055  1.0485 -0.4410  2.7376
   83SAPS  C210 7801   4.208   6.546   9.982 -0.6556 -0.1616  0.7516
   83SAPS  H10R 7802   4.195   6.652   9.951  0.6006 -0.8781 -2.6224
   83SAPS  H10S 7803   4.108   6.516  10.021 -0.1994 -2.6593  0.1322
   83SAPS  C211 7804   4.236   6.454   9.862  0.5574 -0.0201 -0.6858
   83SAPS  H11R 7805   4.215   6.348   9.881 -2.6473  0.3204 -1.8014
   83SAPS  C212 7806   4.256   6.494   9.739  0.0763  0.1957  0.1955
   83SAPS  H12R 7807   4.257   6.416   9.661 -2.6524  1.6640 -1.4960
   83SAPS  C213 7808   4.270   6.638   9.687 -0.1482 -0.0748  0.4831
   83SAPS  H13R 7809   4.195   6.696   9.745 -0.2645  1.0427 -0.7290
   83SAPS  H13S 7810   4.231   6.645   9.584  0.9122  1.1384  0.1402
   83SAPS  C214 7811   4.412   6.684   9.707 -0.6733  0.5234 -0.2643
   83SAPS  H14R 7812   4.453   6.673   9.808  1.2912  0.9160 -0.9683
   83SAPS  C215 7813   4.494   6.722   9.616 -0.3786 -0.3297  0.0062
   83SAPS  H15R 7814   4.593   6.758   9.646  0.9252 -2.0250 -1.9776
   83SAPS  C216 7815   4.466   6.742   9.464  0.7985 -0.7015 -0.6625
   83SAPS  H16R 7816   4.355   6.737   9.451  0.9120 -1.9527 -1.3679
   83SAPS  H16S 7817   4.496   6.651   9.407  0.8464 -0.1559 -1.5185
   83SAPS  C217 7818   4.533   6.869   9.406  0.7605  0.2437  0.2974
   83SAPS  H17R 7819   4.643   6.864   9.411  1.2583  4.8225 -1.6750
   83SAPS  H17S 7820   4.501   6.962   9.458  1.8925 -0.1556  1.7859
   83SAPS  C218 7821   4.500   6.896   9.258 -0.1540 -0.3942  0.4032
   83SAPS  H18R 7822   4.570   6.832   9.200  0.2808 -1.3626  1.9285
   83SAPS  H18S 7823   4.519   7.000   9.225 -1.7071 -0.6667 -1.6256
   83SAPS  C219 7824   4.360   6.876   9.206  0.5404 -0.3617  0.0689
   83SAPS  H19R 7825   4.280   6.907   9.276 -0.0973 -0.3261 -0.6560
   83SAPS  H19S 7826   4.346   6.765   9.205 -1.1099 -0.1758  0.6843
   83SAPS  C220 7827   4.324   6.908   9.060  0.1317 -0.6445  0.5306
   83SAPS  H20R 7828   4.387   6.851   8.989  2.3112  0.5485  1.4285
   83SAPS  H20S 7829   4.333   7.018   9.050  2.5670 -0.4234  3.6907
   83SAPS  H20T 7830   4.218   6.882   9.040  0.2767 -0.7754 -0.0693
   83SAPS   C33 7831   3.758   6.201  10.543 -0.0902 -0.6444 -0.1006
   83SAPS   H3X 7832   3.843   6.270  10.565  1.0071 -1.2751 -2.1509
   83SAPS   H3Y 7833   3.669   6.266  10.529  0.8591  0.8312  0.4556
   83SAPS   C34 7834   3.794   6.135  10.402  0.3755 -0.5220  0.4067
   83SAPS   H4X 7835   3.716   6.061  10.371  0.4735 -1.0576  1.3978
   83SAPS   H4Y 7836   3.896   6.090  10.393 -0.1920 -1.6701 -0.6363
   83SAPS   C35 7837   3.805   6.243  10.287 -0.1930  0.0066  0.5285
   83SAPS   H5X 7838   3.865   6.328  10.324  0.6485 -0.4810  0.3049
   83SAPS   H5Y 7839   3.705   6.284  10.262  0.2039  1.4338  1.1916
   83SAPS   C36 7840   3.875   6.187  10.163  0.0821 -0.0030 -0.2488
   83SAPS   H6X 7841   3.828   6.088  10.143 -0.4510  0.3817 -0.9469
   83SAPS   H6Y 7842   3.981   6.169  10.192 -1.1650 -2.0905  3.8134
   83SAPS   C37 7843   3.855   6.277  10.039 -0.1504  0.0985  0.5978
   83SAPS   H7X 7844   3.923   6.364  10.050 -0.5279  0.8055 -1.9379
   83SAPS   H7Y 7845   3.753   6.321  10.044  0.8877  2.7718 -0.0576
   83SAPS   C38 7846   3.878   6.203   9.901  0.6405 -0.0850  0.5457
   83SAPS   H8X 7847   3.799   6.126   9.885  0.2593  0.0588  1.6458
   83SAPS   H8Y 7848   3.968   6.138   9.903  0.6346 -0.1322 -0.2968
   83SAPS   C39 7849   3.875   6.295   9.783  0.2129  0.3398  0.0468
   83SAPS   H9X 7850   3.919   6.396   9.799 -1.9482  1.3171  0.2993
   83SAPS   H9Y 7851   3.768   6.320   9.763  0.1866  1.0140  0.9370
   83SAPS  C310 7852   3.928   6.229   9.652  0.2367 -0.2712 -0.1671
   83SAPS  H10X 7853   3.862   6.146   9.620 -0.1006 -0.4905  1.0379
   83SAPS  H10Y 7854   4.030   6.185   9.658  0.2579 -0.4943 -1.8452
   83SAPS  C311 7855   3.913   6.332   9.533 -0.1398 -0.0049  0.1157
   83SAPS  H11X 7856   3.988   6.411   9.553 -0.5260 -0.2054  2.7143
   83SAPS  H11Y 7857   3.812   6.377   9.524 -0.4861 -0.6374  0.7326
   83SAPS  C312 7858   3.924   6.265   9.394 -0.5772  0.1573 -0.4485
   83SAPS  H12X 7859   3.865   6.319   9.317 -3.3021 -2.4211 -0.3742
   83SAPS  H12Y 7860   3.881   6.163   9.399 -2.8816  0.9966 -1.8352
   83SAPS  C313 7861   4.070   6.253   9.349  0.6754 -0.2561 -0.8287
   83SAPS  H13X 7862   4.124   6.204   9.433  0.2788 -0.2700 -0.5807
   83SAPS  H13Y 7863   4.109   6.356   9.341  0.9636 -0.3382 -0.5145
   83SAPS  C314 7864   4.088   6.156   9.227 -0.2141  0.1533 -0.3026
   83SAPS  H14X 7865   4.102   6.057   9.273 -0.6384  1.4227  2.7679
   83SAPS  H14Y 7866   4.186   6.185   9.181  0.5726  3.5723  3.0595
   83SAPS  C315 7867   3.983   6.158   9.113  0.0906  0.1925 -0.0447
   83SAPS  H15X 7868   3.946   6.261   9.090 -1.6744  0.3543  2.9468
   83SAPS  H15Y 7869   3.890   6.109   9.149 -0.3538 -0.3265 -1.8091
   83SAPS  C316 7870   4.024   6.088   8.982 -0.6529 -0.3754 -0.1290
   83SAPS  H16X 7871   4.036   5.978   8.996  1.3779 -0.0905  0.9120
   83SAPS  H16Y 7872   4.121   6.128   8.945 -0.4169 -2.0240 -1.4214
   83SAPS  C317 7873   3.904   6.090   8.879  0.0924 -0.0201 -0.4392
   83SAPS  H17X 7874   3.853   6.187   8.895  1.5348  0.4424  1.6716
   83SAPS  H17Y 7875   3.824   6.019   8.910 -0.9145  0.7540 -1.1678
   83SAPS  C318 7876   3.953   6.073   8.743 -0.0339  0.6071  0.4362
   83SAPS  H18X 7877   3.975   5.965   8.734 -1.3352  0.4768 -1.7861
   83SAPS  H18Y 7878   4.045   6.135   8.736  0.9558 -0.4627  2.8497
   83SAPS  H18Z 7879   3.885   6.090   8.657 -1.4451 -1.2506  1.1392
   84SAPS     N 7880   6.594   0.144  11.173 -0.0914 -0.5852  0.7403
   84SAPS   HN1 7881   6.502   0.182  11.143  1.0130  2.2770  0.6677
   84SAPS   HN2 7882   6.581   0.123  11.275 -0.8847  0.4633  0.8692
   84SAPS   HN3 7883   6.672   0.210  11.158 -1.5743  0.5810 -3.0009
   84SAPS   C12 7884   6.625   0.025  11.085 -0.3355 -0.9284 -0.4228
   84SAPS  H12A 7885   6.631   0.071  10.987  2.0119  0.0063  0.1041
   84SAPS   C13 7886   6.745  -0.056  11.113  0.1488  0.6621  0.0344
   84SAPS  O13A 7887   6.823  -0.040  11.214 -0.3406  0.0279 -0.1388
   84SAPS  O13B 7888   6.779  -0.131  11.015  0.3340  0.9036 -0.2136
   84SAPS   C11 7889   6.507  -0.066  11.081  0.3346 -0.3346  0.3436
   84SAPS  H11A 7890   6.473  -0.070  11.187 -0.5817  0.3193  0.0822
   84SAPS  H11B 7891   6.519  -0.169  11.040 -3.7147 -1.1222  0.6928
   84SAPS     P 7892   6.328  -0.057  10.880  0.5808 -0.0670 -0.4221
   84SAPS   O13 7893   6.194  -0.116  10.903 -0.5237  0.2779 -0.2915
   84SAPS   O14 7894   6.336   0.063  10.788 -0.2797  0.1777 -0.0626
   84SAPS   O12 7895   6.389  -0.014  11.018  0.2304  0.2561  0.1073
   84SAPS   O11 7896   6.424  -0.164  10.829  0.4735 -0.0412  0.4354
   84SAPS    C1 7897   6.529  -0.154  10.728  0.4998  0.2206 -0.5078
   84SAPS    HA 7898   6.561  -0.049  10.714  2.8361 -0.0780  1.6866
   84SAPS    HB 7899   6.619  -0.206  10.768 -0.5277 -0.2652  1.3349
   84SAPS    C2 7900   6.492  -0.210  10.589  0.1734 -0.3956 -0.4007
   84SAPS    HS 7901   6.585  -0.207  10.528 -0.1895 -0.6115 -0.9657
   84SAPS   O21 7902   6.375  -0.153  10.531  0.1698 -0.1196  0.5028
   84SAPS   C21 7903   6.393  -0.056  10.451  1.0510 -0.1012  0.3187
   84SAPS   O22 7904   6.501  -0.002  10.428 -0.2364  0.6432 -0.1166
   84SAPS   C22 7905   6.256  -0.006  10.404 -0.3931 -0.4012 -0.0553
   84SAPS   H2R 7906   6.216   0.056  10.487  1.1346  1.0765 -0.3660
   84SAPS   H2S 7907   6.275   0.069  10.323  0.1139 -0.9864 -0.4859
   84SAPS    C3 7908   6.468  -0.364  10.601  0.5026 -0.5435  0.0342
   84SAPS    HX 7909   6.365  -0.374  10.640  0.4435 -2.3600 -0.4765
   84SAPS    HY 7910   6.534  -0.415  10.675  1.5569  3.8000  2.4062
   84SAPS   O31 7911   6.475  -0.428  10.473  0.1608 -0.1950 -0.1738
   84SAPS   C31 7912   6.598  -0.465  10.428  1.1233  0.3113 -0.2524
   84SAPS   O32 7913   6.699  -0.460  10.495  0.1575 -0.4000  0.3577
   84SAPS   C32 7914   6.574  -0.498  10.284 -0.3832 -0.0833  0.5377
   84SAPS   H2X 7915   6.533  -0.403  10.243 -2.4542 -1.0553  0.2092
   84SAPS   H2Y 7916   6.478  -0.553  10.278 -1.0472  1.0683  0.3041
   84SAPS   C23 7917   6.148  -0.108  10.361 -0.3488 -0.4629 -0.4396
   84SAPS   H3R 7918   6.047  -0.061  10.368 -1.1639 -1.7222 -2.6297
   84SAPS   H3S 7919   6.145  -0.202  10.419 -1.7237  0.1794  0.6035
   84SAPS   C24 7920   6.147  -0.143  10.209  0.2854  0.8153 -0.6042
   84SAPS   H4R 7921   6.074  -0.226  10.194  1.7495 -0.9527  1.4558
   84SAPS   H4S 7922   6.244  -0.198  10.208  0.0437  0.1872  2.1087
   84SAPS   C25 7923   6.146  -0.039  10.103  0.7014  0.4289 -0.0924
   84SAPS   H5R 7924   6.083   0.048  10.129  0.9563  0.8773 -0.9201
   84SAPS   C26 7925   6.207  -0.051   9.984 -0.3216  0.1686 -0.4083
   84SAPS   H6R 7926   6.189   0.032   9.914 -1.0601  0.4032  0.0492
   84SAPS   C27 7927   6.295  -0.161   9.932 -1.1553 -0.5221  0.5151
   84SAPS   H7R 7928   6.228  -0.218   9.864 -2.6933 -1.3803  2.6386
   84SAPS   H7S 7929   6.319  -0.243  10.003  0.5606 -1.5431 -1.1214
   84SAPS   C28 7930   6.418  -0.092   9.877  0.2499  0.1701 -0.4870
   84SAPS   H8R 7931   6.473  -0.027   9.946  2.3778 -0.2004 -1.7344
   84SAPS   C29 7932   6.470  -0.093   9.748 -0.6308  0.3403 -0.6591
   84SAPS   H9R 7933   6.563  -0.037   9.731 -0.7740  2.2754  3.5657
   84SAPS  C210 7934   6.412  -0.170   9.639 -0.0289  0.0930  1.0356
   84SAPS  H10R 7935   6.310  -0.203   9.670 -2.0705  1.1088 -3.7200
   84SAPS  H10S 7936   6.479  -0.258   9.627 -0.9830 -0.7348  1.6310
   84SAPS  C211 7937   6.391  -0.098   9.507 -0.4246  0.6080 -0.2194
   84SAPS  H11R 7938   6.449  -0.005   9.506  0.5989 -0.0019  0.1282
   84SAPS  C212 7939   6.325  -0.147   9.396  0.1740  0.5952  0.4423
   84SAPS  H12R 7940   6.315  -0.082   9.308  0.9082  0.6395  0.3831
   84SAPS  C213 7941   6.261  -0.283   9.384  0.4273  0.7481  0.7933
   84SAPS  H13R 7942   6.240  -0.331   9.482  3.6261  0.0395  1.2214
   84SAPS  H13S 7943   6.330  -0.356   9.337  0.5610 -0.7985  3.2123
   84SAPS  C214 7944   6.134  -0.275   9.295  0.5066  0.7693 -0.5961
   84SAPS  H14R 7945   6.046  -0.251   9.357 -0.8509 -1.8488 -1.3622
   84SAPS  C215 7946   6.133  -0.308   9.170  0.7606 -0.2476  0.3926
   84SAPS  H15R 7947   6.032  -0.320   9.127  0.7056 -1.9821  0.9282
   84SAPS  C216 7948   6.253  -0.346   9.083 -0.3047 -0.1058 -0.0510
   84SAPS  H16R 7949   6.254  -0.454   9.057 -1.0031 -0.1058 -0.1090
   84SAPS  H16S 7950   6.347  -0.341   9.142 -0.1545 -0.8577 -0.2229
   84SAPS  C217 7951   6.275  -0.254   8.962 -0.9363  0.2688 -0.4998
   84SAPS  H17R 7952   6.372  -0.284   8.917 -0.1454  2.8380 -0.7060
   84SAPS  H17S 7953   6.277  -0.147   8.994 -2.4100 -0.0143  0.6365
   84SAPS  C218 7954   6.171  -0.274   8.850 -0.3267 -0.4873 -0.2579
   84SAPS  H18R 7955   6.069  -0.250   8.889 -0.5557 -0.2546 -0.9904
   84SAPS  H18S 7956   6.172  -0.381   8.821  2.9093 -0.5342 -0.3783
   84SAPS  C219 7957   6.202  -0.194   8.726 -0.4186 -0.0317  0.6001
   84SAPS  H19R 7958   6.308  -0.215   8.698 -0.1356  1.4529  0.5006
   84SAPS  H19S 7959   6.193  -0.084   8.734 -0.4021  0.2043 -1.9820
   84SAPS  C220 7960   6.112  -0.231   8.603  0.0213  0.0582 -0.0596
   84SAPS  H20R 7961   6.005  -0.213   8.623  0.2246  2.2123 -0.6935
   84SAPS  H20S 7962   6.114  -0.336   8.567 -2.2317 -0.4253  1.0896
   84SAPS  H20T 7963   6.140  -0.165   8.518 -1.1574 -0.0418 -0.5445
   84SAPS   C33 7964   6.692  -0.561  10.204  0.3399 -0.1132  0.0030
   84SAPS   H3X 7965   6.697  -0.667  10.237  0.8428 -0.9038 -2.3964
   84SAPS   H3Y 7966   6.790  -0.518  10.230 -0.1401  0.3694  1.0835
   84SAPS   C34 7967   6.669  -0.549  10.055 -0.1052 -0.1410  0.0132
   84SAPS   H4X 7968   6.764  -0.564  10.000 -1.6639 -2.2402 -2.3256
   84SAPS   H4Y 7969   6.625  -0.450  10.033  0.6725 -0.1540 -1.8197
   84SAPS   C35 7970   6.579  -0.663  10.004  0.4364  0.4806  0.1091
   84SAPS   H5X 7971   6.488  -0.643  10.065  0.5169  1.7485 -0.1751
   84SAPS   H5Y 7972   6.607  -0.770  10.018 -0.2372  0.3701  0.6820
   84SAPS   C36 7973   6.548  -0.640   9.858 -0.0925  0.7399  0.0794
   84SAPS   H6X 7974   6.493  -0.544   9.851 -2.5794 -0.6106 -0.1868
   84SAPS   H6Y 7975   6.478  -0.718   9.820  0.7304 -0.1522  0.3436
   84SAPS   C37 7976   6.666  -0.646   9.755 -0.4503  0.6662  0.0167
   84SAPS   H7X 7977   6.708  -0.748   9.764 -0.9706  0.2645 -1.6779
   84SAPS   H7Y 7978   6.752  -0.576   9.762  0.9589 -0.7854 -1.6767
   84SAPS   C38 7979   6.616  -0.621   9.615  0.2485 -0.1372  0.6398
   84SAPS   H8X 7980   6.575  -0.518   9.614 -1.5578 -0.6770  3.8172
   84SAPS   H8Y 7981   6.524  -0.682   9.600  0.4811 -0.7470  1.5843
   84SAPS   C39 7982   6.708  -0.660   9.499  0.2379  0.3290 -0.4481
   84SAPS   H9X 7983   6.735  -0.768   9.508 -1.3139  0.0197  0.9559
   84SAPS   H9Y 7984   6.797  -0.593   9.503  0.1394  0.4462 -0.2636
   84SAPS  C310 7985   6.630  -0.649   9.364 -0.4542  0.1244 -0.1399
   84SAPS  H10X 7986   6.628  -0.540   9.341 -0.7769  0.5092  1.5570
   84SAPS  H10Y 7987   6.532  -0.696   9.386 -0.9626  0.3166 -1.8382
   84SAPS  C311 7988   6.703  -0.724   9.256 -0.5785 -0.3644  0.1308
   84SAPS  H11X 7989   6.750  -0.815   9.298  0.6661  1.0531  1.9709
   84SAPS  H11Y 7990   6.788  -0.662   9.220 -0.0983 -1.3184 -0.4220
   84SAPS  C312 7991   6.613  -0.741   9.129  0.3854  0.0838 -0.3656
   84SAPS  H12X 7992   6.523  -0.797   9.163 -0.3901  1.5826  0.1503
   84SAPS  H12Y 7993   6.655  -0.796   9.042 -2.6227 -0.6207 -1.5084
   84SAPS  C313 7994   6.569  -0.608   9.076 -0.1054 -0.3783 -0.6307
   84SAPS  H13X 7995   6.645  -0.530   9.055 -1.1724  1.3758  1.6196
   84SAPS  H13Y 7996   6.508  -0.558   9.154  1.4473 -0.9011  0.9788
   84SAPS  C314 7997   6.485  -0.629   8.950  0.6258  0.1086  0.5467
   84SAPS  H14X 7998   6.408  -0.548   8.956  0.0548 -0.3393 -0.5497
   84SAPS  H14Y 7999   6.421  -0.720   8.948  2.5319 -1.2969 -2.1971
   84SAPS  C315 8000   6.556  -0.619   8.814  0.2632  0.3117 -0.3793
   84SAPS  H15X 8001   6.606  -0.717   8.798  0.3353 -0.0287  1.6567
   84SAPS  H15Y 8002   6.627  -0.534   8.818 -0.5403  0.9325  1.5850
   84SAPS  C316 8003   6.456  -0.594   8.708  0.9635 -0.8793  0.1464
   84SAPS  H16X 8004   6.421  -0.489   8.716 -0.3369 -1.1756 -1.3188
   84SAPS  H16Y 8005   6.361  -0.649   8.720  0.9201 -0.5005  1.8701
   84SAPS  C317 8006   6.507  -0.609   8.562 -0.3265 -0.0714 -0.4106
   84SAPS  H17X 8007   6.605  -0.561   8.541  0.5006 -1.0076  1.1292
   84SAPS  H17Y 8008   6.428  -0.559   8.503 -2.4820 -1.7822  0.8675
   84SAPS  C318 8009   6.501  -0.755   8.516  0.2115 -0.1356 -0.0398
   84SAPS  H18X 8010   6.542  -0.820   8.596 -1.2542 -0.1201  0.7607
   84SAPS  H18Y 8011   6.548  -0.762   8.416 -0.1951  0.7447 -0.3050
   84SAPS  H18Z 8012   6.392  -0.773   8.520  0.0559  0.8413  2.4435
   85SAPS     N 8013   2.709   1.556  11.233  0.0613  0.0292  0.1700
   85SAPS   HN1 8014   2.812   1.565  11.222  0.5351 -1.4291  2.6501
   85SAPS   HN2 8015   2.674   1.644  11.277  0.7297  1.5224 -2.1153
   85SAPS   HN3 8016   2.694   1.466  11.283  1.5247 -1.7907 -2.4690
   85SAPS   C12 8017   2.649   1.549  11.101  0.2694  0.0478 -0.5598
   85SAPS  H12A 8018   2.542   1.537  11.105  0.2678  0.3849  1.6364
   85SAPS   C13 8019   2.677   1.662  11.006 -0.7332  0.3339 -1.1006
   85SAPS  O13A 8020   2.762   1.754  11.031  0.0015  0.0646  0.7578
   85SAPS  O13B 8021   2.625   1.664  10.890  0.3915 -0.1915  0.1910
   85SAPS   C11 8022   2.699   1.408  11.032  0.2182 -0.2950 -0.6639
   85SAPS  H11A 8023   2.809   1.403  11.018  0.4335  0.6608  0.5485
   85SAPS  H11B 8024   2.665   1.384  10.929  1.7618 -0.9751 -1.0454
   85SAPS     P 8025   2.538   1.224  11.109 -0.0729  0.0148 -0.3173
   85SAPS   O13 8026   2.551   1.122  11.213  0.4945  0.0202  0.1692
   85SAPS   O14 8027   2.427   1.319  11.117  0.2051 -0.7220  0.6144
   85SAPS   O12 8028   2.676   1.299  11.116  0.1212  0.1820 -0.6502
   85SAPS   O11 8029   2.547   1.165  10.966 -0.0839  0.1151  0.9088
   85SAPS    C1 8030   2.634   1.047  10.946 -0.3361 -0.8387  0.2628
   85SAPS    HA 8031   2.642   0.990  11.040  1.5044  2.1331  2.0948
   85SAPS    HB 8032   2.572   0.985  10.878 -1.1330 -0.2441  0.4345
   85SAPS    C2 8033   2.776   1.083  10.881  0.2814  0.5633 -0.5742
   85SAPS    HS 8034   2.836   1.130  10.962 -0.7995 -1.5898  1.5834
   85SAPS   O21 8035   2.750   1.183  10.770 -0.2661  0.3820 -0.5218
   85SAPS   C21 8036   2.862   1.251  10.751  0.2827 -0.5743  0.2708
   85SAPS   O22 8037   2.968   1.245  10.810  0.1858  0.3455 -0.3221
   85SAPS   C22 8038   2.850   1.335  10.621  0.2557 -0.1952 -0.0219
   85SAPS   H2R 8039   2.952   1.363  10.586 -0.2685  0.1083 -1.3543
   85SAPS   H2S 8040   2.800   1.281  10.538 -0.5344 -0.3032  0.5098
   85SAPS    C3 8041   2.861   0.959  10.831  0.4248 -0.5969 -0.0103
   85SAPS    HX 8042   2.874   0.894  10.920  1.1825 -0.3773  0.0531
   85SAPS    HY 8043   2.966   0.976  10.799 -0.5352  1.2185 -2.4594
   85SAPS   O31 8044   2.797   0.888  10.724 -0.4482  0.3002 -0.4269
   85SAPS   C31 8045   2.749   0.763  10.746  0.2013 -0.5918 -0.8512
   85SAPS   O32 8046   2.715   0.723  10.855 -0.1456  0.8489  0.1849
   85SAPS   C32 8047   2.750   0.693  10.613 -0.1663  0.3590 -0.5201
   85SAPS   H2X 8048   2.854   0.683  10.577 -0.3998  2.1174 -1.7906
   85SAPS   H2Y 8049   2.692   0.765  10.550 -1.8896 -0.5063  0.0116
   85SAPS   C23 8050   2.774   1.468  10.646  0.6121 -0.6665  0.1030
   85SAPS   H3R 8051   2.838   1.521  10.719 -0.0347 -1.1053  1.0131
   85SAPS   H3S 8052   2.674   1.456  10.694  0.7880  2.0993  1.3296
   85SAPS   C24 8053   2.759   1.545  10.512  0.2454 -0.6252  0.1477
   85SAPS   H4R 8054   2.686   1.628  10.522  3.1512  2.3732 -1.6424
   85SAPS   H4S 8055   2.723   1.471  10.438  0.0094 -0.6576  0.2941
   85SAPS   C25 8056   2.884   1.615  10.462  0.0805 -0.4350 -0.5488
   85SAPS   H5R 8057   2.924   1.698  10.522 -2.8487  0.1589  0.7903
   85SAPS   C26 8058   2.937   1.595  10.341  0.0581 -0.2669 -0.4333
   85SAPS   H6R 8059   3.029   1.653  10.320 -0.3878  0.5079 -0.2700
   85SAPS   C27 8060   2.891   1.499  10.233  0.2935 -0.3583 -0.5037
   85SAPS   H7R 8061   2.790   1.527  10.194  1.2205  2.3070 -1.1899
   85SAPS   H7S 8062   2.863   1.402  10.281 -0.6005  0.4609  0.6914
   85SAPS   C28 8063   2.986   1.461  10.129  0.1543 -0.4486 -0.1851
   85SAPS   H8R 8064   3.082   1.411  10.150  0.1660 -1.2903 -2.0050
   85SAPS   C29 8065   2.980   1.493   9.994  0.1083  0.3748  0.0378
   85SAPS   H9R 8066   3.056   1.449   9.927  1.1717  2.1443 -0.0021
   85SAPS  C210 8067   2.882   1.577   9.923 -0.0227  0.3217  0.0205
   85SAPS  H10R 8068   2.931   1.653   9.859 -0.7976  0.4194 -0.4721
   85SAPS  H10S 8069   2.830   1.638   9.999  0.1994 -1.0501  1.3147
   85SAPS  C211 8070   2.774   1.493   9.852 -0.5438  0.2320 -0.3275
   85SAPS  H11R 8071   2.686   1.461   9.911 -0.3273 -1.7912 -1.0293
   85SAPS  C212 8072   2.776   1.459   9.725  0.1212 -0.3321  0.2174
   85SAPS  H12R 8073   2.686   1.412   9.681  1.2879 -3.3872  0.8944
   85SAPS  C213 8074   2.881   1.482   9.625 -0.1416  0.2153  0.4852
   85SAPS  H13R 8075   2.957   1.550   9.670 -0.0447  2.9863 -3.4019
   85SAPS  H13S 8076   2.843   1.545   9.542  2.2810  1.3482  0.1315
   85SAPS  C214 8077   2.941   1.355   9.571 -0.5467 -0.7388  0.8528
   85SAPS  H14R 8078   3.023   1.313   9.630 -1.2140 -1.5868  1.2019
   85SAPS  C215 8079   2.893   1.287   9.463 -0.1532  0.1495 -0.5701
   85SAPS  H15R 8080   2.927   1.190   9.422 -1.3742 -0.4345 -0.2752
   85SAPS  C216 8081   2.776   1.349   9.390 -0.4990  0.5157  0.8151
   85SAPS  H16R 8082   2.799   1.451   9.352 -0.0424  1.2568  2.9289
   85SAPS  H16S 8083   2.687   1.351   9.457 -0.1503 -1.6764  1.4133
   85SAPS  C217 8084   2.745   1.270   9.255 -0.4580  0.2189 -0.2578
   85SAPS  H17R 8085   2.654   1.314   9.208 -0.2168  2.0097  0.8565
   85SAPS  H17S 8086   2.727   1.165   9.287  1.4435  0.6346  2.6482
   85SAPS  C218 8087   2.870   1.265   9.157  0.1935 -0.3697  0.2036
   85SAPS  H18R 8088   2.939   1.180   9.178  1.0008  0.0837 -0.5506
   85SAPS  H18S 8089   2.931   1.358   9.167 -0.8080  0.0977  2.6895
   85SAPS  C219 8090   2.815   1.262   9.007 -0.3110  1.2149  0.1491
   85SAPS  H19R 8091   2.760   1.358   8.992  0.3680  1.6559  0.4377
   85SAPS  H19S 8092   2.752   1.171   9.010 -2.1515  2.2863 -2.0439
   85SAPS  C220 8093   2.924   1.236   8.900 -0.2669 -0.0251  0.2966
   85SAPS  H20R 8094   2.875   1.233   8.800 -2.4504 -0.1670  1.3114
   85SAPS  H20S 8095   2.988   1.148   8.921  0.7661  0.9351  1.3204
   85SAPS  H20T 8096   2.996   1.321   8.893 -1.7188  1.3297  1.1567
   85SAPS   C33 8097   2.694   0.551  10.595  0.2403 -0.9998  0.7941
   85SAPS   H3X 8098   2.586   0.564  10.618  0.1611  0.7715 -0.4214
   85SAPS   H3Y 8099   2.744   0.472  10.655  2.2403  0.7416  1.4972
   85SAPS   C34 8100   2.708   0.500  10.451 -0.8202  0.9599  0.4168
   85SAPS   H4X 8101   2.660   0.400  10.449  0.6339  0.2179  0.7753
   85SAPS   H4Y 8102   2.817   0.501  10.429 -0.8407  2.1661  0.2801
   85SAPS   C35 8103   2.631   0.573  10.342 -0.2801 -0.1595 -0.2782
   85SAPS   H5X 8104   2.648   0.682  10.359 -0.4134 -0.1667 -0.1084
   85SAPS   H5Y 8105   2.522   0.552  10.351 -0.3805  0.7726  0.8307
   85SAPS   C36 8106   2.659   0.531  10.197  0.4573  0.2409 -1.0200
   85SAPS   H6X 8107   2.654   0.420  10.195  1.8185  0.0870  1.2162
   85SAPS   H6Y 8108   2.768   0.548  10.187  1.1301  0.5102  4.0583
   85SAPS   C37 8109   2.579   0.609  10.094  0.2793  0.2163 -0.1940
   85SAPS   H7X 8110   2.564   0.717  10.115 -1.6104  0.2334 -1.4369
   85SAPS   H7Y 8111   2.481   0.562  10.071  0.3407  0.1161 -0.2534
   85SAPS   C38 8112   2.648   0.591   9.965  0.5559 -0.1832 -0.0531
   85SAPS   H8X 8113   2.639   0.484   9.938 -0.8659 -0.1782  0.3526
   85SAPS   H8Y 8114   2.755   0.621   9.972 -0.2036  2.7227  0.3956
   85SAPS   C39 8115   2.579   0.679   9.854  0.0708 -0.2417  0.3422
   85SAPS   H9X 8116   2.616   0.783   9.863  0.9484 -0.6611  2.0293
   85SAPS   H9Y 8117   2.471   0.670   9.881  0.0650 -0.3154  0.2957
   85SAPS  C310 8118   2.603   0.633   9.712 -0.8668 -0.2858  0.5673
   85SAPS  H10X 8119   2.578   0.526   9.697 -0.9818 -0.3517  1.2263
   85SAPS  H10Y 8120   2.710   0.633   9.684 -1.1650 -3.0785 -0.9406
   85SAPS  C311 8121   2.515   0.711   9.617  0.6794  0.1295  0.2384
   85SAPS  H11X 8122   2.536   0.818   9.638 -1.6025  0.3652  1.7951
   85SAPS  H11Y 8123   2.407   0.693   9.639  1.0639 -1.6460  0.8343
   85SAPS  C312 8124   2.544   0.677   9.466 -0.1682  0.1197  0.2206
   85SAPS  H12X 8125   2.501   0.585   9.422 -0.6474  0.5721 -0.2718
   85SAPS  H12Y 8126   2.653   0.653   9.463 -0.3952 -0.8716 -2.1703
   85SAPS  C313 8127   2.498   0.795   9.376  0.0093  0.5459 -0.6962
   85SAPS  H13X 8128   2.549   0.887   9.409 -0.4224  1.2131 -1.8371
   85SAPS  H13Y 8129   2.392   0.804   9.409  0.1992  1.9892 -0.4505
   85SAPS  C314 8130   2.500   0.763   9.226  0.0011 -0.5237  0.3205
   85SAPS  H14X 8131   2.440   0.842   9.174 -0.4672 -0.2328  1.2845
   85SAPS  H14Y 8132   2.458   0.662   9.207  0.3512 -1.0361  2.1123
   85SAPS  C315 8133   2.647   0.776   9.178  0.1530  0.7183 -0.2957
   85SAPS  H15X 8134   2.706   0.695   9.227  1.3798  1.0417 -1.2127
   85SAPS  H15Y 8135   2.679   0.876   9.212 -3.4020  1.9247 -0.0709
   85SAPS  C316 8136   2.657   0.770   9.027  0.2979 -0.2427  0.0810
   85SAPS  H16X 8137   2.587   0.693   8.988 -0.6595 -0.2729  1.7661
   85SAPS  H16Y 8138   2.761   0.746   8.996  1.0809  2.4456  0.3160
   85SAPS  C317 8139   2.619   0.913   8.966 -0.3918 -0.1005 -0.1781
   85SAPS  H17X 8140   2.698   0.973   9.016 -1.0024 -0.6586  1.5406
   85SAPS  H17Y 8141   2.514   0.939   8.993 -1.1666 -2.0759 -1.1306
   85SAPS  C318 8142   2.641   0.919   8.813 -0.3165 -0.3050  0.7630
   85SAPS  H18X 8143   2.606   1.020   8.785 -0.0404 -0.1759  0.8825
   85SAPS  H18Y 8144   2.580   0.837   8.770 -0.3234 -0.2966  0.7569
   85SAPS  H18Z 8145   2.748   0.894   8.798 -1.0068 -2.3698 -1.1720
   86SAPS     N 8146   4.533   0.418  11.290 -0.2410 -0.1564  0.3048
   86SAPS   HN1 8147   4.533   0.509  11.341  1.0784  0.0172  0.0428
   86SAPS   HN2 8148   4.441   0.393  11.249 -0.6305 -1.5264  1.9168
   86SAPS   HN3 8149   4.569   0.345  11.355  1.4796  0.0356 -0.3689
   86SAPS   C12 8150   4.629   0.432  11.177 -0.1043  0.0350 -0.0190
   86SAPS  H12A 8151   4.594   0.504  11.105  1.1534 -0.5508 -1.2502
   86SAPS   C13 8152   4.776   0.474  11.213 -0.2389  0.5237 -0.5967
   86SAPS  O13A 8153   4.805   0.479  11.332 -0.0606  0.3095 -0.1882
   86SAPS  O13B 8154   4.865   0.516  11.130  0.2378  0.3285 -0.1693
   86SAPS   C11 8155   4.634   0.289  11.104  0.0780 -0.0464  0.2726
   86SAPS  H11A 8156   4.692   0.228  11.176  0.4343  0.9647  0.8648
   86SAPS  H11B 8157   4.703   0.302  11.018  1.9404 -1.3967  1.4815
   86SAPS     P 8158   4.420   0.261  10.951  0.4621 -0.0421  0.0966
   86SAPS   O13 8159   4.322   0.149  10.946  0.5030 -0.5009 -0.5684
   86SAPS   O14 8160   4.360   0.396  10.966 -0.6902  0.1702  0.3778
   86SAPS   O12 8161   4.505   0.232  11.080  0.4132  0.2365  0.0348
   86SAPS   O11 8162   4.523   0.250  10.827  0.5410 -0.0197  0.1017
   86SAPS    C1 8163   4.553   0.370  10.755 -0.2814  0.3816  0.3601
   86SAPS    HA 8164   4.454   0.413  10.729 -0.9106 -0.4300  1.3616
   86SAPS    HB 8165   4.614   0.436  10.821  1.3009  1.0036 -1.6017
   86SAPS    C2 8166   4.635   0.338  10.621 -0.4492  0.3248 -0.2544
   86SAPS    HS 8167   4.616   0.426  10.556  1.1189  0.6654 -0.2920
   86SAPS   O21 8168   4.587   0.212  10.560  0.2097  0.3967 -0.0727
   86SAPS   C21 8169   4.474   0.219  10.503 -0.0520  1.4228 -0.1686
   86SAPS   O22 8170   4.407   0.315  10.482  0.2364 -0.0553 -0.2952
   86SAPS   C22 8171   4.426   0.078  10.460 -0.6139  0.0888 -0.5051
   86SAPS   H2R 8172   4.401   0.025  10.555  0.7304  1.5166  0.6964
   86SAPS   H2S 8173   4.336   0.082  10.396 -0.3162 -1.9479 -1.1375
   86SAPS    C3 8174   4.783   0.322  10.643  0.2177 -0.3823 -0.0224
   86SAPS    HX 8175   4.797   0.227  10.699  0.5214  0.0139  0.5739
   86SAPS    HY 8176   4.831   0.400  10.705  2.6444 -2.8274  1.4020
   86SAPS   O31 8177   4.854   0.324  10.524 -0.0624  0.4891  0.6560
   86SAPS   C31 8178   4.926   0.217  10.494 -0.4087  0.4076  0.8022
   86SAPS   O32 8179   4.933   0.114  10.559  0.3126  0.1638  0.6366
   86SAPS   C32 8180   5.022   0.256  10.377  0.5838 -0.2700 -0.3405
   86SAPS   H2X 8181   5.118   0.201  10.393  1.2783  0.2369 -2.4533
   86SAPS   H2Y 8182   5.023   0.367  10.383 -1.1714 -0.2462 -0.0184
   86SAPS   C23 8183   4.530  -0.022  10.387  0.4787 -0.2386 -0.5971
   86SAPS   H3R 8184   4.489  -0.118  10.351  2.5927 -1.3576 -0.2044
   86SAPS   H3S 8185   4.614  -0.047  10.457  0.6923 -1.0419 -1.1286
   86SAPS   C24 8186   4.594   0.051  10.264 -0.1232 -0.3657  0.3652
   86SAPS   H4R 8187   4.663  -0.027  10.226 -0.4505  0.2194 -1.5585
   86SAPS   H4S 8188   4.661   0.131  10.303 -0.2321 -0.9139  1.6985
   86SAPS   C25 8189   4.511   0.095  10.144  0.6862  0.2432 -0.5751
   86SAPS   H5R 8190   4.464   0.013  10.087 -2.9591  0.2571  2.0652
   86SAPS   C26 8191   4.483   0.219  10.098  0.3690 -0.0847 -0.8603
   86SAPS   H6R 8192   4.413   0.227  10.014  0.3151  0.1427 -0.7955
   86SAPS   C27 8193   4.528   0.353  10.155 -0.5091 -0.1271  0.1380
   86SAPS   H7R 8194   4.605   0.390  10.084  1.6984 -4.2938  0.0334
   86SAPS   H7S 8195   4.588   0.337  10.247 -0.7962 -3.0441 -0.1019
   86SAPS   C28 8196   4.411   0.445  10.174  0.9376  0.9979 -0.4202
   86SAPS   H8R 8197   4.359   0.404  10.262 -0.3223 -0.1833 -1.6613
   86SAPS   C29 8198   4.378   0.563  10.115 -0.2996 -0.2490  0.0661
   86SAPS   H9R 8199   4.298   0.621  10.162 -0.7350  0.6626 -1.7392
   86SAPS  C210 8200   4.457   0.633  10.002 -0.0547  0.2807 -0.2544
   86SAPS  H10R 8201   4.419   0.613   9.900  1.7221  1.3155 -1.1654
   86SAPS  H10S 8202   4.556   0.584   9.997 -0.0631  0.2970 -0.6025
   86SAPS  C211 8203   4.466   0.780  10.033  0.4493 -0.3296 -0.0975
   86SAPS  H11R 8204   4.455   0.821  10.135 -0.3172  1.6062 -0.9072
   86SAPS  C212 8205   4.474   0.873   9.934 -0.7340  0.0472  0.3169
   86SAPS  H12R 8206   4.471   0.978   9.966  2.6154  0.1429  0.6922
   86SAPS  C213 8207   4.486   0.848   9.780 -0.4327  0.0663 -0.3331
   86SAPS  H13R 8208   4.522   0.744   9.767 -0.5118 -0.3097  2.0138
   86SAPS  H13S 8209   4.572   0.903   9.737  0.2803 -0.5215  0.3116
   86SAPS  C214 8210   4.368   0.888   9.697  0.0793  0.7359 -0.0764
   86SAPS  H14R 8211   4.277   0.888   9.760  1.4109 -0.9860  2.0035
   86SAPS  C215 8212   4.376   0.924   9.573  0.6978  0.1171  0.3612
   86SAPS  H15R 8213   4.288   0.968   9.525  1.5952 -0.2954 -1.7601
   86SAPS  C216 8214   4.498   0.931   9.482  1.1075  0.2459  0.2269
   86SAPS  H16R 8215   4.553   0.838   9.506  1.8658  0.9726  1.3879
   86SAPS  H16S 8216   4.567   1.014   9.509 -0.0035  0.8393  1.3813
   86SAPS  C217 8217   4.472   0.954   9.334 -0.6461 -0.3247  0.5093
   86SAPS  H17R 8218   4.416   0.877   9.278 -1.4172  0.1646  0.5916
   86SAPS  H17S 8219   4.573   0.971   9.290 -0.0719 -2.1720  1.0343
   86SAPS  C218 8220   4.388   1.080   9.302  0.1178 -1.0455 -0.0347
   86SAPS  H18R 8221   4.377   1.142   9.394 -1.6528 -1.5282  0.1078
   86SAPS  H18S 8222   4.288   1.048   9.267  0.8464 -1.4078 -1.9048
   86SAPS  C219 8223   4.449   1.182   9.199  0.6360  0.3138  0.5679
   86SAPS  H19R 8224   4.368   1.240   9.152  0.6557 -0.8734 -0.9907
   86SAPS  H19S 8225   4.478   1.108   9.121  0.4159  0.4303  0.3747
   86SAPS  C220 8226   4.562   1.271   9.255  0.4518  0.3696  0.1937
   86SAPS  H20R 8227   4.660   1.220   9.256  1.1630  1.6660 -0.5435
   86SAPS  H20S 8228   4.538   1.313   9.355 -1.0801  0.2255 -0.0757
   86SAPS  H20T 8229   4.560   1.362   9.190 -0.7307 -1.1357 -2.0258
   86SAPS   C33 8230   4.971   0.212  10.237  0.9045 -0.1982 -0.0460
   86SAPS   H3X 8231   4.863   0.233  10.220  0.9592  2.1426  1.8765
   86SAPS   H3Y 8232   4.993   0.104  10.225  0.2130 -0.3416 -0.0190
   86SAPS   C34 8233   5.050   0.285  10.129 -0.4190 -0.9270 -0.3420
   86SAPS   H4X 8234   5.157   0.263  10.150 -0.3752 -1.5881 -1.1984
   86SAPS   H4Y 8235   5.047   0.396  10.139  0.8944 -0.7490 -1.5519
   86SAPS   C35 8236   5.007   0.255   9.985 -0.5952 -0.2640  0.7960
   86SAPS   H5X 8237   5.033   0.151   9.957  0.4807  0.1049  0.3683
   86SAPS   H5Y 8238   5.066   0.326   9.923 -0.9203 -0.8973 -0.2702
   86SAPS   C36 8239   4.862   0.287   9.952 -0.0986 -0.3548  0.5553
   86SAPS   H6X 8240   4.842   0.382  10.005 -1.0828  1.3211 -2.5438
   86SAPS   H6Y 8241   4.798   0.206   9.994  1.6347 -1.8944  0.3630
   86SAPS   C37 8242   4.829   0.299   9.803  0.2204  0.3330 -0.1945
   86SAPS   H7X 8243   4.861   0.210   9.745  1.3023 -1.0654  2.3719
   86SAPS   H7Y 8244   4.885   0.388   9.767 -0.2422  0.3195 -0.9711
   86SAPS   C38 8245   4.680   0.337   9.771 -0.2451 -0.5554 -0.4479
   86SAPS   H8X 8246   4.649   0.405   9.853  3.6093 -0.6397  1.2973
   86SAPS   H8Y 8247   4.616   0.246   9.781 -0.3771 -0.4940 -0.7221
   86SAPS   C39 8248   4.659   0.408   9.638 -0.0241 -0.1562  0.1018
   86SAPS   H9X 8249   4.698   0.338   9.561 -0.4369  0.4632 -0.6895
   86SAPS   H9Y 8250   4.729   0.494   9.645  2.3763 -1.9395 -0.5249
   86SAPS  C310 8251   4.519   0.461   9.622 -0.1784 -0.0326  0.0861
   86SAPS  H10X 8252   4.495   0.500   9.724 -0.4095  1.3503 -0.4719
   86SAPS  H10Y 8253   4.446   0.379   9.605  2.0252 -2.1223  0.2130
   86SAPS  C311 8254   4.508   0.562   9.513  0.2211 -0.1550 -0.6229
   86SAPS  H11X 8255   4.590   0.636   9.530 -0.3578 -0.1584  3.1568
   86SAPS  H11Y 8256   4.408   0.607   9.529  0.3878  0.0866 -0.2323
   86SAPS  C312 8257   4.525   0.494   9.377  0.2545 -0.1608  0.2866
   86SAPS  H12X 8258   4.437   0.430   9.354 -0.5994  0.9438  0.4150
   86SAPS  H12Y 8259   4.615   0.428   9.381 -1.7581 -3.1712 -0.2507
   86SAPS  C313 8260   4.539   0.601   9.261  0.2223  0.1816  0.5512
   86SAPS  H13X 8261   4.613   0.683   9.280 -0.4843  1.4237 -1.6926
   86SAPS  H13Y 8262   4.448   0.662   9.242  1.2483  0.9621 -2.4463
   86SAPS  C314 8263   4.583   0.540   9.129  0.4066  0.8777 -0.2973
   86SAPS  H14X 8264   4.521   0.454   9.098 -0.0723  0.7787  0.8886
   86SAPS  H14Y 8265   4.683   0.495   9.145  0.3356 -0.4321 -3.0132
   86SAPS  C315 8266   4.599   0.624   9.001  0.6435 -0.3017  0.3651
   86SAPS  H15X 8267   4.645   0.558   8.926  0.3191 -0.3266  0.1830
   86SAPS  H15Y 8268   4.684   0.695   9.008  0.1447  0.9810 -3.8062
   86SAPS  C316 8269   4.472   0.681   8.951  0.1013  0.8703  0.0308
   86SAPS  H16X 8270   4.444   0.758   9.025  1.2629  2.0037 -0.6644
   86SAPS  H16Y 8271   4.386   0.611   8.939  1.3505 -0.5048 -1.4081
   86SAPS  C317 8272   4.472   0.759   8.811 -0.1263 -0.7938  0.1429
   86SAPS  H17X 8273   4.373   0.804   8.790  0.0920  0.3579  1.4549
   86SAPS  H17Y 8274   4.475   0.685   8.729 -1.4025 -0.2865 -0.3980
   86SAPS  C318 8275   4.579   0.871   8.798  0.5646 -0.2392  0.0338
   86SAPS  H18X 8276   4.679   0.828   8.819  0.2509 -0.2087  1.7415
   86SAPS  H18Y 8277   4.558   0.946   8.877 -0.8836 -2.7181  2.2028
   86SAPS  H18Z 8278   4.573   0.914   8.696  0.8009 -1.6614 -0.6075
   87SAPS     N 8279   4.038   2.281  11.178 -0.2299  0.1843  0.5456
   87SAPS   HN1 8280   3.986   2.214  11.118 -0.6983  1.5241 -0.6196
   87SAPS   HN2 8281   4.085   2.240  11.261  0.3296  1.5433  0.9276
   87SAPS   HN3 8282   3.963   2.345  11.212 -0.2290 -1.6073  4.4810
   87SAPS   C12 8283   4.147   2.342  11.094  0.5626  0.0635 -0.9101
   87SAPS  H12A 8284   4.113   2.418  11.025  0.2415 -0.1047 -0.9379
   87SAPS   C13 8285   4.238   2.430  11.188  1.0457 -0.0531  0.2071
   87SAPS  O13A 8286   4.207   2.454  11.306 -0.5402  0.4568  0.4223
   87SAPS  O13B 8287   4.340   2.488  11.134  0.0486  0.0720 -0.2525
   87SAPS   C11 8288   4.238   2.234  11.033  0.3106  0.4854  0.2601
   87SAPS  H11A 8289   4.275   2.167  11.113 -0.1272  0.5202  0.4951
   87SAPS  H11B 8290   4.325   2.275  10.978  0.9553  1.4736  1.9454
   87SAPS     P 8291   4.242   2.024  10.872  0.0067  0.2970 -0.5825
   87SAPS   O13 8292   4.330   1.962  10.974 -0.4959 -0.2222  0.1185
   87SAPS   O14 8293   4.145   1.929  10.812 -0.6126 -0.4435  0.2507
   87SAPS   O12 8294   4.166   2.148  10.933  0.3382 -0.4140  0.0406
   87SAPS   O11 8295   4.325   2.096  10.753 -1.0146  0.2637  0.3271
   87SAPS    C1 8296   4.275   2.203  10.678  0.5371  0.4347 -0.7644
   87SAPS    HA 8297   4.164   2.203  10.682  0.5721  0.9217  2.1534
   87SAPS    HB 8298   4.311   2.298  10.724  2.9507 -0.3324 -0.9404
   87SAPS    C2 8299   4.322   2.202  10.531 -0.3164 -0.3660  0.1190
   87SAPS    HS 8300   4.262   2.276  10.474  2.4343  1.1703 -1.0033
   87SAPS   O21 8301   4.325   2.071  10.469 -0.3882 -0.2220  0.8667
   87SAPS   C21 8302   4.209   2.019  10.454 -1.0126 -0.1506 -0.3007
   87SAPS   O22 8303   4.109   2.066  10.502 -0.7676  0.0317 -0.6826
   87SAPS   C22 8304   4.224   1.886  10.388  0.1355  0.1005  0.6068
   87SAPS   H2R 8305   4.323   1.889  10.338 -0.4168  2.1736 -0.4660
   87SAPS   H2S 8306   4.223   1.804  10.464  2.1352 -0.4862  0.0510
   87SAPS    C3 8307   4.470   2.246  10.531 -0.1577 -0.2009 -0.1695
   87SAPS    HX 8308   4.526   2.182  10.602 -1.3623  0.6552  1.6113
   87SAPS    HY 8309   4.487   2.352  10.561  1.0719 -0.3348 -0.3397
   87SAPS   O31 8310   4.523   2.219  10.400 -0.2474  0.2074  0.1590
   87SAPS   C31 8311   4.482   2.300  10.303  0.3836  0.5913 -0.4053
   87SAPS   O32 8312   4.416   2.397  10.317  0.5669 -0.7666 -0.5099
   87SAPS   C32 8313   4.551   2.254  10.169 -0.2100 -0.5991 -0.3039
   87SAPS   H2X 8314   4.565   2.144  10.160  1.7763 -0.3593 -0.5965
   87SAPS   H2Y 8315   4.656   2.290  10.174  0.0938 -1.3003 -1.2649
   87SAPS   C23 8316   4.103   1.863  10.291 -0.2683 -0.3362  0.7614
   87SAPS   H3R 8317   4.009   1.857  10.349  0.2097 -3.4251  1.3700
   87SAPS   H3S 8318   4.118   1.758  10.259  0.2352 -0.5191  1.5942
   87SAPS   C24 8319   4.088   1.944  10.160 -0.0033  0.6732 -0.6855
   87SAPS   H4R 8320   4.053   2.046  10.188  0.4133  0.6254  0.0479
   87SAPS   H4S 8321   4.003   1.902  10.103  0.7835 -1.3357 -0.4672
   87SAPS   C25 8322   4.213   1.967  10.089 -0.0084 -0.1367  0.2444
   87SAPS   H5R 8323   4.289   2.025  10.144  0.7205 -0.3673 -0.5031
   87SAPS   C26 8324   4.242   1.912   9.967  0.1299 -0.7982  0.1048
   87SAPS   H6R 8325   4.340   1.934   9.924 -0.0085 -1.6593 -0.6919
   87SAPS   C27 8326   4.146   1.818   9.889 -0.1384 -0.1410  0.4469
   87SAPS   H7R 8327   4.086   1.757   9.959  0.6954  1.2840  2.4916
   87SAPS   H7S 8328   4.208   1.747   9.830 -2.0551 -1.9690  0.5091
   87SAPS   C28 8329   4.057   1.910   9.808 -0.3351  0.2160  0.0721
   87SAPS   H8R 8330   3.988   1.978   9.860 -1.5628 -0.7360 -0.2858
   87SAPS   C29 8331   4.061   1.925   9.673 -0.0646  0.4168  0.1488
   87SAPS   H9R 8332   3.982   1.989   9.632 -0.4301  0.0165  0.2185
   87SAPS  C210 8333   4.145   1.843   9.573  0.0644 -0.6315 -0.5804
   87SAPS  H10R 8334   4.069   1.787   9.514 -1.4018  1.2367 -0.5706
   87SAPS  H10S 8335   4.216   1.773   9.621  1.0802  0.6486 -0.1721
   87SAPS  C211 8336   4.221   1.936   9.483  0.2256 -0.6322  0.1950
   87SAPS  H11R 8337   4.304   1.987   9.535  0.5675 -0.7509 -0.2297
   87SAPS  C212 8338   4.208   1.952   9.349 -0.5154  0.3887  0.0091
   87SAPS  H12R 8339   4.277   2.021   9.299  1.7182 -1.6446  0.0564
   87SAPS  C213 8340   4.119   1.880   9.251 -0.1174  0.1344 -0.2215
   87SAPS  H13R 8341   4.036   1.838   9.312  0.4480  0.4062  0.7454
   87SAPS  H13S 8342   4.180   1.802   9.202 -0.1580 -0.8970  1.2887
   87SAPS  C214 8343   4.056   1.951   9.138  0.1528  0.1554  0.4073
   87SAPS  H14R 8344   4.027   2.055   9.159 -2.5421  0.0324 -2.0930
   87SAPS  C215 8345   4.032   1.901   9.016  0.8677 -0.3895  0.2907
   87SAPS  H15R 8346   3.989   1.968   8.940 -0.0455 -2.2307 -0.9034
   87SAPS  C216 8347   4.072   1.764   8.973  0.0240 -0.1383  0.2085
   87SAPS  H16R 8348   4.096   1.697   9.058 -0.5411 -0.5351  0.0677
   87SAPS  H16S 8349   4.158   1.775   8.904 -1.9146 -3.4740 -3.1134
   87SAPS  C217 8350   3.960   1.695   8.892 -0.1080  0.0385 -0.8735
   87SAPS  H17R 8351   3.877   1.667   8.960 -1.7031 -0.5631 -2.9741
   87SAPS  H17S 8352   4.015   1.604   8.861  1.5741  1.2943 -1.7587
   87SAPS  C218 8353   3.905   1.780   8.776  0.6919  0.2686 -0.1424
   87SAPS  H18R 8354   3.989   1.798   8.706  1.7484 -4.4694 -0.4503
   87SAPS  H18S 8355   3.856   1.872   8.814  0.6004 -0.2412  1.0109
   87SAPS  C219 8356   3.809   1.701   8.685  0.1707 -0.2331 -0.8272
   87SAPS  H19R 8357   3.854   1.603   8.657 -0.4851 -0.6603 -0.4089
   87SAPS  H19S 8358   3.804   1.761   8.592  1.0673  0.4313 -0.4695
   87SAPS  C220 8359   3.666   1.673   8.734 -1.2927  0.5091  0.1765
   87SAPS  H20R 8360   3.682   1.613   8.827  2.9631  2.4450  0.9072
   87SAPS  H20S 8361   3.618   1.608   8.658  0.8873 -0.6044 -0.3211
   87SAPS  H20T 8362   3.607   1.766   8.749 -0.6690  0.6372  2.1319
   87SAPS   C33 8363   4.485   2.326  10.056  0.5101 -0.0782 -0.0363
   87SAPS   H3X 8364   4.492   2.436  10.069  1.4233 -0.2542  1.1271
   87SAPS   H3Y 8365   4.376   2.306  10.060  0.8304 -1.7466  1.8003
   87SAPS   C34 8366   4.540   2.283   9.915  0.0693  0.3523  0.3064
   87SAPS   H4X 8367   4.650   2.268   9.925  0.3328  2.0740  0.3336
   87SAPS   H4Y 8368   4.506   2.358   9.840  0.3447 -0.9322 -1.1679
   87SAPS   C35 8369   4.502   2.136   9.870  0.9978 -0.3818 -0.3500
   87SAPS   H5X 8370   4.394   2.141   9.844  0.9448  1.4501  0.0685
   87SAPS   H5Y 8371   4.507   2.063   9.954 -1.7335  2.7174  2.7827
   87SAPS   C36 8372   4.587   2.091   9.754 -0.5026 -0.0391  0.1849
   87SAPS   H6X 8373   4.556   1.985   9.742 -0.8554 -0.0441  1.1072
   87SAPS   H6Y 8374   4.694   2.094   9.785 -0.6452 -0.7679  0.7708
   87SAPS   C37 8375   4.577   2.157   9.627  0.4351  0.2811  0.7127
   87SAPS   H7X 8376   4.609   2.263   9.626  2.8236 -0.3642  2.0064
   87SAPS   H7Y 8377   4.469   2.149   9.600  0.6099  0.2045  0.0226
   87SAPS   C38 8378   4.658   2.092   9.520  0.2322 -1.2206 -0.2021
   87SAPS   H8X 8379   4.627   1.988   9.500  0.1536 -1.4574  1.0278
   87SAPS   H8Y 8380   4.766   2.095   9.548  0.8992 -1.7240 -2.5336
   87SAPS   C39 8381   4.653   2.166   9.384 -0.0837  0.3974 -0.3711
   87SAPS   H9X 8382   4.736   2.127   9.321 -0.6557 -0.4001 -0.6526
   87SAPS   H9Y 8383   4.670   2.274   9.402  1.8178  0.0024  0.4340
   87SAPS  C310 8384   4.520   2.159   9.304  0.3425 -0.8037  0.4355
   87SAPS  H10X 8385   4.450   2.233   9.348 -1.7845 -1.4847 -1.5824
   87SAPS  H10Y 8386   4.478   2.055   9.308 -0.7320 -0.3600  1.1732
   87SAPS  C311 8387   4.538   2.181   9.146 -0.2492 -0.1492 -0.1106
   87SAPS  H11X 8388   4.630   2.123   9.123  0.7548  1.7475 -1.1972
   87SAPS  H11Y 8389   4.567   2.287   9.128 -1.1531  0.0519 -0.4700
   87SAPS  C312 8390   4.418   2.136   9.062  0.7185 -0.0827  0.7850
   87SAPS  H12X 8391   4.326   2.199   9.065  1.7744  1.6192 -0.3746
   87SAPS  H12Y 8392   4.383   2.036   9.094 -0.4519 -0.2587 -0.9049
   87SAPS  C313 8393   4.458   2.121   8.917 -0.1883 -0.0047  0.5305
   87SAPS  H13X 8394   4.549   2.058   8.928  0.1845  0.6029  0.9651
   87SAPS  H13Y 8395   4.481   2.220   8.872  1.2456 -0.5646 -0.0355
   87SAPS  C314 8396   4.354   2.049   8.826 -0.2590  0.7857 -0.2156
   87SAPS  H14X 8397   4.273   2.123   8.810 -0.5677 -0.0566 -2.9697
   87SAPS  H14Y 8398   4.304   1.960   8.869 -3.0414  2.6452  0.6562
   87SAPS  C315 8399   4.422   2.016   8.699  0.1238  0.2339  0.9238
   87SAPS  H15X 8400   4.519   1.969   8.724  1.3968  1.3865 -1.4610
   87SAPS  H15Y 8401   4.454   2.111   8.650  0.6211  0.7346  2.1914
   87SAPS  C316 8402   4.359   1.932   8.584 -0.9689  0.5669 -0.6800
   87SAPS  H16X 8403   4.341   1.829   8.619  3.0725  0.2300  0.9287
   87SAPS  H16Y 8404   4.431   1.933   8.499 -1.6541  1.6422 -1.2754
   87SAPS  C317 8405   4.219   1.993   8.531 -0.2758 -0.4832 -0.6385
   87SAPS  H17X 8406   4.141   1.979   8.608 -0.4502  2.1088 -0.2617
   87SAPS  H17Y 8407   4.187   1.939   8.439  0.2241 -0.6180 -0.7375
   87SAPS  C318 8408   4.221   2.144   8.495 -0.2777  0.4723 -0.2795
   87SAPS  H18X 8409   4.282   2.153   8.403  2.0244 -1.0247  0.9925
   87SAPS  H18Y 8410   4.271   2.198   8.578  0.9899  0.9532 -1.3159
   87SAPS  H18Z 8411   4.119   2.182   8.474 -0.7944 -1.8262 -2.4082
   88SAPS     N 8412   0.257   0.224  11.116 -0.5263 -0.0516  0.8276
   88SAPS   HN1 8413   0.346   0.175  11.093 -0.8016 -1.2129  2.1018
   88SAPS   HN2 8414   0.270   0.326  11.131  0.2595 -0.5342  4.0874
   88SAPS   HN3 8415   0.220   0.167  11.194 -0.5662 -1.3121 -0.0884
   88SAPS   C12 8416   0.170   0.210  10.994  0.7201 -0.3852  0.3263
   88SAPS  H12A 8417   0.154   0.103  10.987  1.2999 -0.4292 -0.4365
   88SAPS   C13 8418   0.034   0.274  10.994 -0.0752  0.1357 -0.4176
   88SAPS  O13A 8419  -0.011   0.332  11.097  0.5189  0.3676 -0.2385
   88SAPS  O13B 8420  -0.045   0.255  10.894 -0.1741  0.2456  0.2834
   88SAPS   C11 8421   0.251   0.250  10.868 -0.5723 -0.1438 -0.0017
   88SAPS  H11A 8422   0.276   0.358  10.873 -0.7279 -0.1036 -0.1150
   88SAPS  H11B 8423   0.187   0.242  10.778  1.2766 -0.7091 -1.3216
   88SAPS     P 8424   0.490   0.222  10.786  0.3618  0.2156  0.3465
   88SAPS   O13 8425   0.516   0.365  10.823 -0.6075  0.1801  0.1304
   88SAPS   O14 8426   0.603   0.130  10.800 -0.8934 -0.0099 -0.5323
   88SAPS   O12 8427   0.372   0.165  10.862  0.0031  0.0424  0.1619
   88SAPS   O11 8428   0.440   0.209  10.635  0.2723  0.3320 -0.0944
   88SAPS    C1 8429   0.386   0.086  10.590  0.2350  0.5811  0.0334
   88SAPS    HA 8430   0.401  -0.002  10.656 -1.7695 -1.1019 -1.6121
   88SAPS    HB 8431   0.276   0.100  10.587  0.2181  0.3047 -1.3124
   88SAPS    C2 8432   0.434   0.032  10.455  1.1612  0.4162 -0.3433
   88SAPS    HS 8433   0.544   0.050  10.447  1.3646 -0.9983 -0.9854
   88SAPS   O21 8434   0.366   0.105  10.354  0.1697  0.6083 -0.2719
   88SAPS   C21 8435   0.432   0.205  10.287  0.5354 -0.4871 -0.2074
   88SAPS   O22 8436   0.540   0.243  10.310 -0.0538 -0.1818 -1.6531
   88SAPS   C22 8437   0.337   0.280  10.196  0.3404  0.1788  0.5664
   88SAPS   H2R 8438   0.237   0.234  10.212  0.0628  1.1886  2.0383
   88SAPS   H2S 8439   0.343   0.386  10.231  1.2755  0.1858  0.4182
   88SAPS    C3 8440   0.418  -0.121  10.443  0.2070 -0.0587  0.4858
   88SAPS    HX 8441   0.307  -0.135  10.446  0.4268 -1.8202  2.8034
   88SAPS    HY 8442   0.466  -0.169  10.531  0.8669 -1.8563 -0.7894
   88SAPS   O31 8443   0.478  -0.173  10.323 -0.4898  0.2898 -0.3629
   88SAPS   C31 8444   0.509  -0.298  10.324 -0.1710  0.0527 -0.1617
   88SAPS   O32 8445   0.525  -0.363  10.423  0.3551  0.4675  0.1774
   88SAPS   C32 8446   0.529  -0.342  10.180 -0.1719  0.2546  0.0708
   88SAPS   H2X 8447   0.596  -0.263  10.141  0.2463  0.5532  1.3180
   88SAPS   H2Y 8448   0.432  -0.345  10.127 -0.9688 -1.2814  1.5005
   88SAPS   C23 8449   0.378   0.276  10.044  0.0901  0.6426  0.4057
   88SAPS   H3R 8450   0.292   0.303   9.978 -0.7398 -1.4020  0.5671
   88SAPS   H3S 8451   0.424   0.177  10.026  3.6299  1.9469  1.4968
   88SAPS   C24 8452   0.495   0.365  10.005  0.4140  0.4396 -0.4390
   88SAPS   H4R 8453   0.546   0.328   9.914  0.2699  2.9374 -1.6124
   88SAPS   H4S 8454   0.579   0.349  10.076 -0.1706 -1.4469 -0.1075
   88SAPS   C25 8455   0.460   0.515  10.006 -0.2249  0.7867  0.2512
   88SAPS   H5R 8456   0.470   0.572  10.100 -2.1042 -0.1378  1.0550
   88SAPS   C26 8457   0.438   0.578   9.892 -0.1846  0.0669  0.1875
   88SAPS   H6R 8458   0.419   0.686   9.903  4.4299  1.0151  0.9047
   88SAPS   C27 8459   0.425   0.519   9.755  0.0602  0.1906  0.5692
   88SAPS   H7R 8460   0.488   0.429   9.740 -0.1417 -0.0811  1.2778
   88SAPS   H7S 8461   0.472   0.594   9.688 -0.1455  1.2356  1.5691
   88SAPS   C28 8462   0.284   0.492   9.708  0.3546 -0.3954  0.2903
   88SAPS   H8R 8463   0.204   0.482   9.782 -0.9232 -0.2019 -1.0210
   88SAPS   C29 8464   0.247   0.465   9.580  0.3858  0.3540  0.1144
   88SAPS   H9R 8465   0.142   0.440   9.560  0.8024 -1.3815 -0.0293
   88SAPS  C210 8466   0.339   0.453   9.464 -0.1232 -0.2884 -0.1749
   88SAPS  H10R 8467   0.443   0.490   9.476 -0.6297  0.5424  2.1553
   88SAPS  H10S 8468   0.287   0.504   9.380 -1.4058 -1.3416 -0.0559
   88SAPS  C211 8469   0.359   0.304   9.423 -0.6850  0.3434 -0.2095
   88SAPS  H11R 8470   0.334   0.227   9.498  2.0857 -1.2693 -0.7843
   88SAPS  C212 8471   0.374   0.257   9.292  0.0772 -0.5253  0.2095
   88SAPS  H12R 8472   0.389   0.148   9.282 -0.9773 -0.4753 -2.7622
   88SAPS  C213 8473   0.388   0.330   9.154 -0.2765  0.0397 -0.1912
   88SAPS  H13R 8474   0.474   0.288   9.098 -0.5476 -0.9116  0.0830
   88SAPS  H13S 8475   0.417   0.435   9.176  0.9969 -0.0412 -1.3286
   88SAPS  C214 8476   0.254   0.316   9.078  0.2945  0.5171 -1.1354
   88SAPS  H14R 8477   0.164   0.357   9.125  0.6511  2.4771 -2.0423
   88SAPS  C215 8478   0.227   0.268   8.957  0.2094 -0.2049  0.5815
   88SAPS  H15R 8479   0.126   0.280   8.915  0.4610 -1.3061 -0.4020
   88SAPS  C216 8480   0.332   0.210   8.863  0.6139 -0.6877  0.4776
   88SAPS  H16R 8481   0.305   0.107   8.831  1.6704 -0.3180 -1.8211
   88SAPS  H16S 8482   0.433   0.196   8.908  0.0440  0.4684  2.1942
   88SAPS  C217 8483   0.338   0.281   8.730  0.1734  0.1230  0.2622
   88SAPS  H17R 8484   0.239   0.286   8.679 -0.6774 -2.6306  1.4725
   88SAPS  H17S 8485   0.416   0.249   8.658  0.9370  1.3540  0.5133
   88SAPS  C218 8486   0.384   0.430   8.763  0.6158  0.9392  0.1137
   88SAPS  H18R 8487   0.470   0.424   8.833 -0.6973 -0.1013  1.7302
   88SAPS  H18S 8488   0.300   0.475   8.820  1.7708  1.4232  1.4990
   88SAPS  C219 8489   0.411   0.508   8.639 -0.2493 -0.1575  0.2863
   88SAPS  H19R 8490   0.319   0.516   8.578  0.5441  2.4198 -0.7205
   88SAPS  H19S 8491   0.482   0.459   8.568 -1.6059 -0.2515 -1.0624
   88SAPS  C220 8492   0.454   0.654   8.656 -0.4659 -0.0705 -0.1028
   88SAPS  H20R 8493   0.548   0.652   8.716  1.6783 -1.8861 -3.2226
   88SAPS  H20S 8494   0.373   0.708   8.709 -0.6659 -0.7688  0.3132
   88SAPS  H20T 8495   0.467   0.706   8.558 -0.0255  0.0697  0.0248
   88SAPS   C33 8496   0.599  -0.483  10.172 -0.5429 -0.2595 -0.0497
   88SAPS   H3X 8497   0.531  -0.563  10.210 -1.3712 -0.4424 -1.8159
   88SAPS   H3Y 8498   0.692  -0.484  10.232  0.5598 -0.8984 -1.6971
   88SAPS   C34 8499   0.627  -0.512  10.026  0.7077  0.5101 -0.3308
   88SAPS   H4X 8500   0.535  -0.544   9.972  0.1321 -0.5452  1.1940
   88SAPS   H4Y 8501   0.701  -0.595  10.019  0.1961 -0.0494  0.6282
   88SAPS   C35 8502   0.686  -0.400   9.944 -0.1849  0.1344 -0.2359
   88SAPS   H5X 8503   0.776  -0.355   9.990  0.3789 -0.4619 -0.7253
   88SAPS   H5Y 8504   0.611  -0.318   9.944  0.3133  0.5937 -0.0806
   88SAPS   C36 8505   0.711  -0.450   9.801 -0.3080 -0.1120  0.0046
   88SAPS   H6X 8506   0.622  -0.502   9.763 -2.0293  3.1265 -0.7999
   88SAPS   H6Y 8507   0.796  -0.522   9.798 -0.0117  0.1817  0.8539
   88SAPS   C37 8508   0.755  -0.327   9.712 -1.0966 -0.4610  0.4902
   88SAPS   H7X 8509   0.833  -0.266   9.760  1.2916 -0.0052 -3.5239
   88SAPS   H7Y 8510   0.675  -0.251   9.702 -0.0140  0.4969 -1.6212
   88SAPS   C38 8511   0.814  -0.374   9.572 -0.3419 -0.5069  0.0383
   88SAPS   H8X 8512   0.740  -0.440   9.522  0.5544 -0.7273 -1.0204
   88SAPS   H8Y 8513   0.912  -0.425   9.576  2.2179  3.7803 -1.4255
   88SAPS   C39 8514   0.848  -0.249   9.485 -0.3117 -0.6968  0.1814
   88SAPS   H9X 8515   0.933  -0.193   9.529  1.1448 -2.4767 -0.2325
   88SAPS   H9Y 8516   0.763  -0.180   9.465  0.5269  0.1992 -0.3371
   88SAPS  C310 8517   0.902  -0.287   9.346  0.2070  0.0096  0.8002
   88SAPS  H10X 8518   0.978  -0.367   9.354  0.0403 -0.4098 -1.2473
   88SAPS  H10Y 8519   0.939  -0.190   9.308  2.4017  0.0304  2.7484
   88SAPS  C311 8520   0.785  -0.348   9.258  0.5934  0.4360  0.4038
   88SAPS  H11X 8521   0.703  -0.274   9.248 -0.1537 -0.4603 -0.2560
   88SAPS  H11Y 8522   0.738  -0.427   9.321  1.0170  0.5050  0.8166
   88SAPS  C312 8523   0.825  -0.412   9.126 -0.2741  0.1978  0.4995
   88SAPS  H12X 8524   0.740  -0.436   9.059 -0.3054  0.4425  0.4506
   88SAPS  H12Y 8525   0.883  -0.506   9.140 -2.2369 -1.0511  0.5906
   88SAPS  C313 8526   0.907  -0.305   9.044  0.4782 -0.3814 -0.0195
   88SAPS  H13X 8527   1.007  -0.289   9.089  0.5416  1.4904 -0.7482
   88SAPS  H13Y 8528   0.850  -0.210   9.049 -1.2868 -0.9474 -4.5928
   88SAPS  C314 8529   0.923  -0.343   8.896  0.1012 -0.4854  0.1602
   88SAPS  H14X 8530   0.953  -0.255   8.834 -1.1309 -0.9709 -1.1635
   88SAPS  H14Y 8531   0.820  -0.365   8.862  0.3844 -0.5656 -0.6528
   88SAPS  C315 8532   1.016  -0.455   8.859 -0.7849 -0.2713 -0.4280
   88SAPS  H15X 8533   0.986  -0.546   8.917 -0.8470 -1.3762 -2.1239
   88SAPS  H15Y 8534   1.113  -0.419   8.900 -1.5190  0.5167  0.6799
   88SAPS  C316 8535   1.014  -0.494   8.715 -0.4453  0.3414 -0.5496
   88SAPS  H16X 8536   1.057  -0.418   8.645  1.1191  1.7884  1.8246
   88SAPS  H16Y 8537   0.914  -0.524   8.678 -1.1763  1.3592  0.5377
   88SAPS  C317 8538   1.104  -0.617   8.700 -0.3691 -0.6587  0.4105
   88SAPS  H17X 8539   1.051  -0.694   8.760 -0.1700  0.1594  1.6583
   88SAPS  H17Y 8540   1.208  -0.607   8.737 -0.2636  2.4263 -0.4584
   88SAPS  C318 8541   1.116  -0.664   8.550 -0.5936 -0.9565 -0.0083
   88SAPS  H18X 8542   1.011  -0.652   8.515 -0.8696  0.3684  1.1502
   88SAPS  H18Y 8543   1.153  -0.768   8.548  0.5234 -0.5653 -0.2406
   88SAPS  H18Z 8544   1.179  -0.592   8.494 -1.2722 -1.7073 -1.8121
   89SAPS     N 8545   0.504   2.666  10.596 -0.1539 -0.2005  0.9831
   89SAPS   HN1 8546   0.572   2.587  10.602 -0.9436 -0.8213  2.3185
   89SAPS   HN2 8547   0.425   2.651  10.530 -0.1472 -0.6521  1.0702
   89SAPS   HN3 8548   0.549   2.756  10.570  0.1349 -0.2705  1.2370
   89SAPS   C12 8549   0.441   2.681  10.724  0.2402  0.3055  0.1556
   89SAPS  H12A 8550   0.498   2.637  10.804 -2.3353  0.3928  2.1869
   89SAPS   C13 8551   0.402   2.828  10.754  0.4435  0.4788 -0.7180
   89SAPS  O13A 8552   0.421   2.916  10.669  0.6177 -0.5616  0.1290
   89SAPS  O13B 8553   0.363   2.858  10.872 -0.6403  0.3529  0.6343
   89SAPS   C11 8554   0.311   2.597  10.720  0.4299 -0.5641  0.1489
   89SAPS  H11A 8555   0.246   2.628  10.636  2.1983 -0.2055 -1.1500
   89SAPS  H11B 8556   0.259   2.620  10.815 -2.2926 -1.0251 -1.1581
   89SAPS     P 8557   0.217   2.352  10.723  0.0081 -0.3652  0.0558
   89SAPS   O13 8558   0.270   2.253  10.817  0.2231 -0.4446  0.3529
   89SAPS   O14 8559   0.097   2.426  10.771  0.0631 -0.2383  0.2014
   89SAPS   O12 8560   0.337   2.455  10.703  0.7330  0.4088  0.2982
   89SAPS   O11 8561   0.189   2.294  10.575 -0.2332  0.0355  0.4439
   89SAPS    C1 8562   0.307   2.244  10.502 -0.1989 -0.0723 -0.3574
   89SAPS    HA 8563   0.378   2.189  10.566  1.3703  1.6917 -0.4908
   89SAPS    HB 8564   0.269   2.163  10.436 -0.2145 -2.0049  1.9064
   89SAPS    C2 8565   0.378   2.352  10.415  0.4719 -0.4679  0.1146
   89SAPS    HS 8566   0.424   2.426  10.484  0.9543 -2.4544  2.0301
   89SAPS   O21 8567   0.273   2.408  10.339  0.5618 -0.0587 -0.1141
   89SAPS   C21 8568   0.268   2.538  10.340 -0.3197  0.0873 -0.4570
   89SAPS   O22 8569   0.347   2.615  10.390  0.3233 -0.0846 -0.2577
   89SAPS   C22 8570   0.150   2.588  10.258 -0.7415 -0.2489  0.0052
   89SAPS   H2R 8571   0.074   2.509  10.278  0.0733 -0.5472  2.0961
   89SAPS   H2S 8572   0.121   2.688  10.296 -0.0814  0.7084 -1.8643
   89SAPS    C3 8573   0.489   2.294  10.315  0.4226 -0.0429  0.3204
   89SAPS    HX 8574   0.433   2.223  10.249  0.9625 -0.6939  0.5547
   89SAPS    HY 8575   0.564   2.241  10.377  0.1019 -0.7670  0.0977
   89SAPS   O31 8576   0.538   2.395  10.235 -0.2149 -1.0246 -0.0087
   89SAPS   C31 8577   0.655   2.454  10.261  0.2791 -0.1721  0.2048
   89SAPS   O32 8578   0.739   2.400  10.330  0.3961 -0.2227  0.5377
   89SAPS   C32 8579   0.666   2.591  10.189 -0.1256  0.2368  0.1871
   89SAPS   H2X 8580   0.734   2.653  10.250 -0.0254  1.7866 -1.4470
   89SAPS   H2Y 8581   0.569   2.646  10.190  0.5664  1.4797 -0.4592
   89SAPS   C23 8582   0.182   2.607  10.113 -0.0321  0.1107 -0.4024
   89SAPS   H3R 8583   0.227   2.511  10.077  1.1920  0.5684 -0.1437
   89SAPS   H3S 8584   0.261   2.685  10.111 -0.4442  0.5343 -0.3176
   89SAPS   C24 8585   0.062   2.653  10.027 -0.1005 -0.7056  0.4097
   89SAPS   H4R 8586   0.102   2.665   9.925 -3.0369 -0.7217 -0.8507
   89SAPS   H4S 8587   0.028   2.753  10.062  0.0401 -0.5433  0.0851
   89SAPS   C25 8588  -0.052   2.547  10.028 -0.5918 -0.3757 -0.2963
   89SAPS   H5R 8589  -0.118   2.543  10.116 -1.1563 -1.5858 -0.7539
   89SAPS   C26 8590  -0.089   2.468   9.925 -0.3634  0.4265 -0.5889
   89SAPS   H6R 8591  -0.165   2.393   9.952  0.8896 -0.6985 -0.0949
   89SAPS   C27 8592  -0.040   2.469   9.784  0.3517 -0.7911 -0.5302
   89SAPS   H7R 8593  -0.074   2.379   9.727  1.3130 -3.0710  2.2611
   89SAPS   H7S 8594   0.070   2.458   9.781  0.1002 -4.3781 -2.1349
   89SAPS   C28 8595  -0.095   2.598   9.715 -0.8441 -0.2136  0.1704
   89SAPS   H8R 8596  -0.136   2.673   9.785  0.4418 -2.6008  3.7667
   89SAPS   C29 8597  -0.043   2.643   9.597 -0.3893 -0.1492  0.2352
   89SAPS   H9R 8598  -0.078   2.744   9.570 -1.5790  0.4127  3.3756
   89SAPS  C210 8599   0.057   2.576   9.508 -0.0138 -0.2124  0.1408
   89SAPS  H10R 8600   0.094   2.478   9.546 -0.6566 -0.5570 -0.0996
   89SAPS  H10S 8601   0.141   2.641   9.477 -0.7210 -0.1978 -1.9570
   89SAPS  C211 8602  -0.029   2.546   9.384 -0.3176 -0.0516  0.4560
   89SAPS  H11R 8603  -0.137   2.553   9.398 -0.3364  1.1544 -0.2164
   89SAPS  C212 8604   0.017   2.486   9.277 -0.4076 -0.2792 -0.0704
   89SAPS  H12R 8605  -0.040   2.460   9.187 -0.9641 -0.9919  0.4734
   89SAPS  C213 8606   0.169   2.454   9.255  0.2319  0.2287  0.2792
   89SAPS  H13R 8607   0.185   2.348   9.282  1.2430  0.4993  0.7831
   89SAPS  H13S 8608   0.238   2.507   9.324  0.5250 -0.9631  0.9181
   89SAPS  C214 8609   0.212   2.478   9.111  0.8198 -0.1957 -0.2954
   89SAPS  H14R 8610   0.197   2.577   9.064 -1.1360  0.0147  0.6664
   89SAPS  C215 8611   0.287   2.386   9.040  0.6057  0.1209 -0.3148
   89SAPS  H15R 8612   0.306   2.416   8.936 -1.2807  1.3495 -0.3547
   89SAPS  C216 8613   0.338   2.245   9.071  0.2685  0.5624  0.4456
   89SAPS  H16R 8614   0.330   2.179   8.982  2.4604 -0.7017  1.1239
   89SAPS  H16S 8615   0.285   2.189   9.151  1.4911  0.0665  0.9365
   89SAPS  C217 8616   0.485   2.228   9.103 -0.5689  0.1734  0.2733
   89SAPS  H17R 8617   0.555   2.267   9.026 -1.6642 -0.4601 -1.1068
   89SAPS  H17S 8618   0.519   2.123   9.116  1.2909  0.8342  1.0593
   89SAPS  C218 8619   0.515   2.305   9.236 -0.6336 -0.5841 -0.3411
   89SAPS  H18R 8620   0.450   2.283   9.323  1.6524 -2.6560  0.9575
   89SAPS  H18S 8621   0.510   2.414   9.215 -0.3618 -0.5229 -0.0821
   89SAPS  C219 8622   0.666   2.296   9.270 -0.3892  0.0729 -0.0176
   89SAPS  H19R 8623   0.712   2.339   9.179 -0.8419  0.0895 -0.2407
   89SAPS  H19S 8624   0.695   2.189   9.274 -1.8677 -0.3577 -0.3104
   89SAPS  C220 8625   0.705   2.370   9.398 -0.5333 -0.4722  0.8227
   89SAPS  H20R 8626   0.728   2.475   9.368  0.1727 -1.3922 -2.1589
   89SAPS  H20S 8627   0.799   2.333   9.443  0.0980  0.3717  0.2457
   89SAPS  H20T 8628   0.628   2.366   9.479 -0.9410  0.9322  0.5342
   89SAPS   C33 8629   0.732   2.584  10.052  0.1272 -0.5222  0.4288
   89SAPS   H3X 8630   0.665   2.521   9.990 -1.8106 -0.9629  2.8167
   89SAPS   H3Y 8631   0.831   2.535  10.065  0.8217  0.4692 -0.8415
   89SAPS   C34 8632   0.774   2.719   9.986 -0.4767  0.4298  0.4182
   89SAPS   H4X 8633   0.830   2.781  10.059 -1.3219 -2.7897  4.1207
   89SAPS   H4Y 8634   0.685   2.784   9.978 -1.4149 -0.8763 -0.1072
   89SAPS   C35 8635   0.853   2.697   9.853 -0.3839 -0.4227  0.2370
   89SAPS   H5X 8636   0.849   2.798   9.807 -0.0636  0.4482  2.0345
   89SAPS   H5Y 8637   0.798   2.616   9.800 -0.4670 -1.0527  1.2506
   89SAPS   C36 8638   0.997   2.666   9.885 -0.3126  0.7409 -0.5861
   89SAPS   H6X 8639   0.984   2.563   9.925 -1.9609  0.3983 -1.8687
   89SAPS   H6Y 8640   1.038   2.738   9.958 -2.2334 -0.2428  1.5675
   89SAPS   C37 8641   1.098   2.657   9.761  0.1714  0.1380 -0.6430
   89SAPS   H7X 8642   1.188   2.614   9.809 -1.3847 -0.5801  1.8317
   89SAPS   H7Y 8643   1.131   2.758   9.730  0.5331  0.0768 -0.4516
   89SAPS   C38 8644   1.048   2.569   9.652  0.5249  0.4097 -0.1769
   89SAPS   H8X 8645   0.951   2.595   9.605  0.0995 -1.0612 -0.1794
   89SAPS   H8Y 8646   1.038   2.465   9.691 -0.4377  0.7115  0.4125
   89SAPS   C39 8647   1.150   2.576   9.534  0.6244 -0.7113  0.0654
   89SAPS   H9X 8648   1.255   2.576   9.568  0.7268 -1.4145 -0.2216
   89SAPS   H9Y 8649   1.133   2.678   9.494  0.3425 -0.2701  1.2874
   89SAPS  C310 8650   1.118   2.458   9.445  0.8754 -0.8888  0.1001
   89SAPS  H10X 8651   1.009   2.439   9.438  0.3762  1.6017  0.1544
   89SAPS  H10Y 8652   1.173   2.366   9.471  1.5103 -0.1346  1.5223
   89SAPS  C311 8653   1.155   2.481   9.298 -0.0194  0.0464  0.0369
   89SAPS  H11X 8654   1.258   2.523   9.295 -0.9121  2.3427 -1.9377
   89SAPS  H11Y 8655   1.089   2.561   9.257  2.4949  2.0390 -0.4253
   89SAPS  C312 8656   1.148   2.360   9.204 -0.0239 -0.4516 -0.3453
   89SAPS  H12X 8657   1.039   2.340   9.202  0.1158 -2.4502  3.2349
   89SAPS  H12Y 8658   1.189   2.267   9.249  0.3932  0.5431  1.3981
   89SAPS  C313 8659   1.206   2.392   9.066  0.5770  0.7559  0.9602
   89SAPS  H13X 8660   1.313   2.417   9.079  0.7216  0.1601  0.9575
   89SAPS  H13Y 8661   1.152   2.479   9.022 -1.6062 -1.0869 -0.2758
   89SAPS  C314 8662   1.208   2.286   8.955 -0.1953 -0.4330 -0.5410
   89SAPS  H14X 8663   1.253   2.195   9.001 -0.8521 -0.4225  0.1403
   89SAPS  H14Y 8664   1.288   2.311   8.882  0.0159  0.6013  0.0214
   89SAPS  C315 8665   1.084   2.256   8.870 -0.5139  0.2936  0.5624
   89SAPS  H15X 8666   1.040   2.174   8.930 -1.2838 -0.3127 -0.7954
   89SAPS  H15Y 8667   1.112   2.217   8.770  1.3801  0.7116  0.8781
   89SAPS  C316 8668   0.988   2.366   8.846 -0.0787 -0.4391 -0.2315
   89SAPS  H16X 8669   1.027   2.446   8.780 -0.8168 -0.0187 -0.1722
   89SAPS  H16Y 8670   0.946   2.411   8.939  0.4003 -1.2391  0.3869
   89SAPS  C317 8671   0.862   2.321   8.778  0.6064 -0.1404  0.5581
   89SAPS  H17X 8672   0.786   2.402   8.786  0.5481 -0.2861  1.6110
   89SAPS  H17Y 8673   0.813   2.234   8.826  0.7227 -1.1204 -1.0321
   89SAPS  C318 8674   0.870   2.279   8.626  0.0110  0.6146 -0.1243
   89SAPS  H18X 8675   0.929   2.354   8.570  1.1192  1.0618  1.5776
   89SAPS  H18Y 8676   0.767   2.280   8.584 -0.3653 -2.9351  0.3646
   89SAPS  H18Z 8677   0.900   2.172   8.616 -1.8648 -0.0222  0.5021
   90SAPS     N 8678   2.161   2.344  10.816  0.5446  0.7230  0.5934
   90SAPS   HN1 8679   2.071   2.336  10.764  1.3074 -2.9243 -0.4479
   90SAPS   HN2 8680   2.203   2.250  10.824 -0.1401  0.5323  2.5951
   90SAPS   HN3 8681   2.140   2.362  10.916  0.5525  2.4762  0.3199
   90SAPS   C12 8682   2.251   2.447  10.763 -0.1255  0.6495 -0.3950
   90SAPS  H12A 8683   2.236   2.462  10.657  2.2677  2.0986 -0.5991
   90SAPS   C13 8684   2.236   2.590  10.818 -0.1955  0.1068  0.1021
   90SAPS  O13A 8685   2.162   2.613  10.918  0.2748 -0.0403  0.4713
   90SAPS  O13B 8686   2.309   2.680  10.770 -0.6025  0.8043 -0.0919
   90SAPS   C11 8687   2.396   2.398  10.800 -0.4327 -0.0102 -0.8765
   90SAPS  H11A 8688   2.416   2.406  10.909 -2.3446  3.4621 -0.6185
   90SAPS  H11B 8689   2.470   2.471  10.760  0.7070 -0.2024  0.8176
   90SAPS     P 8690   2.457   2.210  10.616 -0.2523 -0.2756  0.0745
   90SAPS   O13 8691   2.502   2.071  10.635 -0.0589  0.1713  0.2406
   90SAPS   O14 8692   2.339   2.224  10.529 -0.0597  0.3125  0.6245
   90SAPS   O12 8693   2.417   2.264  10.759 -0.3116 -0.8686 -0.1024
   90SAPS   O11 8694   2.570   2.307  10.565 -0.0081  1.0258  0.7172
   90SAPS    C1 8695   2.711   2.280  10.603  0.2355 -0.3592  0.3841
   90SAPS    HA 8696   2.748   2.378  10.641 -0.9805 -0.0002  0.7092
   90SAPS    HB 8697   2.728   2.201  10.679  2.6702  0.1131  0.4001
   90SAPS    C2 8698   2.807   2.243  10.478  0.2568  0.1381 -0.4636
   90SAPS    HS 8699   2.912   2.229  10.510 -0.3707  0.3412  1.8788
   90SAPS   O21 8700   2.793   2.347  10.373  0.4334  0.2734 -0.1720
   90SAPS   C21 8701   2.825   2.468  10.406 -1.0127  0.4625  0.0339
   90SAPS   O22 8702   2.884   2.497  10.507  0.1934  0.2201  0.2388
   90SAPS   C22 8703   2.800   2.568  10.294  0.1728  0.2521  0.4065
   90SAPS   H2R 8704   2.836   2.528  10.197  2.5303  0.5086  1.1271
   90SAPS   H2S 8705   2.689   2.579  10.292  0.1282  0.2522  2.0464
   90SAPS    C3 8706   2.755   2.108  10.409 -0.0519  0.0227 -0.2616
   90SAPS    HX 8707   2.645   2.119  10.397 -0.2936 -0.1302  1.6199
   90SAPS    HY 8708   2.774   2.016  10.468 -1.3457 -0.4258 -0.5006
   90SAPS   O31 8709   2.804   2.099  10.274 -0.0092 -0.6429 -0.4498
   90SAPS   C31 8710   2.931   2.088  10.264  0.2120  0.3536  0.7344
   90SAPS   O32 8711   3.009   2.070  10.360 -0.6151  0.1257  0.0817
   90SAPS   C32 8712   2.980   2.127  10.123  0.1763  0.5282  0.5045
   90SAPS   H2X 8713   3.088   2.146  10.143  0.1434 -0.6929  1.9537
   90SAPS   H2Y 8714   2.931   2.224  10.099 -1.5288  0.2366  2.5925
   90SAPS   C23 8715   2.866   2.702  10.322 -0.5785 -0.7898  0.0339
   90SAPS   H3R 8716   2.976   2.691  10.329 -0.3197 -0.1745 -2.2279
   90SAPS   H3S 8717   2.832   2.743  10.420 -1.9254 -1.7702  0.0193
   90SAPS   C24 8718   2.841   2.814  10.220 -0.2350  0.2400  0.8678
   90SAPS   H4R 8719   2.908   2.799  10.133 -0.2553  0.8805  0.7383
   90SAPS   H4S 8720   2.861   2.917  10.257  0.4794  0.3380  0.2379
   90SAPS   C25 8721   2.693   2.820  10.188  0.5659  0.0021  1.0068
   90SAPS   H5R 8722   2.628   2.795  10.273  0.9184 -0.1615  1.2297
   90SAPS   C26 8723   2.637   2.840  10.058 -0.9933  0.0103  0.1322
   90SAPS   H6R 8724   2.528   2.845  10.054 -1.0159 -0.4584  0.0351
   90SAPS   C27 8725   2.704   2.865   9.926 -0.0112  0.1236 -0.0206
   90SAPS   H7R 8726   2.809   2.833   9.908 -0.3037  0.3438 -2.4041
   90SAPS   H7S 8727   2.720   2.975   9.931 -0.1368  0.1004  1.3433
   90SAPS   C28 8728   2.619   2.834   9.805 -0.0840 -0.3043  0.1788
   90SAPS   H8R 8729   2.611   2.730   9.771  1.2450 -0.7368  1.0989
   90SAPS   C29 8730   2.559   2.932   9.734  0.4971  0.2731 -0.1740
   90SAPS   H9R 8731   2.496   2.896   9.652  1.8027  0.8731 -1.4975
   90SAPS  C210 8732   2.555   3.081   9.753  0.0385 -0.2294  0.1235
   90SAPS  H10R 8733   2.535   3.131   9.657  0.0978  0.7455  0.6112
   90SAPS  H10S 8734   2.645   3.138   9.785 -1.4363  0.7931  2.7885
   90SAPS  C211 8735   2.440   3.115   9.841  0.3974 -0.9372  0.3766
   90SAPS  H11R 8736   2.450   3.058   9.935  1.0978 -2.6196 -0.6554
   90SAPS  C212 8737   2.347   3.210   9.825  0.8170  0.3019  0.2241
   90SAPS  H12R 8738   2.275   3.224   9.907  0.5693 -0.2826  0.1087
   90SAPS  C213 8739   2.317   3.299   9.705 -1.0757  0.0239 -0.4754
   90SAPS  H13R 8740   2.382   3.272   9.620  0.2228 -2.4710  1.1800
   90SAPS  H13S 8741   2.335   3.403   9.741 -1.4955 -0.3044  0.7469
   90SAPS  C214 8742   2.174   3.294   9.664 -0.0181 -0.2759 -0.3969
   90SAPS  H14R 8743   2.113   3.237   9.735  1.3667  1.2414  2.1593
   90SAPS  C215 8744   2.124   3.346   9.550  0.3444 -0.2331 -0.1963
   90SAPS  H15R 8745   2.017   3.328   9.537 -0.0420  1.6835  0.0844
   90SAPS  C216 8746   2.207   3.419   9.451  0.1593 -0.6078 -0.5143
   90SAPS  H16R 8747   2.284   3.484   9.496  0.3611  0.2676 -2.0581
   90SAPS  H16S 8748   2.148   3.500   9.403 -0.4261 -1.5972 -1.5035
   90SAPS  C217 8749   2.264   3.318   9.354 -0.3903  0.3596  0.1471
   90SAPS  H17R 8750   2.345   3.260   9.403  1.2859  1.5045 -1.1620
   90SAPS  H17S 8751   2.319   3.378   9.278 -1.3722  0.2073 -0.7092
   90SAPS  C218 8752   2.158   3.241   9.270 -0.1775 -0.2335 -0.5491
   90SAPS  H18R 8753   2.068   3.302   9.248 -1.0606 -0.5721  1.7686
   90SAPS  H18S 8754   2.124   3.153   9.329  0.7830 -0.7685 -0.7633
   90SAPS  C219 8755   2.218   3.183   9.139 -0.2646  0.5331 -1.2126
   90SAPS  H19R 8756   2.313   3.135   9.171 -1.2933 -1.5491 -1.0931
   90SAPS  H19S 8757   2.239   3.265   9.068 -0.5163  1.0119 -0.7426
   90SAPS  C220 8758   2.133   3.074   9.068  0.1349  0.5047  0.0523
   90SAPS  H20R 8759   2.092   3.006   9.146 -0.0502 -0.0559 -0.5255
   90SAPS  H20S 8760   2.189   3.017   8.991  0.5371  0.8979  0.0524
   90SAPS  H20T 8761   2.053   3.132   9.017  0.1086 -0.3220 -0.8765
   90SAPS   C33 8762   2.950   2.022  10.018 -0.1134  0.5561 -0.3142
   90SAPS   H3X 8763   2.843   2.035   9.990 -0.7814 -1.8401  0.8369
   90SAPS   H3Y 8764   2.975   1.926  10.069  0.3555  1.3094  0.9356
   90SAPS   C34 8765   3.051   2.030   9.896 -1.0864  0.1318 -0.1753
   90SAPS   H4X 8766   3.155   1.991   9.903 -0.9507  0.2143 -1.5098
   90SAPS   H4Y 8767   3.075   2.135   9.870  3.3077 -0.6537 -0.0719
   90SAPS   C35 8768   3.000   1.970   9.765  0.5636  0.9057 -0.3437
   90SAPS   H5X 8769   2.917   2.031   9.724  0.0757  0.5291  0.0572
   90SAPS   H5Y 8770   2.950   1.874   9.794 -2.3245  2.7913  1.4886
   90SAPS   C36 8771   3.106   1.956   9.652  0.2636  0.4566 -0.0198
   90SAPS   H6X 8772   3.179   1.892   9.705 -0.1983 -0.6750 -0.7242
   90SAPS   H6Y 8773   3.142   2.057   9.621 -2.7655  1.2461 -1.3020
   90SAPS   C37 8774   3.057   1.883   9.521 -1.0619  0.9209 -0.8653
   90SAPS   H7X 8775   3.014   1.785   9.550  0.6948  0.1292 -0.7924
   90SAPS   H7Y 8776   3.143   1.868   9.452 -1.6034 -0.7728 -1.2120
   90SAPS   C38 8777   2.945   1.955   9.452  0.0055 -0.2312  0.2684
   90SAPS   H8X 8778   2.965   2.064   9.444 -0.0748 -0.2710 -0.5545
   90SAPS   H8Y 8779   2.855   1.939   9.514  1.6993 -0.2406  2.8593
   90SAPS   C39 8780   2.915   1.900   9.307  0.5418  0.4796  0.0170
   90SAPS   H9X 8781   2.835   1.968   9.270  1.4306  1.3789 -0.2886
   90SAPS   H9Y 8782   2.893   1.791   9.304  1.4826  0.2718  0.2965
   90SAPS  C310 8783   3.033   1.918   9.212  0.5496 -0.0360 -0.1516
   90SAPS  H10X 8784   3.110   1.839   9.229 -0.8937 -1.2650  0.9787
   90SAPS  H10Y 8785   3.069   2.020   9.234 -2.7646  1.0806  0.7022
   90SAPS  C311 8786   3.002   1.921   9.063 -0.3935  0.2808  0.6894
   90SAPS  H11X 8787   2.962   2.023   9.043 -1.5855 -0.0943  1.0898
   90SAPS  H11Y 8788   2.927   1.840   9.048  1.3999 -1.4918  0.9235
   90SAPS  C312 8789   3.119   1.894   8.966  0.2674 -0.3636 -0.2725
   90SAPS  H12X 8790   3.218   1.931   9.000  0.0770 -0.0793 -0.0173
   90SAPS  H12Y 8791   3.105   1.943   8.868  1.0715  0.3161 -0.0561
   90SAPS  C313 8792   3.144   1.746   8.925 -0.5473  0.1123 -0.4163
   90SAPS  H13X 8793   3.185   1.697   9.016  0.0739  1.6832  0.1932
   90SAPS  H13Y 8794   3.211   1.744   8.836 -1.4589  0.3906 -1.1206
   90SAPS  C314 8795   3.026   1.660   8.885 -0.1929  0.1428  0.2992
   90SAPS  H14X 8796   2.935   1.677   8.946 -0.4097 -3.1228  1.0200
   90SAPS  H14Y 8797   3.057   1.554   8.890  0.8880  0.5034  2.2690
   90SAPS  C315 8798   2.972   1.687   8.739  0.3860  0.2247  0.8691
   90SAPS  H15X 8799   3.050   1.667   8.663 -1.4694  0.3832 -1.1741
   90SAPS  H15Y 8800   2.933   1.791   8.731  1.3853  0.5613  0.1370
   90SAPS  C316 8801   2.844   1.603   8.710  0.2237  0.8668 -0.7635
   90SAPS  H16X 8802   2.769   1.624   8.789  1.0427  1.1498 -0.0517
   90SAPS  H16Y 8803   2.870   1.496   8.726 -2.5586  0.4890  2.1743
   90SAPS  C317 8804   2.792   1.616   8.561 -0.4508  0.2451 -0.8070
   90SAPS  H17X 8805   2.737   1.713   8.566 -1.1420 -0.0925 -1.6319
   90SAPS  H17Y 8806   2.715   1.539   8.540  0.4811 -0.7000 -0.7988
   90SAPS  C318 8807   2.893   1.637   8.451 -0.3756  0.0110  0.2596
   90SAPS  H18X 8808   2.959   1.726   8.451  2.2176 -1.7838 -0.9491
   90SAPS  H18Y 8809   2.839   1.649   8.354 -1.8434  0.0284  1.0518
   90SAPS  H18Z 8810   2.959   1.548   8.445  0.2568  0.5358 -1.7300
   91SAPS     N 8811   1.588   1.048   5.812 -0.1699 -0.1011  0.5022
   91SAPS   HN1 8812   1.583   0.979   5.734  0.0354 -1.5312  1.7272
   91SAPS   HN2 8813   1.524   1.130   5.802 -0.1197 -0.0924  0.2311
   91SAPS   HN3 8814   1.684   1.086   5.826 -0.5167  0.0972  2.6048
   91SAPS   C12 8815   1.553   0.983   5.935  0.2725  0.3913 -0.3968
   91SAPS  H12A 8816   1.458   0.933   5.926  0.7457 -0.8315  1.0066
   91SAPS   C13 8817   1.649   0.873   5.976  0.5343 -0.2225  0.1757
   91SAPS  O13A 8818   1.751   0.855   5.907 -0.3761  0.4565  0.8708
   91SAPS  O13B 8819   1.635   0.824   6.093  0.2357 -0.0401  0.4468
   91SAPS   C11 8820   1.553   1.084   6.052  0.3943 -0.1348  0.8871
   91SAPS  H11A 8821   1.653   1.127   6.074  0.0765  0.3667  1.3564
   91SAPS  H11B 8822   1.510   1.034   6.141 -0.8371 -0.2825  0.2411
   91SAPS     P 8823   1.326   1.218   6.036 -0.1663 -0.0521 -0.6747
   91SAPS   O13 8824   1.268   1.303   5.931 -0.3295 -0.3099  0.1605
   91SAPS   O14 8825   1.271   1.082   6.049  0.5386 -0.7479 -0.4362
   91SAPS   O12 8826   1.481   1.197   6.013 -0.1055  0.1660  0.7404
   91SAPS   O11 8827   1.332   1.273   6.182 -0.0698 -0.1989 -0.6032
   91SAPS    C1 8828   1.393   1.402   6.204 -0.2310 -0.6616  0.1887
   91SAPS    HA 8829   1.500   1.407   6.172 -0.0316  1.6609  1.0390
   91SAPS    HB 8830   1.336   1.488   6.164  0.2794 -0.4983 -0.1978
   91SAPS    C2 8831   1.371   1.441   6.352 -0.3741 -0.1064  0.1027
   91SAPS    HS 8832   1.437   1.528   6.370 -0.6706  0.2161 -0.3497
   91SAPS   O21 8833   1.410   1.337   6.443 -0.1534 -0.3292 -0.1560
   91SAPS   C21 8834   1.536   1.322   6.453  0.5426  0.4260 -0.1798
   91SAPS   O22 8835   1.625   1.380   6.392  0.0304  0.3104 -0.5257
   91SAPS   C22 8836   1.567   1.214   6.559 -0.4856  0.0603  0.1584
   91SAPS   H2R 8837   1.564   1.110   6.518 -0.7440  0.3702 -0.6336
   91SAPS   H2S 8838   1.672   1.234   6.589 -1.2947  0.4307  3.0583
   91SAPS    C3 8839   1.222   1.483   6.384 -0.3104  0.0683  0.4383
   91SAPS    HX 8840   1.154   1.401   6.350  1.8965 -2.6044  2.0001
   91SAPS    HY 8841   1.211   1.564   6.309  2.5718 -1.1638 -1.4831
   91SAPS   O31 8842   1.200   1.525   6.521 -0.1709 -0.3755 -0.2667
   91SAPS   C31 8843   1.176   1.432   6.615  0.4603  0.9637  0.2731
   91SAPS   O32 8844   1.170   1.311   6.591 -0.2741  0.2572  0.4596
   91SAPS   C32 8845   1.163   1.490   6.749 -0.1295  0.7327  0.9836
   91SAPS   H2X 8846   1.087   1.570   6.737  0.1997  0.7274 -1.8398
   91SAPS   H2Y 8847   1.256   1.527   6.796 -0.5536 -0.8813  3.3079
   91SAPS   C23 8848   1.489   1.217   6.691  0.9078  0.1649 -0.2988
   91SAPS   H3R 8849   1.382   1.187   6.685  1.3478 -1.6159 -0.0233
   91SAPS   H3S 8850   1.495   1.316   6.741  0.9103  0.0886 -0.1479
   91SAPS   C24 8851   1.549   1.120   6.797  0.2504 -0.0285  0.3522
   91SAPS   H4R 8852   1.518   1.158   6.896 -0.3331 -1.1333  0.6075
   91SAPS   H4S 8853   1.659   1.131   6.795  0.3283 -0.2882  2.0829
   91SAPS   C25 8854   1.521   0.974   6.769  0.8859 -0.0975  0.6898
   91SAPS   H5R 8855   1.508   0.942   6.664 -0.1876 -1.3724  1.1737
   91SAPS   C26 8856   1.493   0.882   6.864 -0.5803  0.8436  0.0012
   91SAPS   H6R 8857   1.467   0.779   6.834  1.6190  0.1991  0.1621
   91SAPS   C27 8858   1.491   0.900   7.014 -0.1811 -0.6897  0.5686
   91SAPS   H7R 8859   1.559   0.983   7.041  0.3050 -0.9773  0.2432
   91SAPS   H7S 8860   1.543   0.813   7.060  1.7614  1.1416  2.0747
   91SAPS   C28 8861   1.354   0.917   7.073 -0.0903 -0.3397 -0.4951
   91SAPS   H8R 8862   1.272   0.884   7.008  0.0195 -0.6489 -0.4778
   91SAPS   C29 8863   1.327   0.967   7.195 -0.1500 -1.0008  0.3255
   91SAPS   H9R 8864   1.225   0.972   7.235 -1.0795  1.5574 -2.0741
   91SAPS  C210 8865   1.434   1.021   7.292  0.0311  0.0204  0.5506
   91SAPS  H10R 8866   1.438   1.131   7.276  0.1909 -0.0109  0.3776
   91SAPS  H10S 8867   1.537   0.992   7.262 -0.0339 -0.1883  0.5258
   91SAPS  C211 8868   1.408   0.991   7.433 -0.1091  0.3505 -0.2487
   91SAPS  H11R 8869   1.367   1.066   7.502 -1.8508 -1.9109  1.2920
   91SAPS  C212 8870   1.448   0.878   7.490 -0.4522 -0.1781 -0.1874
   91SAPS  H12R 8871   1.406   0.861   7.590  1.3210  0.0863  0.6404
   91SAPS  C213 8872   1.522   0.758   7.426 -0.2238 -0.0062 -0.4424
   91SAPS  H13R 8873   1.578   0.711   7.509  1.2272 -0.4238 -1.6213
   91SAPS  H13S 8874   1.605   0.799   7.364  2.3654 -2.7993  0.9198
   91SAPS  C214 8875   1.446   0.662   7.333 -0.1608  0.0773  0.0687
   91SAPS  H14R 8876   1.502   0.617   7.250 -2.1094 -1.5903 -0.4377
   91SAPS  C215 8877   1.322   0.616   7.354  0.4255  0.3755  0.0289
   91SAPS  H15R 8878   1.267   0.552   7.283 -1.1896  1.7876 -0.0630
   91SAPS  C216 8879   1.228   0.655   7.459 -0.0710 -0.2872  0.0431
   91SAPS  H16R 8880   1.272   0.705   7.548 -2.8853  2.7163 -0.0731
   91SAPS  H16S 8881   1.170   0.568   7.495 -0.8142  0.5278  0.8654
   91SAPS  C217 8882   1.113   0.746   7.404 -0.6096  0.1666 -0.0411
   91SAPS  H17R 8883   1.075   0.710   7.306  2.2223 -3.3855 -0.0269
   91SAPS  H17S 8884   1.162   0.845   7.393 -2.1365  0.8167 -1.5132
   91SAPS  C218 8885   0.991   0.777   7.493  0.3816  0.4168  0.0601
   91SAPS  H18R 8886   0.918   0.841   7.440 -0.8107  0.5273  1.7366
   91SAPS  H18S 8887   1.023   0.847   7.573 -2.3058 -0.0143  1.6473
   91SAPS  C219 8888   0.917   0.661   7.559 -0.3139  0.0710 -0.1784
   91SAPS  H19R 8889   0.842   0.710   7.625 -0.8156  0.8798 -1.3140
   91SAPS  H19S 8890   0.985   0.608   7.630  0.8005  2.0491  0.3412
   91SAPS  C220 8891   0.845   0.565   7.463 -0.2837 -0.5293  0.3800
   91SAPS  H20R 8892   0.761   0.516   7.519 -2.3366  0.1797 -1.8920
   91SAPS  H20S 8893   0.924   0.498   7.423 -1.1511 -0.6151 -1.2710
   91SAPS  H20T 8894   0.790   0.623   7.386 -1.0037 -0.9394  0.5636
   91SAPS   C33 8895   1.120   1.380   6.851 -0.1563  0.3434 -0.6547
   91SAPS   H3X 8896   1.192   1.295   6.852  0.5476  0.9280  0.9128
   91SAPS   H3Y 8897   1.019   1.339   6.829 -0.3854  0.8633 -0.5849
   91SAPS   C34 8898   1.123   1.433   6.994 -0.3477 -0.1288 -0.4237
   91SAPS   H4X 8899   1.068   1.353   7.049 -0.3312 -1.7378 -2.5819
   91SAPS   H4Y 8900   1.067   1.528   7.010  0.7815  0.6212 -0.8797
   91SAPS   C35 8901   1.255   1.438   7.063 -0.6159  0.2897  0.2557
   91SAPS   H5X 8902   1.318   1.515   7.012 -1.6161  0.4715 -0.7441
   91SAPS   H5Y 8903   1.312   1.343   7.052  1.7043  1.7677 -1.5543
   91SAPS   C36 8904   1.243   1.473   7.213 -0.2058 -0.2903 -0.0058
   91SAPS   H6X 8905   1.161   1.409   7.250 -1.2646  1.2250  0.3870
   91SAPS   H6Y 8906   1.200   1.575   7.221  1.1211  0.5827 -2.6424
   91SAPS   C37 8907   1.366   1.464   7.306  0.1575  0.1385  0.2333
   91SAPS   H7X 8908   1.445   1.532   7.266 -1.2798  1.0071 -1.2643
   91SAPS   H7Y 8909   1.396   1.358   7.322 -2.3687 -0.5060  1.1373
   91SAPS   C38 8910   1.341   1.505   7.451  0.3393  0.2644 -0.0331
   91SAPS   H8X 8911   1.249   1.467   7.499  0.0518  0.0450 -0.7417
   91SAPS   H8Y 8912   1.327   1.614   7.464 -1.0478 -0.0835  1.7737
   91SAPS   C39 8913   1.462   1.459   7.539  0.2012 -0.2440  0.0268
   91SAPS   H9X 8914   1.551   1.526   7.537 -1.2825  1.8901  0.9924
   91SAPS   H9Y 8915   1.496   1.358   7.507 -0.5585 -0.2633 -0.7742
   91SAPS  C310 8916   1.417   1.472   7.691  0.6840  0.6676 -0.1645
   91SAPS  H10X 8917   1.319   1.421   7.707  0.1390  0.9745 -2.2259
   91SAPS  H10Y 8918   1.398   1.581   7.708  0.7965  0.4343  1.7072
   91SAPS  C311 8919   1.523   1.427   7.789  0.4483 -0.6633 -0.2019
   91SAPS  H11X 8920   1.610   1.495   7.782 -1.5386  1.9897 -0.7656
   91SAPS  H11Y 8921   1.558   1.327   7.755  2.9637  0.5211 -1.3306
   91SAPS  C312 8922   1.474   1.432   7.934 -0.9343 -0.4840 -0.7702
   91SAPS  H12X 8923   1.407   1.344   7.944 -0.4475 -0.6617  1.3691
   91SAPS  H12Y 8924   1.422   1.529   7.954  1.2512  1.4583 -3.6734
   91SAPS  C313 8925   1.592   1.409   8.029  0.6115 -0.0646 -0.0426
   91SAPS  H13X 8926   1.655   1.500   8.021 -0.3675  0.4972 -1.5870
   91SAPS  H13Y 8927   1.645   1.319   7.991 -2.6460 -2.7479  1.2987
   91SAPS  C314 8928   1.555   1.377   8.181  0.8884 -0.1647 -0.4060
   91SAPS  H14X 8929   1.642   1.372   8.250  0.1186 -0.1452  0.5950
   91SAPS  H14Y 8930   1.502   1.280   8.182 -0.0973  0.2705  3.1569
   91SAPS  C315 8931   1.471   1.487   8.245  0.3986 -0.2155  0.5642
   91SAPS  H15X 8932   1.385   1.505   8.177  0.5038  1.8360  0.9105
   91SAPS  H15Y 8933   1.523   1.585   8.257  1.4824 -0.9778  2.6303
   91SAPS  C316 8934   1.420   1.447   8.389 -0.1808 -0.1590  0.1467
   91SAPS  H16X 8935   1.368   1.351   8.367  0.4401 -0.2238 -1.1765
   91SAPS  H16Y 8936   1.336   1.518   8.401 -0.1960  0.3019 -2.1911
   91SAPS  C317 8937   1.527   1.449   8.507  0.3876 -0.3854 -0.3261
   91SAPS  H17X 8938   1.624   1.403   8.475  0.5243  0.7804 -1.6991
   91SAPS  H17Y 8939   1.491   1.371   8.577  0.1506 -0.2346 -0.2811
   91SAPS  C318 8940   1.552   1.592   8.558 -0.4916 -0.1516  0.6422
   91SAPS  H18X 8941   1.619   1.597   8.646  2.8367 -1.0821 -1.6776
   91SAPS  H18Y 8942   1.451   1.636   8.575 -1.1408 -0.4306 -2.0330
   91SAPS  H18Z 8943   1.590   1.657   8.477  2.8532 -0.1379  2.0852
   92SAPS     N 8944   0.251   5.616   6.266 -0.3757 -0.0090  0.7282
   92SAPS   HN1 8945   0.229   5.573   6.358  0.3307 -3.1945 -0.4400
   92SAPS   HN2 8946   0.217   5.713   6.252 -1.7474 -0.6484 -0.6749
   92SAPS   HN3 8947   0.200   5.560   6.194  1.3201 -0.4002 -0.2387
   92SAPS   C12 8948   0.398   5.616   6.251  0.7976  0.3574  0.0473
   92SAPS  H12A 8949   0.423   5.513   6.227 -0.5254  0.1689 -0.6066
   92SAPS   C13 8950   0.438   5.697   6.127 -0.0445  0.1778 -0.0796
   92SAPS  O13A 8951   0.357   5.761   6.052  0.1438 -0.3695  0.5949
   92SAPS  O13B 8952   0.547   5.658   6.076 -0.1022 -0.3992 -0.1473
   92SAPS   C11 8953   0.469   5.662   6.381 -0.2412 -0.0757  0.1156
   92SAPS  H11A 8954   0.433   5.765   6.403 -0.4539 -0.3307  0.9863
   92SAPS  H11B 8955   0.578   5.658   6.360 -0.3246 -0.6950 -0.2202
   92SAPS     P 8956   0.444   5.608   6.643  0.0843 -0.3783  0.2542
   92SAPS   O13 8957   0.472   5.754   6.652  0.2856 -0.1338  1.0145
   92SAPS   O14 8958   0.324   5.556   6.709  0.1565 -0.2331  0.2252
   92SAPS   O12 8959   0.441   5.568   6.486 -0.2175  0.2862 -1.1863
   92SAPS   O11 8960   0.565   5.521   6.695 -0.3590  0.7277 -0.0746
   92SAPS    C1 8961   0.555   5.378   6.720 -0.1275  0.2348  0.5423
   92SAPS    HA 8962   0.477   5.322   6.665  0.4504 -0.7386  0.6870
   92SAPS    HB 8963   0.653   5.339   6.686 -0.3864  0.4707 -0.4921
   92SAPS    C2 8964   0.553   5.345   6.867  0.3003  0.3154  0.9418
   92SAPS    HS 8965   0.450   5.377   6.894  0.2194  2.8945 -1.8607
   92SAPS   O21 8966   0.652   5.428   6.932 -0.3803 -0.3231 -0.3212
   92SAPS   C21 8967   0.627   5.443   7.067  0.2664  0.6633  0.2585
   92SAPS   O22 8968   0.525   5.407   7.121  0.1613 -0.0824 -0.8343
   92SAPS   C22 8969   0.745   5.512   7.135  0.1419  0.2160 -0.4560
   92SAPS   H2R 8970   0.817   5.428   7.129 -0.0787  0.0997 -1.9739
   92SAPS   H2S 8971   0.776   5.590   7.062 -1.0761  0.4279 -0.7743
   92SAPS    C3 8972   0.584   5.191   6.905 -0.1494 -0.2048 -0.2754
   92SAPS    HX 8973   0.689   5.169   6.878  0.2979  0.2023  1.0522
   92SAPS    HY 8974   0.533   5.120   6.836 -0.8387 -1.9748  1.8923
   92SAPS   O31 8975   0.565   5.158   7.044 -0.0480  0.0168 -0.5903
   92SAPS   C31 8976   0.440   5.120   7.080  0.1321 -0.1018  0.3182
   92SAPS   O32 8977   0.354   5.096   6.999 -0.3987  0.4821  0.4515
   92SAPS   C32 8978   0.426   5.119   7.230  0.7089  0.3599 -0.4978
   92SAPS   H2X 8979   0.322   5.085   7.250  1.3245 -0.7002  1.1262
   92SAPS   H2Y 8980   0.421   5.222   7.271  4.2425  0.4311  0.0591
   92SAPS   C23 8981   0.718   5.561   7.284 -0.5886  0.6077 -0.2431
   92SAPS   H3R 8982   0.621   5.615   7.279  0.6270  2.9044 -0.5195
   92SAPS   H3S 8983   0.799   5.627   7.322  0.6651 -1.2842  0.4886
   92SAPS   C24 8984   0.677   5.452   7.382 -0.7081  0.3393  0.4242
   92SAPS   H4R 8985   0.595   5.396   7.332 -0.1919  0.8228 -1.0269
   92SAPS   H4S 8986   0.617   5.494   7.466 -2.3271 -2.9411  1.0938
   92SAPS   C25 8987   0.790   5.361   7.414 -0.3572 -1.1867  0.0339
   92SAPS   H5R 8988   0.829   5.308   7.325  0.4606  0.4465 -0.6294
   92SAPS   C26 8989   0.862   5.358   7.530  0.0611  0.1575 -0.1946
   92SAPS   H6R 8990   0.951   5.295   7.546 -0.1995  0.0151  0.7462
   92SAPS   C27 8991   0.835   5.435   7.650 -0.0903 -0.2519 -0.8595
   92SAPS   H7R 8992   0.863   5.390   7.748 -1.3531  0.5815 -0.0939
   92SAPS   H7S 8993   0.725   5.451   7.651  0.2392  3.0387 -2.3640
   92SAPS   C28 8994   0.888   5.579   7.652 -0.0493 -0.0458  0.8637
   92SAPS   H8R 8995   0.887   5.629   7.554  1.2088  0.0985  0.9078
   92SAPS   C29 8996   0.916   5.658   7.757 -0.4909  0.5001 -1.1493
   92SAPS   H9R 8997   0.961   5.758   7.748 -0.6642  0.6291 -0.6483
   92SAPS  C210 8998   0.916   5.599   7.898 -0.5293  0.0753  0.6492
   92SAPS  H10R 8999   0.993   5.519   7.900  0.6365  1.1122 -0.6273
   92SAPS  H10S 9000   0.818   5.550   7.917 -0.8326  0.6272  0.5381
   92SAPS  C211 9001   0.928   5.700   8.015  0.3813  0.0799 -0.2387
   92SAPS  H11R 9002   0.900   5.805   7.997 -0.3693 -0.4124 -2.2378
   92SAPS  C212 9003   0.961   5.666   8.135  0.8525  0.8407 -0.5652
   92SAPS  H12R 9004   0.956   5.735   8.221  0.0867 -0.6655  0.6558
   92SAPS  C213 9005   0.996   5.524   8.189  0.2038 -0.8520 -0.3963
   92SAPS  H13R 9006   0.948   5.450   8.123 -1.9197  1.6876 -1.9049
   92SAPS  H13S 9007   0.960   5.510   8.293 -0.6303  1.8052 -0.2597
   92SAPS  C214 9008   1.147   5.511   8.194 -0.5936 -0.4352 -0.4669
   92SAPS  H14R 9009   1.194   5.587   8.131 -2.4681 -0.1259 -1.5971
   92SAPS  C215 9010   1.214   5.416   8.262  0.1797 -0.7365  0.6408
   92SAPS  H15R 9011   1.321   5.400   8.244 -0.2891 -1.8860 -1.4522
   92SAPS  C216 9012   1.151   5.308   8.338 -0.4354  1.0304 -0.4333
   92SAPS  H16R 9013   1.109   5.219   8.288  0.1442  1.0184 -0.9022
   92SAPS  H16S 9014   1.054   5.338   8.383 -0.7926  1.7240 -1.6192
   92SAPS  C217 9015   1.243   5.234   8.443 -0.1385  0.2698  0.1536
   92SAPS  H17R 9016   1.336   5.198   8.394 -0.1289  0.0965  0.2975
   92SAPS  H17S 9017   1.189   5.146   8.483 -0.6782  0.4289 -0.2144
   92SAPS  C218 9018   1.288   5.322   8.551  0.5199  1.2479  0.5706
   92SAPS  H18R 9019   1.199   5.339   8.614  0.3546  1.5505  0.2604
   92SAPS  H18S 9020   1.324   5.416   8.504 -2.2787  1.7393 -0.7691
   92SAPS  C219 9021   1.398   5.252   8.631 -0.6531  0.6830 -0.0615
   92SAPS  H19R 9022   1.488   5.246   8.566  1.5664 -0.7619  2.8995
   92SAPS  H19S 9023   1.361   5.149   8.651  1.0150  0.5020  2.4637
   92SAPS  C220 9024   1.428   5.323   8.763  0.0133  1.1774  0.8221
   92SAPS  H20R 9025   1.440   5.433   8.752  0.7841  1.1890  1.6462
   92SAPS  H20S 9026   1.527   5.284   8.796 -0.2153 -0.6247 -0.4858
   92SAPS  H20T 9027   1.350   5.300   8.839 -0.9631 -0.8753 -0.7033
   92SAPS   C33 9028   0.523   5.020   7.297  0.0080  0.4029  0.5778
   92SAPS   H3X 9029   0.621   5.072   7.301 -0.7833  1.9936 -0.1496
   92SAPS   H3Y 9030   0.538   4.927   7.238  0.6997  0.5195  0.5557
   92SAPS   C34 9031   0.503   4.984   7.448  0.3244  0.0004  0.4237
   92SAPS   H4X 9032   0.585   4.918   7.482  0.4038 -0.4205 -0.5717
   92SAPS   H4Y 9033   0.404   4.934   7.452 -0.0083  0.7123  1.4887
   92SAPS   C35 9034   0.504   5.104   7.543  0.1811 -0.3887  0.1762
   92SAPS   H5X 9035   0.413   5.167   7.530 -0.7269 -1.4833  1.0368
   92SAPS   H5Y 9036   0.591   5.158   7.500  0.9274 -0.6446  1.3306
   92SAPS   C36 9037   0.528   5.068   7.693  0.6710 -0.5218  0.6363
   92SAPS   H6X 9038   0.593   4.978   7.698  1.7832  0.2381  0.1959
   92SAPS   H6Y 9039   0.437   5.050   7.754  0.7953 -0.0450  0.9716
   92SAPS   C37 9040   0.586   5.188   7.767  0.8411  0.1717 -0.5514
   92SAPS   H7X 9041   0.520   5.274   7.740 -1.8860 -2.1764 -1.8631
   92SAPS   H7Y 9042   0.686   5.205   7.722  0.5292 -0.3669 -1.4588
   92SAPS   C38 9043   0.580   5.166   7.921 -0.4745  0.3929  0.2897
   92SAPS   H8X 9044   0.642   5.074   7.926 -0.8314  0.1904  1.2134
   92SAPS   H8Y 9045   0.482   5.160   7.972  0.5630  1.3608  2.5851
   92SAPS   C39 9046   0.664   5.277   7.982  0.1040  0.8797 -0.2567
   92SAPS   H9X 9047   0.627   5.369   7.932 -0.2646  1.2309  0.6511
   92SAPS   H9Y 9048   0.767   5.255   7.948 -0.6646 -2.0153 -0.9955
   92SAPS  C310 9049   0.641   5.291   8.133  0.3923 -0.2591  0.1499
   92SAPS  H10X 9050   0.533   5.291   8.156 -0.1229  0.3549 -2.0826
   92SAPS  H10Y 9051   0.675   5.393   8.165  0.4720 -0.4413  0.6530
   92SAPS  C311 9052   0.726   5.191   8.211 -0.5603  0.6259 -0.6999
   92SAPS  H11X 9053   0.830   5.180   8.173 -0.6493 -1.4123 -0.4484
   92SAPS  H11Y 9054   0.686   5.095   8.171 -1.0103  1.5656 -2.6375
   92SAPS  C312 9055   0.717   5.216   8.364  0.2978  0.7216  0.2160
   92SAPS  H12X 9056   0.612   5.250   8.377 -0.7348 -2.4821  1.2801
   92SAPS  H12Y 9057   0.785   5.294   8.404  1.9373 -0.0062 -1.0645
   92SAPS  C313 9058   0.716   5.083   8.443 -1.3119 -0.9952 -0.2141
   92SAPS  H13X 9059   0.658   5.002   8.393  0.5443 -2.6820  0.2567
   92SAPS  H13Y 9060   0.669   5.105   8.542 -1.6736 -2.3135 -0.0796
   92SAPS  C314 9061   0.859   5.029   8.482  0.0634  0.3514  0.0028
   92SAPS  H14X 9062   0.923   5.109   8.524 -0.7051 -0.4875  3.0344
   92SAPS  H14Y 9063   0.911   4.991   8.392 -1.6671 -1.5216 -0.2962
   92SAPS  C315 9064   0.854   4.901   8.567 -0.0413  0.1046 -0.1286
   92SAPS  H15X 9065   0.804   4.826   8.502  0.8730  1.2604 -2.2495
   92SAPS  H15Y 9066   0.797   4.912   8.662  2.1966  0.6750  1.2283
   92SAPS  C316 9067   0.991   4.837   8.588 -0.4759 -0.1027 -0.2583
   92SAPS  H16X 9068   1.046   4.919   8.640 -0.3175  1.7835 -3.1592
   92SAPS  H16Y 9069   1.047   4.811   8.495  2.3744 -0.8230  1.5152
   92SAPS  C317 9070   0.980   4.718   8.676 -0.6223  0.4311 -0.6951
   92SAPS  H17X 9071   0.883   4.667   8.656 -0.5670 -0.9320  2.1165
   92SAPS  H17Y 9072   0.996   4.732   8.784  0.4247 -0.2145 -0.7602
   92SAPS  C318 9073   1.077   4.609   8.637  0.6236 -0.0473 -0.0786
   92SAPS  H18X 9074   1.062   4.575   8.532 -1.5760 -4.1267  1.3206
   92SAPS  H18Y 9075   1.085   4.523   8.708 -0.7839  0.6437  0.9459
   92SAPS  H18Z 9076   1.180   4.652   8.643  0.4284  0.8051 -2.1262
   93SAPS     N 9077   2.142   4.721   6.699  0.1742 -0.4846 -0.1940
   93SAPS   HN1 9078   2.145   4.808   6.757 -1.9041  0.7060 -1.7544
   93SAPS   HN2 9079   2.064   4.660   6.732  0.2042 -1.3699 -1.6620
   93SAPS   HN3 9080   2.219   4.652   6.714 -1.8832 -3.0091 -0.4185
   93SAPS   C12 9081   2.156   4.744   6.555 -0.6070  0.1114 -0.1775
   93SAPS  H12A 9082   2.244   4.805   6.545  0.3115 -1.2728 -0.9239
   93SAPS   C13 9083   2.181   4.605   6.485 -0.3557 -0.2324 -0.0325
   93SAPS  O13A 9084   2.175   4.503   6.559 -0.2303  0.2686 -0.3062
   93SAPS  O13B 9085   2.236   4.604   6.374 -0.1056 -0.1314 -0.0239
   93SAPS   C11 9086   2.030   4.820   6.507 -0.2618 -0.3772 -0.5912
   93SAPS  H11A 9087   1.953   4.745   6.532  1.2722 -1.3406  1.6091
   93SAPS  H11B 9088   2.043   4.835   6.398 -0.4517 -0.2459 -0.5965
   93SAPS     P 9089   1.914   5.050   6.557  0.3201 -0.0304 -0.0811
   93SAPS   O13 9090   1.938   5.162   6.640  0.3330 -0.1117 -0.8635
   93SAPS   O14 9091   1.903   5.094   6.412  0.4026 -0.2570 -1.3115
   93SAPS   O12 9092   2.028   4.944   6.578 -0.2838  0.3015  0.2094
   93SAPS   O11 9093   1.787   4.966   6.584  0.5176  0.4080 -0.4514
   93SAPS    C1 9094   1.765   4.903   6.717 -0.0540  0.1955  0.8041
   93SAPS    HA 9095   1.688   4.822   6.715 -1.2476  1.2997  0.6615
   93SAPS    HB 9096   1.863   4.868   6.757  0.4732  3.7990  3.1782
   93SAPS    C2 9097   1.700   4.995   6.818 -0.0949 -0.0892 -0.1170
   93SAPS    HS 9098   1.616   5.029   6.754  0.2687 -0.0313 -0.5733
   93SAPS   O21 9099   1.774   5.111   6.836  0.4113 -0.2228 -0.2189
   93SAPS   C21 9100   1.708   5.208   6.892 -0.3205 -0.3713  0.0737
   93SAPS   O22 9101   1.588   5.216   6.903  0.4581  0.4594 -0.4907
   93SAPS   C22 9102   1.814   5.307   6.937  0.6017 -0.0885  0.3176
   93SAPS   H2R 9103   1.878   5.330   6.850  1.3827  1.1939  1.2049
   93SAPS   H2S 9104   1.762   5.401   6.965  1.3593  0.3140  0.3922
   93SAPS    C3 9105   1.667   4.924   6.951  0.3180  0.3925  0.4551
   93SAPS    HX 9106   1.609   4.834   6.923 -0.6226  0.2412  2.7101
   93SAPS    HY 9107   1.597   4.989   7.008  1.7097  2.0750  0.3426
   93SAPS   O31 9108   1.784   4.908   7.035 -0.3029 -0.1299  0.1418
   93SAPS   C31 9109   1.817   4.782   7.063 -0.5024  0.1160  0.2936
   93SAPS   O32 9110   1.753   4.685   7.026  1.0760  0.3367  0.1984
   93SAPS   C32 9111   1.938   4.778   7.154  0.7857 -0.2136 -0.0975
   93SAPS   H2X 9112   2.027   4.833   7.117  1.1977  0.7609  2.1663
   93SAPS   H2Y 9113   1.951   4.668   7.158 -1.5198 -0.5102  0.5823
   93SAPS   C23 9114   1.897   5.254   7.046  0.5761  0.4979  0.4474
   93SAPS   H3R 9115   1.970   5.334   7.069  0.2708  0.8663  0.1439
   93SAPS   H3S 9116   1.944   5.158   7.016 -1.6077 -0.3493 -0.4319
   93SAPS   C24 9117   1.820   5.241   7.179  0.2925  0.1590  0.1151
   93SAPS   H4R 9118   1.897   5.206   7.251 -1.1974  1.7409  2.6391
   93SAPS   H4S 9119   1.752   5.156   7.159  0.3983  0.7130 -3.0867
   93SAPS   C25 9120   1.760   5.367   7.235  0.1807 -0.3096 -0.8832
   93SAPS   H5R 9121   1.682   5.423   7.182 -1.0952 -1.5852 -0.4173
   93SAPS   C26 9122   1.789   5.408   7.363  0.4737 -0.6292  0.5263
   93SAPS   H6R 9123   1.740   5.499   7.398  0.2890  0.0291 -1.3151
   93SAPS   C27 9124   1.885   5.347   7.462  0.0364 -0.0534 -0.7235
   93SAPS   H7R 9125   1.912   5.425   7.537 -0.9317 -1.6529  1.3942
   93SAPS   H7S 9126   1.978   5.316   7.410  0.5206 -0.3575  0.2993
   93SAPS   C28 9127   1.829   5.227   7.534  0.8003 -0.2291  0.3020
   93SAPS   H8R 9128   1.770   5.160   7.470 -0.5552  0.8445  0.3641
   93SAPS   C29 9129   1.823   5.196   7.671 -0.4942 -0.3092  1.0877
   93SAPS   H9R 9130   1.790   5.098   7.708 -0.4964 -0.6726  0.1569
   93SAPS  C210 9131   1.896   5.285   7.771  0.2182 -0.6116  0.1442
   93SAPS  H10R 9132   1.839   5.379   7.784  0.5401 -0.3805 -0.1008
   93SAPS  H10S 9133   1.995   5.314   7.731  0.6509  0.7228  2.0435
   93SAPS  C211 9134   1.931   5.223   7.906 -0.2411 -0.4813  0.1698
   93SAPS  H11R 9135   2.038   5.217   7.932  0.1006 -0.2654 -1.1067
   93SAPS  C212 9136   1.846   5.182   8.004 -0.1859 -0.9311 -1.1699
   93SAPS  H12R 9137   1.886   5.146   8.100 -0.4391 -0.1410 -0.7654
   93SAPS  C213 9138   1.698   5.187   8.005 -0.2645  0.0256 -1.2356
   93SAPS  H13R 9139   1.656   5.086   8.021 -2.7751  1.1027 -0.4106
   93SAPS  H13S 9140   1.667   5.204   7.900  1.1550 -0.7513 -1.8020
   93SAPS  C214 9141   1.626   5.270   8.107 -0.2859 -0.2634  0.4653
   93SAPS  H14R 9142   1.584   5.360   8.060 -0.7727 -1.1920 -0.9430
   93SAPS  C215 9143   1.609   5.244   8.237 -0.1552  0.1907 -0.2977
   93SAPS  H15R 9144   1.544   5.315   8.289 -1.0298  0.5469 -1.8185
   93SAPS  C216 9145   1.656   5.114   8.305 -0.9561 -0.5845  0.1246
   93SAPS  H16R 9146   1.719   5.050   8.239 -0.9881 -2.6569  1.9732
   93SAPS  H16S 9147   1.560   5.059   8.315 -0.6465 -2.0818 -3.3508
   93SAPS  C217 9148   1.732   5.154   8.435 -0.6615  0.4617 -0.1504
   93SAPS  H17R 9149   1.664   5.187   8.516 -1.4140 -1.1335 -0.0933
   93SAPS  H17S 9150   1.813   5.224   8.406 -0.3462  0.6262  1.0669
   93SAPS  C218 9151   1.792   5.025   8.490  0.0662 -0.1187  0.7401
   93SAPS  H18R 9152   1.869   4.984   8.421 -1.3639  1.7584 -2.2061
   93SAPS  H18S 9153   1.701   4.961   8.491 -0.1920  0.2016  2.9825
   93SAPS  C219 9154   1.840   5.031   8.637  0.6284  0.0683 -0.1327
   93SAPS  H19R 9155   1.748   5.045   8.697  1.0073  2.9704 -0.1225
   93SAPS  H19S 9156   1.913   5.111   8.662  1.9718 -0.9938 -0.5298
   93SAPS  C220 9157   1.905   4.902   8.692  0.0886  0.1817  0.1095
   93SAPS  H20R 9158   1.898   4.892   8.803  3.5177  0.1287  0.4363
   93SAPS  H20S 9159   2.015   4.892   8.678  0.2339  0.5862  0.8547
   93SAPS  H20T 9160   1.857   4.811   8.651  0.6031 -0.5550  1.0813
   93SAPS   C33 9161   1.896   4.843   7.296 -0.4794 -0.2966 -0.0454
   93SAPS   H3X 9162   1.803   4.786   7.318 -1.0310 -0.9097 -3.3695
   93SAPS   H3Y 9163   1.860   4.948   7.287 -0.4117 -0.3567 -1.1747
   93SAPS   C34 9164   2.006   4.819   7.402 -0.2899 -0.1215 -0.5377
   93SAPS   H4X 9165   2.103   4.850   7.358  0.1333 -0.8576 -0.1515
   93SAPS   H4Y 9166   2.017   4.708   7.408  1.5528  0.1003  1.5397
   93SAPS   C35 9167   1.965   4.870   7.540 -0.2857  0.2553  0.1662
   93SAPS   H5X 9168   1.856   4.851   7.556  0.1463 -1.4340  1.3667
   93SAPS   H5Y 9169   1.989   4.977   7.525 -0.0303 -0.1713 -2.9757
   93SAPS   C36 9170   2.035   4.814   7.666  0.0444 -0.4521  0.0920
   93SAPS   H6X 9171   2.144   4.829   7.647 -0.4048  2.2376 -0.8314
   93SAPS   H6Y 9172   2.005   4.708   7.680 -0.0921 -0.0351  4.3371
   93SAPS   C37 9173   2.002   4.890   7.801 -1.2235  0.5063  0.2155
   93SAPS   H7X 9174   1.892   4.896   7.815 -1.0393  0.9287  1.6355
   93SAPS   H7Y 9175   2.043   4.993   7.797 -1.4992  0.6735  1.3809
   93SAPS   C38 9176   2.069   4.822   7.916 -0.6580  0.3837 -0.5453
   93SAPS   H8X 9177   2.180   4.834   7.918 -0.6652  0.4281  0.5809
   93SAPS   H8Y 9178   2.040   4.717   7.895  0.2737  0.5430 -2.9356
   93SAPS   C39 9179   2.005   4.869   8.046  0.3090  1.1256 -0.1031
   93SAPS   H9X 9180   1.898   4.839   8.044  1.1105 -2.1596  0.7301
   93SAPS   H9Y 9181   2.032   4.977   8.057  1.5575  0.7925  0.2796
   93SAPS  C310 9182   2.047   4.782   8.172  0.7128  0.0377  0.7116
   93SAPS  H10X 9183   2.043   4.674   8.148 -0.2363 -0.0653  1.2998
   93SAPS  H10Y 9184   1.968   4.798   8.249 -1.2347  2.9726 -1.6391
   93SAPS  C311 9185   2.185   4.819   8.228  1.0812  0.1161  0.4281
   93SAPS  H11X 9186   2.192   4.930   8.235 -0.8527  0.3484 -0.5273
   93SAPS  H11Y 9187   2.260   4.789   8.152 -0.0839  1.0291 -1.1284
   93SAPS  C312 9188   2.226   4.750   8.356  0.2171 -0.6206  0.4063
   93SAPS  H12X 9189   2.141   4.759   8.426 -1.9383  0.9576 -2.2205
   93SAPS  H12Y 9190   2.319   4.794   8.398  0.7488 -2.2524  1.0339
   93SAPS  C313 9191   2.246   4.599   8.331 -0.2487  0.1640  0.1402
   93SAPS  H13X 9192   2.298   4.565   8.239  2.0748 -1.7229  2.0109
   93SAPS  H13Y 9193   2.143   4.561   8.320  0.5246 -2.0464  0.0503
   93SAPS  C314 9194   2.320   4.522   8.445  0.1931 -1.3466  0.3545
   93SAPS  H14X 9195   2.302   4.586   8.534  0.0221 -0.7798 -0.0832
   93SAPS  H14Y 9196   2.428   4.531   8.420  0.4622 -2.7057  0.9603
   93SAPS  C315 9197   2.272   4.382   8.468 -0.1708  0.3182  0.3696
   93SAPS  H15X 9198   2.277   4.324   8.373  1.6695  0.7251  0.1908
   93SAPS  H15Y 9199   2.163   4.382   8.492 -1.0407 -1.2187 -2.9127
   93SAPS  C316 9200   2.352   4.307   8.578  0.1940  0.5075  0.4126
   93SAPS  H16X 9201   2.341   4.372   8.668 -0.4027  0.4877  0.3548
   93SAPS  H16Y 9202   2.457   4.287   8.548 -0.0897 -1.0844  0.4109
   93SAPS  C317 9203   2.288   4.176   8.627  0.4358 -1.3261  0.2867
   93SAPS  H17X 9204   2.276   4.109   8.539 -2.2199 -1.1136  0.4067
   93SAPS  H17Y 9205   2.182   4.188   8.658 -0.0176 -2.9755 -0.5113
   93SAPS  C318 9206   2.365   4.125   8.745 -0.0860  0.0900 -0.5341
   93SAPS  H18X 9207   2.308   4.043   8.793 -1.5616  2.6328  2.3739
   93SAPS  H18Y 9208   2.378   4.200   8.825  1.2858  0.7354 -1.3258
   93SAPS  H18Z 9209   2.465   4.092   8.710 -0.7581  0.0939 -2.6379
   94SAPS     N 9210   2.046   1.785   5.618  0.0982  0.5249  0.2596
   94SAPS   HN1 9211   2.019   1.880   5.584  1.3077  1.4880  1.8331
   94SAPS   HN2 9212   2.074   1.723   5.540 -2.9220 -0.7121  0.0504
   94SAPS   HN3 9213   1.966   1.740   5.667  0.5412 -1.4907 -0.7740
   94SAPS   C12 9214   2.154   1.802   5.719 -0.0740 -0.2527  0.1736
   94SAPS  H12A 9215   2.192   1.703   5.741  1.5943  0.5709  1.1807
   94SAPS   C13 9216   2.274   1.881   5.661 -0.1398  0.5741 -0.0545
   94SAPS  O13A 9217   2.259   1.943   5.551  0.2176  0.3882  0.0573
   94SAPS  O13B 9218   2.376   1.897   5.739  0.0728 -0.4549 -0.0369
   94SAPS   C11 9219   2.094   1.863   5.845  0.2396 -0.4854  0.9454
   94SAPS  H11A 9220   2.087   1.973   5.826 -0.5267 -0.0994  3.1934
   94SAPS  H11B 9221   2.159   1.864   5.935 -1.7741  1.0771  2.4935
   94SAPS     P 9222   1.847   1.894   5.928  0.0694  0.1829 -0.2635
   94SAPS   O13 9223   1.809   1.985   5.817  0.3353  0.2624  0.4227
   94SAPS   O14 9224   1.738   1.810   5.984  0.5686  0.0844 -0.1884
   94SAPS   O12 9225   1.966   1.801   5.879  0.0959  0.4903 -0.2720
   94SAPS   O11 9226   1.917   1.983   6.037 -0.1786 -0.7630 -0.2214
   94SAPS    C1 9227   1.961   1.924   6.157  0.2683  0.1472 -0.3126
   94SAPS    HA 9228   1.986   1.818   6.137 -1.4506  0.0018 -1.9433
   94SAPS    HB 9229   2.045   1.986   6.196  1.0628 -1.2625  0.2911
   94SAPS    C2 9230   1.850   1.917   6.269  0.6176 -0.7598  0.4578
   94SAPS    HS 9231   1.765   1.859   6.226  0.6269 -2.5472  2.6679
   94SAPS   O21 9232   1.805   2.049   6.305  0.2773 -0.2418 -0.6781
   94SAPS   C21 9233   1.705   2.050   6.391 -0.6337  0.6093 -0.4527
   94SAPS   O22 9234   1.633   1.957   6.421  0.3662 -0.3652 -0.1660
   94SAPS   C22 9235   1.727   2.185   6.470  0.7827  0.4236 -0.2300
   94SAPS   H2R 9236   1.830   2.226   6.474  1.4817 -1.2883 -0.0524
   94SAPS   H2S 9237   1.675   2.273   6.426 -1.9732 -0.5599  0.8629
   94SAPS    C3 9238   1.920   1.842   6.387  0.2072  0.2595  0.6880
   94SAPS    HX 9239   1.989   1.916   6.432 -0.0365  0.0832  1.3674
   94SAPS    HY 9240   1.984   1.756   6.360  1.8630  1.0450  1.9469
   94SAPS   O31 9241   1.834   1.810   6.502 -0.3895 -0.2549  0.2022
   94SAPS   C31 9242   1.752   1.709   6.487  0.2816  0.0936  1.0512
   94SAPS   O32 9243   1.738   1.647   6.381  0.4319  0.5382 -0.1479
   94SAPS   C32 9244   1.659   1.696   6.615  0.8534  0.0910 -0.2255
   94SAPS   H2X 9245   1.559   1.706   6.568  0.5578 -0.2574  0.3062
   94SAPS   H2Y 9246   1.675   1.782   6.684  1.2221 -0.4096  0.3300
   94SAPS   C23 9247   1.686   2.179   6.621 -0.4700 -0.3761  0.0245
   94SAPS   H3R 9248   1.580   2.144   6.623 -0.8238  0.4950 -1.6470
   94SAPS   H3S 9249   1.691   2.282   6.662 -0.9128  1.3029 -3.7144
   94SAPS   C24 9250   1.769   2.087   6.714  0.2041  0.1639 -0.4948
   94SAPS   H4R 9251   1.872   2.128   6.702  0.2337  0.2577  0.0714
   94SAPS   H4S 9252   1.770   1.985   6.669  2.3999  0.6957 -1.8014
   94SAPS   C25 9253   1.709   2.082   6.852  0.4470 -0.5649 -0.3438
   94SAPS   H5R 9254   1.615   2.027   6.870  1.1596 -1.4426  0.8033
   94SAPS   C26 9255   1.753   2.134   6.965 -0.9712  0.3815  0.0291
   94SAPS   H6R 9256   1.692   2.133   7.056  0.6351  0.7947  1.1612
   94SAPS   C27 9257   1.885   2.211   6.962 -0.2915 -0.5421 -0.0517
   94SAPS   H7R 9258   1.917   2.260   6.868 -0.8394  0.8672  0.4627
   94SAPS   H7S 9259   1.972   2.146   6.981  0.6683  1.2473  2.2346
   94SAPS   C28 9260   1.880   2.315   7.074 -0.7982 -0.4540 -0.6388
   94SAPS   H8R 9261   1.859   2.419   7.046 -1.6878 -0.2584  0.6882
   94SAPS   C29 9262   1.906   2.291   7.204 -1.0380  0.0908 -0.2114
   94SAPS   H9R 9263   1.876   2.368   7.276  2.8494  0.9787  0.6822
   94SAPS  C210 9264   1.936   2.159   7.271  0.1763  0.1533  0.3468
   94SAPS  H10R 9265   2.035   2.163   7.322  0.1022 -0.9669  0.6110
   94SAPS  H10S 9266   1.934   2.077   7.196 -0.6713  1.5745 -1.2567
   94SAPS  C211 9267   1.822   2.124   7.368 -0.4891 -0.3106  0.1226
   94SAPS  H11R 9268   1.731   2.088   7.319  0.0075  0.7236 -1.6464
   94SAPS  C212 9269   1.826   2.117   7.503 -0.0291 -0.7547  0.2929
   94SAPS  H12R 9270   1.740   2.086   7.563 -1.4923  0.6971 -0.9875
   94SAPS  C213 9271   1.942   2.163   7.591 -0.2121  0.2497  0.8469
   94SAPS  H13R 9272   1.908   2.228   7.673 -0.6238 -0.5869  1.3486
   94SAPS  H13S 9273   2.024   2.213   7.534 -0.5544  1.4714  1.3962
   94SAPS  C214 9274   2.005   2.049   7.663 -0.1865 -0.1300  0.0378
   94SAPS  H14R 9275   1.989   1.953   7.612  0.6625  0.3687 -1.2207
   94SAPS  C215 9276   2.101   2.055   7.760  0.1409 -0.3614  0.3505
   94SAPS  H15R 9277   2.140   1.958   7.795 -2.1130 -2.0016 -1.3777
   94SAPS  C216 9278   2.164   2.180   7.813  0.3373 -0.3190  0.5236
   94SAPS  H16R 9279   2.093   2.221   7.888 -1.1657  2.8018 -2.3106
   94SAPS  H16S 9280   2.153   2.260   7.737 -2.0326 -2.0527 -1.1117
   94SAPS  C217 9281   2.310   2.169   7.853  0.3588 -0.0263  0.2424
   94SAPS  H17R 9282   2.320   2.075   7.912 -0.4877 -1.4475 -1.7728
   94SAPS  H17S 9283   2.341   2.245   7.927  2.7630  1.3373 -1.9844
   94SAPS  C218 9284   2.413   2.170   7.736  0.1023 -0.6299 -0.9782
   94SAPS  H18R 9285   2.406   2.268   7.683  2.8306 -0.8395 -1.9198
   94SAPS  H18S 9286   2.367   2.099   7.663 -2.2424  0.4361 -0.6226
   94SAPS  C219 9287   2.565   2.132   7.761 -0.3429  0.1731 -0.2964
   94SAPS  H19R 9288   2.581   2.070   7.852  1.4623  2.0239  0.7468
   94SAPS  H19S 9289   2.618   2.228   7.776  2.2126 -0.7630 -2.4530
   94SAPS  C220 9290   2.622   2.062   7.642  0.4943  0.5536  0.4817
   94SAPS  H20R 9291   2.623   2.123   7.549 -0.3316  1.5876  1.1189
   94SAPS  H20S 9292   2.568   1.969   7.617  0.1442  0.3150  2.0027
   94SAPS  H20T 9293   2.728   2.035   7.662 -0.3381 -1.9274  2.0059
   94SAPS   C33 9294   1.669   1.565   6.699 -0.1514 -0.1200  0.3579
   94SAPS   H3X 9295   1.763   1.508   6.684 -0.4842 -0.8435  0.9261
   94SAPS   H3Y 9296   1.591   1.491   6.672  2.3160 -2.6103 -0.3113
   94SAPS   C34 9297   1.645   1.587   6.851  0.6575 -0.2588 -0.0014
   94SAPS   H4X 9298   1.561   1.652   6.881  1.2334  0.5865 -0.1843
   94SAPS   H4Y 9299   1.736   1.639   6.888  0.0918 -0.9823  2.6375
   94SAPS   C35 9300   1.632   1.453   6.925  0.0054  0.5201  0.1656
   94SAPS   H5X 9301   1.698   1.387   6.864 -0.6757  0.4315 -0.4875
   94SAPS   H5Y 9302   1.536   1.398   6.919  0.7919 -0.7499 -3.2705
   94SAPS   C36 9303   1.696   1.461   7.066  0.2499  0.6991  0.1483
   94SAPS   H6X 9304   1.632   1.526   7.130 -1.6609 -0.9706  0.0486
   94SAPS   H6Y 9305   1.788   1.522   7.054 -0.1941  1.0228 -2.2043
   94SAPS   C37 9306   1.715   1.327   7.135  0.0542  0.0796  0.1392
   94SAPS   H7X 9307   1.790   1.266   7.080 -0.8309 -0.7001 -0.2318
   94SAPS   H7Y 9308   1.625   1.263   7.138  1.3435 -1.8107  0.0175
   94SAPS   C38 9309   1.771   1.347   7.277  0.0089 -0.0591 -0.6824
   94SAPS   H8X 9310   1.688   1.378   7.345  0.7872 -1.8591  1.2127
   94SAPS   H8Y 9311   1.848   1.427   7.275 -0.9942  0.9568 -0.5073
   94SAPS   C39 9312   1.835   1.223   7.334  0.7220 -0.3356 -0.3543
   94SAPS   H9X 9313   1.924   1.186   7.280  0.3725 -0.5611 -0.7820
   94SAPS   H9Y 9314   1.757   1.145   7.347 -1.3820  1.7586  0.4817
   94SAPS  C310 9315   1.875   1.253   7.485 -0.5515  0.4117  0.5157
   94SAPS  H10X 9316   1.801   1.328   7.519  0.5146  1.9999 -0.5164
   94SAPS  H10Y 9317   1.973   1.304   7.480 -1.2992  1.7603 -1.3158
   94SAPS  C311 9318   1.867   1.135   7.585  0.0604 -0.0353  0.1890
   94SAPS  H11X 9319   1.926   1.053   7.538 -0.3166 -0.0122 -0.3291
   94SAPS  H11Y 9320   1.761   1.103   7.591 -0.4506  1.4749 -0.4949
   94SAPS  C312 9321   1.934   1.160   7.722 -0.1885  0.3357  0.1723
   94SAPS  H12X 9322   2.045   1.157   7.708 -0.1932  0.5838  0.0774
   94SAPS  H12Y 9323   1.908   1.085   7.799 -1.0701  2.1180  1.6970
   94SAPS  C313 9324   1.921   1.295   7.781  0.3727  0.4493 -0.3622
   94SAPS  H13X 9325   1.823   1.305   7.833  0.9637  1.6646  0.5792
   94SAPS  H13Y 9326   1.929   1.386   7.717 -1.6701  0.8258 -0.1591
   94SAPS  C314 9327   2.018   1.314   7.897 -0.2381  0.2368 -0.1785
   94SAPS  H14X 9328   2.119   1.287   7.860 -0.1044  0.3320  0.1127
   94SAPS  H14Y 9329   1.993   1.258   7.990  1.6428  0.5260  0.5437
   94SAPS  C315 9330   2.024   1.460   7.946  0.2258 -0.3500  0.6343
   94SAPS  H15X 9331   1.929   1.480   7.999  0.9635  0.7474  1.5943
   94SAPS  H15Y 9332   2.015   1.530   7.860  0.5576  0.0634  0.9309
   94SAPS  C316 9333   2.151   1.477   8.031  0.1171  0.8552  0.0124
   94SAPS  H16X 9334   2.239   1.508   7.970  0.7852 -3.7192 -1.7125
   94SAPS  H16Y 9335   2.173   1.377   8.075 -0.3862  0.2077 -1.1780
   94SAPS  C317 9336   2.126   1.595   8.128  0.8254  0.1452  0.0643
   94SAPS  H17X 9337   2.024   1.589   8.171  0.2384 -0.5841 -1.3604
   94SAPS  H17Y 9338   2.121   1.690   8.071  2.8360  0.0635 -0.3268
   94SAPS  C318 9339   2.236   1.598   8.237  0.2385 -0.2344 -0.7423
   94SAPS  H18X 9340   2.226   1.693   8.293  0.7567 -1.0695  0.8099
   94SAPS  H18Y 9341   2.338   1.597   8.193  1.1476  1.1026  1.2203
   94SAPS  H18Z 9342   2.212   1.515   8.307 -2.7381  0.1984 -1.1055
   95SAPS     N 9343   5.381   5.043   6.077 -0.4118 -0.2367  0.0464
   95SAPS   HN1 9344   5.341   4.987   5.999 -0.5573 -0.4884  0.3019
   95SAPS   HN2 9345   5.481   5.053   6.048 -0.1070 -2.2607  0.2394
   95SAPS   HN3 9346   5.368   4.990   6.165 -1.9964 -3.3432 -1.9058
   95SAPS   C12 9347   5.304   5.180   6.079  0.1680  0.1758 -0.4600
   95SAPS  H12A 9348   5.344   5.248   6.152 -0.5883  1.3509 -1.1181
   95SAPS   C13 9349   5.305   5.252   5.945  0.2062 -0.3995 -0.5145
   95SAPS  O13A 9350   5.339   5.197   5.834 -0.1295  0.3555 -0.1614
   95SAPS  O13B 9351   5.233   5.358   5.937  0.0855 -0.0489  0.3155
   95SAPS   C11 9352   5.154   5.161   6.118 -0.1263  0.1630 -0.1682
   95SAPS  H11A 9353   5.101   5.093   6.048 -0.9649  0.3683  0.2547
   95SAPS  H11B 9354   5.089   5.250   6.114 -1.1780 -0.4941  1.2960
   95SAPS     P 9355   5.113   4.980   6.302 -0.0296 -0.0099 -0.2617
   95SAPS   O13 9356   4.973   4.946   6.277  0.3576  1.0145 -0.3099
   95SAPS   O14 9357   5.215   4.885   6.248  0.9650 -0.2352  0.2987
   95SAPS   O12 9358   5.136   5.124   6.252 -0.1900 -0.5362  0.7914
   95SAPS   O11 9359   5.133   4.995   6.450 -0.5252  0.1124 -0.8396
   95SAPS    C1 9360   5.090   5.107   6.523  0.6489 -0.1533  0.0122
   95SAPS    HA 9361   5.175   5.176   6.541  0.4652 -0.0440  0.4775
   95SAPS    HB 9362   5.017   5.176   6.476  0.9416  1.2931  1.5438
   95SAPS    C2 9363   5.023   5.071   6.659  0.5139 -0.0923 -0.5492
   95SAPS    HS 9364   5.024   5.164   6.720 -0.6603  0.1303 -0.8449
   95SAPS   O21 9365   5.102   4.964   6.728  0.9758 -0.4937 -0.2834
   95SAPS   C21 9366   5.223   4.994   6.766  0.1318  0.6057  0.5897
   95SAPS   O22 9367   5.272   5.105   6.784 -0.0829  0.1768  0.4780
   95SAPS   C22 9368   5.294   4.856   6.803  0.0865  0.1795  0.2407
   95SAPS   H2R 9369   5.228   4.796   6.869 -0.2482 -0.3386 -0.5469
   95SAPS   H2S 9370   5.304   4.807   6.703  1.5785 -2.1334  1.4423
   95SAPS    C3 9371   4.872   5.014   6.644  0.3402 -0.1520  0.7652
   95SAPS    HX 9372   4.885   4.919   6.589  1.6248 -0.1914  1.1085
   95SAPS    HY 9373   4.818   5.093   6.586  0.7727 -0.7898 -0.5434
   95SAPS   O31 9374   4.798   4.986   6.770  0.1683 -0.1899  0.5885
   95SAPS   C31 9375   4.774   5.091   6.846  0.1679  0.2829 -0.1264
   95SAPS   O32 9376   4.805   5.204   6.816  0.1405  0.1321 -0.1923
   95SAPS   C32 9377   4.710   5.036   6.971 -0.1013  0.5831  0.5188
   95SAPS   H2X 9378   4.756   4.946   7.019 -0.9329  0.2586  0.7226
   95SAPS   H2Y 9379   4.606   5.008   6.942  0.2390  0.8555 -1.0794
   95SAPS   C23 9380   5.437   4.869   6.847  0.1459 -0.3182  0.4650
   95SAPS   H3R 9381   5.480   4.956   6.793  2.3174 -1.0796  0.8742
   95SAPS   H3S 9382   5.484   4.773   6.816  0.1584 -0.2475  0.2588
   95SAPS   C24 9383   5.453   4.886   7.000  0.3076  0.6758 -0.9871
   95SAPS   H4R 9384   5.364   4.841   7.049  0.1399 -0.2167 -2.0750
   95SAPS   H4S 9385   5.446   4.994   7.021 -0.9345  0.6803 -1.3827
   95SAPS   C25 9386   5.579   4.822   7.053  0.0411 -0.1828  0.2447
   95SAPS   H5R 9387   5.669   4.836   6.991 -0.4270 -0.4693 -0.5140
   95SAPS   C26 9388   5.591   4.745   7.158  0.0928 -0.4060 -0.2279
   95SAPS   H6R 9389   5.689   4.699   7.178 -0.1365 -0.2714  1.3623
   95SAPS   C27 9390   5.475   4.719   7.259 -0.1501 -0.8800  0.1081
   95SAPS   H7R 9391   5.379   4.687   7.214 -2.2745  0.6246  3.2148
   95SAPS   H7S 9392   5.451   4.819   7.302  0.9705 -0.7624  0.5138
   95SAPS   C28 9393   5.504   4.616   7.363  0.0846 -0.6361 -0.1613
   95SAPS   H8R 9394   5.546   4.522   7.325  1.5788  0.4617 -1.3274
   95SAPS   C29 9395   5.499   4.633   7.501  0.3288 -0.0960 -0.0409
   95SAPS   H9R 9396   5.538   4.554   7.568  1.4498 -0.5335 -1.1752
   95SAPS  C210 9397   5.456   4.759   7.571 -0.0173 -0.1340 -0.2120
   95SAPS  H10R 9398   5.362   4.746   7.629  0.2941  0.6337  0.4901
   95SAPS  H10S 9399   5.425   4.839   7.501 -3.1903 -0.3421  0.8210
   95SAPS  C211 9400   5.558   4.815   7.669  0.0573 -0.5767  0.3833
   95SAPS  H11R 9401   5.642   4.864   7.617 -0.5498 -1.8484 -1.9607
   95SAPS  C212 9402   5.558   4.820   7.803 -0.3715  0.4036  0.4731
   95SAPS  H12R 9403   5.645   4.869   7.849  1.1970  0.7415 -2.6182
   95SAPS  C213 9404   5.458   4.765   7.901 -0.4236 -0.0704  0.1209
   95SAPS  H13R 9405   5.497   4.665   7.931  0.2654  0.2824  0.4211
   95SAPS  H13S 9406   5.358   4.744   7.857 -0.0493  1.5588 -1.5929
   95SAPS  C214 9407   5.424   4.873   8.010 -0.0458 -0.2710 -0.8200
   95SAPS  H14R 9408   5.321   4.911   8.008 -0.4021 -1.2302 -2.4345
   95SAPS  C215 9409   5.495   4.905   8.126 -0.0331  0.0406  0.7511
   95SAPS  H15R 9410   5.447   4.980   8.191  1.0026  0.5707  0.9288
   95SAPS  C216 9411   5.621   4.844   8.175 -0.1119 -0.5632 -0.3790
   95SAPS  H16R 9412   5.706   4.907   8.143 -1.1574  0.9452 -0.2994
   95SAPS  H16S 9413   5.640   4.751   8.118 -1.8532 -0.3296 -1.4247
   95SAPS  C217 9414   5.616   4.816   8.325 -0.6112  0.8014 -0.1366
   95SAPS  H17R 9415   5.593   4.912   8.376  0.1246 -0.3875  2.6323
   95SAPS  H17S 9416   5.708   4.776   8.375 -1.0629 -0.2420 -0.1134
   95SAPS  C218 9417   5.515   4.700   8.363 -0.9380 -0.3714 -0.6641
   95SAPS  H18R 9418   5.533   4.617   8.291  1.0380 -0.8054  0.2755
   95SAPS  H18S 9419   5.413   4.735   8.334 -0.4846 -0.2219 -2.1690
   95SAPS  C219 9420   5.509   4.653   8.507 -0.1536  0.3204 -0.4698
   95SAPS  H19R 9421   5.464   4.738   8.561 -0.2426 -1.0907  1.8007
   95SAPS  H19S 9422   5.612   4.644   8.547 -0.4312 -0.9446  0.0179
   95SAPS  C220 9423   5.422   4.532   8.530  1.1038  0.0324  0.1083
   95SAPS  H20R 9424   5.472   4.447   8.479  4.0762  2.1034 -0.6889
   95SAPS  H20S 9425   5.321   4.565   8.497  1.2304 -1.0508 -1.4701
   95SAPS  H20T 9426   5.420   4.505   8.638  1.1259 -2.5155 -0.4799
   95SAPS   C33 9427   4.695   5.153   7.071  0.5105 -0.1152  0.3439
   95SAPS   H3X 9428   4.601   5.208   7.052  0.3839 -0.0616  1.0964
   95SAPS   H3Y 9429   4.778   5.227   7.066  0.9312 -0.6256 -0.6733
   95SAPS   C34 9430   4.691   5.084   7.207 -1.2750 -0.8797 -0.6001
   95SAPS   H4X 9431   4.787   5.029   7.218 -0.7499  0.1010 -0.0154
   95SAPS   H4Y 9432   4.599   5.026   7.227 -1.0891 -0.5095  1.5803
   95SAPS   C35 9433   4.700   5.178   7.324  0.1896  0.1566 -0.6663
   95SAPS   H5X 9434   4.616   5.250   7.319 -0.5302 -0.6478 -0.3613
   95SAPS   H5Y 9435   4.793   5.238   7.334 -0.0104  0.7554 -2.0333
   95SAPS   C36 9436   4.709   5.095   7.458 -0.3334 -0.2601 -0.6309
   95SAPS   H6X 9437   4.812   5.055   7.470 -0.6682 -0.5858  1.4177
   95SAPS   H6Y 9438   4.629   5.020   7.469  1.1655 -2.1464 -1.9605
   95SAPS   C37 9439   4.695   5.198   7.576  0.2685 -0.3644 -0.6571
   95SAPS   H7X 9440   4.601   5.256   7.565 -0.1421 -0.7005  0.8754
   95SAPS   H7Y 9441   4.779   5.270   7.567 -0.5558  0.8905  1.1100
   95SAPS   C38 9442   4.697   5.122   7.711 -1.1699  0.0988 -0.2753
   95SAPS   H8X 9443   4.807   5.125   7.729 -1.0642  0.8264 -0.9373
   95SAPS   H8Y 9444   4.665   5.017   7.694  2.0268 -1.0388 -0.0797
   95SAPS   C39 9445   4.617   5.189   7.824 -0.7376  0.0062  0.4964
   95SAPS   H9X 9446   4.508   5.167   7.815 -1.0320  0.8286  1.7879
   95SAPS   H9Y 9447   4.636   5.298   7.835  2.4892 -0.5875  1.9773
   95SAPS  C310 9448   4.673   5.144   7.959 -0.2431 -0.3151 -0.4668
   95SAPS  H10X 9449   4.783   5.126   7.953 -0.3299 -0.7210 -0.8917
   95SAPS  H10Y 9450   4.636   5.045   7.992  0.5111 -0.7964 -1.0180
   95SAPS  C311 9451   4.655   5.248   8.078 -0.7733 -0.3293  0.7384
   95SAPS  H11X 9452   4.553   5.291   8.092 -1.2773 -1.1168 -0.3405
   95SAPS  H11Y 9453   4.732   5.327   8.062 -0.3455 -1.2346 -2.3208
   95SAPS  C312 9454   4.703   5.186   8.214 -0.9091  0.1497  0.5242
   95SAPS  H12X 9455   4.811   5.157   8.210 -0.5476  1.4954 -1.8244
   95SAPS  H12Y 9456   4.644   5.092   8.226 -1.5598  0.1661 -1.9165
   95SAPS  C313 9457   4.685   5.284   8.330 -0.3476  0.0210  0.4994
   95SAPS  H13X 9458   4.719   5.238   8.424 -0.1516 -1.5283 -0.2978
   95SAPS  H13Y 9459   4.577   5.309   8.343 -0.1648  0.0687  2.0875
   95SAPS  C314 9460   4.774   5.410   8.315 -0.4083  0.4158  0.8009
   95SAPS  H14X 9461   4.709   5.490   8.275 -0.3170  0.0808 -0.0405
   95SAPS  H14Y 9462   4.842   5.393   8.228 -2.5486 -0.9140 -0.7181
   95SAPS  C315 9463   4.836   5.452   8.447 -0.1967  0.3444 -0.1443
   95SAPS  H15X 9464   4.895   5.363   8.476 -1.7952 -0.1178  1.9210
   95SAPS  H15Y 9465   4.753   5.459   8.521  0.0850 -2.9440  0.6159
   95SAPS  C316 9466   4.914   5.588   8.442  0.8706 -0.2331 -0.1907
   95SAPS  H16X 9467   4.845   5.665   8.402  0.7965 -0.7426 -1.0838
   95SAPS  H16Y 9468   5.004   5.575   8.377  0.0909 -0.3304 -1.2679
   95SAPS  C317 9469   4.964   5.637   8.581 -0.0361 -0.3564 -0.1569
   95SAPS  H17X 9470   5.034   5.557   8.614  1.2418  0.1411 -1.5313
   95SAPS  H17Y 9471   4.874   5.646   8.646 -0.7240 -1.2840 -0.9507
   95SAPS  C318 9472   5.042   5.769   8.573  0.2887 -0.4118  0.4772
   95SAPS  H18X 9473   5.121   5.771   8.651  1.0707  0.9916 -0.2973
   95SAPS  H18Y 9474   4.962   5.845   8.586 -0.6670 -0.9242 -1.8161
   95SAPS  H18Z 9475   5.104   5.786   8.482  0.4020 -0.0141  0.6249
   96SAPS     N 9476   5.186   5.751   6.292  0.2830 -0.4917  0.3505
   96SAPS   HN1 9477   5.083   5.742   6.297  0.2117  0.3873  0.5495
   96SAPS   HN2 9478   5.239   5.680   6.238 -1.0120 -1.3093  0.1173
   96SAPS   HN3 9479   5.223   5.767   6.388 -0.9215  0.2311  0.7149
   96SAPS   C12 9480   5.206   5.884   6.215  0.2385 -0.5427 -0.2010
   96SAPS  H12A 9481   5.240   5.964   6.279  0.6821 -0.3664 -0.6451
   96SAPS   C13 9482   5.309   5.874   6.105 -0.6700 -0.0594  0.2882
   96SAPS  O13A 9483   5.348   5.757   6.070 -0.1534  0.2020 -0.2348
   96SAPS  O13B 9484   5.343   5.975   6.032  0.4423  0.0789  0.6181
   96SAPS   C11 9485   5.068   5.930   6.161  0.3365 -0.1781  0.7803
   96SAPS  H11A 9486   5.033   5.845   6.100 -0.5349  1.9835 -1.9075
   96SAPS  H11B 9487   5.088   6.010   6.087  2.8655 -1.4981 -0.0734
   96SAPS     P 9488   4.965   6.122   6.309 -0.1732 -0.2519 -0.0654
   96SAPS   O13 9489   5.019   6.222   6.214  0.7794  0.3904  0.0763
   96SAPS   O14 9490   4.828   6.155   6.355 -0.6196  0.4724 -0.5692
   96SAPS   O12 9491   4.975   5.972   6.258  0.1623 -0.5994  0.1986
   96SAPS   O11 9492   5.067   6.114   6.431 -0.4014 -0.0038 -0.4292
   96SAPS    C1 9493   5.050   6.040   6.543 -1.1476 -0.6514 -0.2731
   96SAPS    HA 9494   4.947   6.005   6.564 -0.9223 -0.3016  1.5500
   96SAPS    HB 9495   5.104   5.943   6.538 -0.1163 -0.0587 -1.0311
   96SAPS    C2 9496   5.088   6.114   6.665 -0.2112 -0.2679 -0.0867
   96SAPS    HS 9497   5.053   6.056   6.752  2.3218 -0.9798  0.5524
   96SAPS   O21 9498   5.045   6.253   6.659  0.2744 -0.6686  0.5979
   96SAPS   C21 9499   4.937   6.283   6.716 -0.4974 -0.2639  0.3822
   96SAPS   O22 9500   4.849   6.203   6.743 -0.5997  0.2577 -0.0646
   96SAPS   C22 9501   4.928   6.429   6.750  0.0857 -0.3205 -0.3450
   96SAPS   H2R 9502   5.031   6.465   6.730  0.7271 -1.8893 -0.0592
   96SAPS   H2S 9503   4.858   6.480   6.681 -1.3767 -2.1081 -0.2737
   96SAPS    C3 9504   5.250   6.101   6.687 -0.2217  0.2430 -0.5551
   96SAPS    HX 9505   5.294   6.137   6.591  1.9825 -1.1498 -0.1372
   96SAPS    HY 9506   5.276   5.994   6.700 -0.5256  0.4232  2.1666
   96SAPS   O31 9507   5.307   6.168   6.799  0.6737 -0.0667 -0.0842
   96SAPS   C31 9508   5.284   6.121   6.924 -0.2666  0.5132  0.2237
   96SAPS   O32 9509   5.227   6.023   6.951  0.4619 -0.0429  0.3016
   96SAPS   C32 9510   5.352   6.207   7.035  0.5589  0.4064 -0.4917
   96SAPS   H2X 9511   5.287   6.296   7.052 -0.1756 -0.3736  0.9293
   96SAPS   H2Y 9512   5.452   6.231   6.992  1.1055 -1.9005 -0.6052
   96SAPS   C23 9513   4.892   6.464   6.897  0.3742 -0.3118  1.0376
   96SAPS   H3R 9514   4.796   6.414   6.925  0.6128 -0.6174  1.3203
   96SAPS   H3S 9515   4.871   6.573   6.898 -0.0897 -0.3963  0.9325
   96SAPS   C24 9516   5.012   6.431   6.991 -0.7332 -0.5923  0.6155
   96SAPS   H4R 9517   5.101   6.435   6.923 -1.6119  0.3712 -0.5188
   96SAPS   H4S 9518   5.002   6.324   7.019 -1.4213 -1.2047 -1.6920
   96SAPS   C25 9519   5.022   6.532   7.105  0.1981 -0.2446  0.4082
   96SAPS   H5R 9520   5.017   6.634   7.065 -0.0058 -0.6637 -0.6743
   96SAPS   C26 9521   5.033   6.500   7.241  0.5915 -0.1009  0.5646
   96SAPS   H6R 9522   5.040   6.579   7.317  2.0614 -2.1216  2.6648
   96SAPS   C27 9523   5.030   6.364   7.306  0.5018  0.6862 -0.5114
   96SAPS   H7R 9524   5.135   6.331   7.316  0.3404  0.2344 -0.2447
   96SAPS   H7S 9525   4.983   6.289   7.238 -2.9650  0.3347  1.9834
   96SAPS   C28 9526   4.963   6.359   7.441 -0.6134  0.4290  0.2330
   96SAPS   H8R 9527   4.871   6.419   7.440 -0.5156  0.6135  1.0257
   96SAPS   C29 9528   4.997   6.294   7.554 -0.7543 -0.6221 -0.7644
   96SAPS   H9R 9529   4.943   6.310   7.649  1.0126 -0.7993  0.3129
   96SAPS  C210 9530   5.126   6.213   7.572  0.1737  0.1861 -0.2728
   96SAPS  H10R 9531   5.202   6.292   7.554  0.5969 -0.6058 -2.2342
   96SAPS  H10S 9532   5.142   6.149   7.482  1.7486  2.3819 -1.6380
   96SAPS  C211 9533   5.141   6.133   7.698  1.1770 -0.9835  0.2010
   96SAPS  H11R 9534   5.127   6.025   7.680  0.2265 -0.9746  0.8197
   96SAPS  C212 9535   5.174   6.178   7.822 -0.2418  0.0682 -0.3123
   96SAPS  H12R 9536   5.197   6.097   7.893  0.9450  1.5367  1.0615
   96SAPS  C213 9537   5.221   6.312   7.864 -0.3378 -0.3194  0.5796
   96SAPS  H13R 9538   5.318   6.325   7.812  0.0312 -3.8819  0.1314
   96SAPS  H13S 9539   5.265   6.319   7.966  0.2456  1.2085  0.2360
   96SAPS  C214 9540   5.121   6.423   7.849 -0.7959  0.5136 -0.1037
   96SAPS  H14R 9541   5.142   6.473   7.753 -0.3022 -2.0379 -1.4493
   96SAPS  C215 9542   5.033   6.463   7.944  0.0955 -0.3591 -0.0032
   96SAPS  H15R 9543   4.977   6.557   7.931  1.2259  0.2969 -0.2994
   96SAPS  C216 9544   5.019   6.404   8.082 -0.1266 -0.0949 -0.4403
   96SAPS  H16R 9545   5.073   6.309   8.099  0.5657  0.3183 -0.2733
   96SAPS  H16S 9546   4.909   6.392   8.097 -0.4843 -1.1421 -3.3305
   96SAPS  C217 9547   5.056   6.496   8.195  0.0227 -0.7114 -0.1916
   96SAPS  H17R 9548   5.013   6.597   8.176  2.0630  0.2443  0.0408
   96SAPS  H17S 9549   5.163   6.527   8.198  0.7485 -3.1376  2.1240
   96SAPS  C218 9550   5.003   6.445   8.331 -0.3537 -0.0876  0.1173
   96SAPS  H18R 9551   5.027   6.339   8.356 -0.6499 -0.5161 -1.2883
   96SAPS  H18S 9552   4.893   6.462   8.330 -0.1095  1.5723 -0.3554
   96SAPS  C219 9553   5.053   6.536   8.449  0.1419  0.0071 -0.0089
   96SAPS  H19R 9554   5.075   6.636   8.408  2.1992 -0.5327 -0.3282
   96SAPS  H19S 9555   5.142   6.485   8.491 -0.2989 -0.7658  0.0076
   96SAPS  C220 9556   4.945   6.549   8.560  0.1508 -0.5026 -0.1596
   96SAPS  H20R 9557   4.973   6.615   8.645  0.3895 -0.5707 -0.1839
   96SAPS  H20S 9558   4.930   6.446   8.599 -2.8244 -1.6130 -3.6718
   96SAPS  H20T 9559   4.847   6.582   8.520  0.8036  1.9913  0.1577
   96SAPS   C33 9560   5.363   6.121   7.167  0.1479  0.2764 -0.2513
   96SAPS   H3X 9561   5.425   6.032   7.143  1.3272  0.4143  1.9689
   96SAPS   H3Y 9562   5.264   6.087   7.203  0.7386  0.5548  1.7559
   96SAPS   C34 9563   5.429   6.198   7.281 -0.2093 -0.1641 -0.4228
   96SAPS   H4X 9564   5.371   6.286   7.316  1.2565  0.0014  1.8312
   96SAPS   H4Y 9565   5.526   6.237   7.244  0.6513 -1.4844  0.3113
   96SAPS   C35 9566   5.465   6.112   7.398  0.1041  1.1207  0.4804
   96SAPS   H5X 9567   5.532   6.034   7.356 -0.8005  2.5303 -4.2990
   96SAPS   H5Y 9568   5.370   6.067   7.434  0.3619  0.7636  0.7052
   96SAPS   C36 9569   5.527   6.194   7.505 -0.6481 -0.1758  0.2893
   96SAPS   H6X 9570   5.459   6.280   7.520 -1.2819 -0.2665 -1.7826
   96SAPS   H6Y 9571   5.626   6.234   7.478 -0.9757 -0.9325 -2.3108
   96SAPS   C37 9572   5.536   6.105   7.637  0.4962  0.6110  0.3168
   96SAPS   H7X 9573   5.599   6.014   7.631 -0.4299 -0.0946  0.9024
   96SAPS   H7Y 9574   5.436   6.059   7.652 -0.0720  1.1129 -1.6329
   96SAPS   C38 9575   5.573   6.180   7.768 -0.2336 -0.3407  0.6919
   96SAPS   H8X 9576   5.510   6.270   7.784 -1.1113 -1.1358  2.0118
   96SAPS   H8Y 9577   5.674   6.223   7.751 -0.0124 -1.2857 -0.5393
   96SAPS   C39 9578   5.556   6.100   7.902 -0.4179  0.0141  0.9462
   96SAPS   H9X 9579   5.598   5.997   7.890  0.9456  0.6238  0.2530
   96SAPS   H9Y 9580   5.457   6.105   7.953 -0.9819 -1.8140  0.1378
   96SAPS  C310 9581   5.651   6.163   8.008 -0.2684 -0.0026  0.6734
   96SAPS  H10X 9582   5.618   6.269   8.008 -1.2868 -0.2953  1.5795
   96SAPS  H10Y 9583   5.751   6.168   7.961 -0.5556  2.3867  0.1707
   96SAPS  C311 9584   5.633   6.098   8.147  0.1605  0.0747  0.2542
   96SAPS  H11X 9585   5.640   5.987   8.135 -1.5750 -0.2628  1.8122
   96SAPS  H11Y 9586   5.530   6.128   8.174 -0.8916 -0.5859 -2.6758
   96SAPS  C312 9587   5.732   6.147   8.253 -0.5401 -0.8425 -0.2803
   96SAPS  H12X 9588   5.725   6.258   8.254 -1.7135 -0.9079  0.3329
   96SAPS  H12Y 9589   5.837   6.121   8.227  0.1437  1.4939 -0.1117
   96SAPS  C313 9590   5.684   6.113   8.395 -0.3317 -0.6247  0.1398
   96SAPS  H13X 9591   5.671   6.003   8.395  1.5030 -0.8577  0.1947
   96SAPS  H13Y 9592   5.584   6.161   8.408  0.1313  0.4586 -0.1300
   96SAPS  C314 9593   5.789   6.156   8.497 -0.2037 -0.1454 -0.4261
   96SAPS  H14X 9594   5.803   6.265   8.481 -1.6984  0.4435  1.7249
   96SAPS  H14Y 9595   5.884   6.108   8.466  0.2453  1.1539 -1.1288
   96SAPS  C315 9596   5.757   6.140   8.647  0.0699 -0.0163 -0.2358
   96SAPS  H15X 9597   5.770   6.039   8.691 -2.7162  0.2219  1.3641
   96SAPS  H15Y 9598   5.650   6.163   8.662  0.1912 -1.1569  3.5044
   96SAPS  C316 9599   5.830   6.247   8.725  0.2258 -0.6325  0.5023
   96SAPS  H16X 9600   5.825   6.339   8.662  0.9372 -0.9816 -0.0663
   96SAPS  H16Y 9601   5.938   6.223   8.727  1.0140  2.0216 -2.1078
   96SAPS  C317 9602   5.759   6.286   8.856  0.8572  0.2956 -0.2204
   96SAPS  H17X 9603   5.737   6.189   8.906  0.4119 -0.7483 -2.3218
   96SAPS  H17Y 9604   5.661   6.337   8.844 -0.5262 -1.7826  1.4706
   96SAPS  C318 9605   5.843   6.368   8.950 -0.5103 -0.2900 -0.3639
   96SAPS  H18X 9606   5.803   6.357   9.053  1.4404  0.1664  0.5063
   96SAPS  H18Y 9607   5.841   6.476   8.927 -1.0064 -0.0400  0.8040
   96SAPS  H18Z 9608   5.944   6.321   8.947 -1.5002 -2.5635 -3.5141
   97SAPS     N 9609   5.918   3.443   6.278 -0.3473  0.4648 -0.4831
   97SAPS   HN1 9610   5.827   3.480   6.311 -0.3852 -0.4197  0.4611
   97SAPS   HN2 9611   5.883   3.348   6.253  0.1013  0.1724 -0.0344
   97SAPS   HN3 9612   5.990   3.438   6.353 -0.3372 -0.8638 -0.5477
   97SAPS   C12 9613   5.976   3.521   6.170  0.3727  0.2701  0.1843
   97SAPS  H12A 9614   6.062   3.458   6.150  0.6984  0.5994  0.5201
   97SAPS   C13 9615   5.885   3.538   6.047  0.1758  0.0115  0.0376
   97SAPS  O13A 9616   5.762   3.521   6.070 -0.3005  0.0943  0.2372
   97SAPS  O13B 9617   5.923   3.608   5.953 -0.6846  0.1732 -0.3033
   97SAPS   C11 9618   6.022   3.655   6.234  0.3465 -1.2246  0.0866
   97SAPS  H11A 9619   5.926   3.693   6.278 -0.4470  0.6294 -2.9142
   97SAPS  H11B 9620   6.044   3.738   6.163 -0.6128  1.7216  2.9318
   97SAPS     P 9621   6.133   3.736   6.454 -0.3052 -0.2025 -0.1014
   97SAPS   O13 9622   6.254   3.689   6.525 -0.0760  0.3457  0.1951
   97SAPS   O14 9623   6.133   3.883   6.425  0.2146 -0.2745  0.3154
   97SAPS   O12 9624   6.118   3.640   6.328 -0.2022 -0.1919 -0.6511
   97SAPS   O11 9625   5.999   3.707   6.541 -0.1881 -0.3332 -0.1942
   97SAPS    C1 9626   5.993   3.585   6.615 -0.1603 -0.4854 -0.0301
   97SAPS    HA 9627   5.891   3.541   6.608 -0.1581 -0.2178 -3.7123
   97SAPS    HB 9628   6.065   3.510   6.578  0.8695  0.3769  0.1751
   97SAPS    C2 9629   6.020   3.621   6.761  1.1209 -0.5038 -0.6146
   97SAPS    HS 9630   6.130   3.628   6.779  1.1347 -1.3648 -0.3040
   97SAPS   O21 9631   5.968   3.517   6.840  0.3506 -0.0843  0.6462
   97SAPS   C21 9632   6.016   3.499   6.961 -0.1234 -0.1396 -0.0078
   97SAPS   O22 9633   6.121   3.548   6.999  0.2180 -0.3351 -0.2019
   97SAPS   C22 9634   5.920   3.422   7.051  1.0050  0.2457 -0.0991
   97SAPS   H2R 9635   5.820   3.468   7.038  0.3683 -0.6106  1.5608
   97SAPS   H2S 9636   5.906   3.318   7.015 -1.1965  0.2694  0.5493
   97SAPS    C3 9637   5.946   3.750   6.802 -0.4297 -0.3305  0.6437
   97SAPS    HX 9638   5.841   3.725   6.777  0.5289 -1.4031 -2.9002
   97SAPS    HY 9639   5.975   3.838   6.741 -4.0190  0.7690  0.2693
   97SAPS   O31 9640   5.955   3.779   6.942 -0.1634  0.4358 -0.2047
   97SAPS   C31 9641   6.058   3.853   6.982 -0.0938  0.7118 -0.0628
   97SAPS   O32 9642   6.140   3.899   6.912 -0.4642  0.0513  0.1942
   97SAPS   C32 9643   6.072   3.868   7.133 -0.2396 -0.3361 -0.4068
   97SAPS   H2X 9644   6.055   3.771   7.184  4.0452 -0.7286  0.7052
   97SAPS   H2Y 9645   6.001   3.947   7.163 -1.9134 -2.4800  1.6231
   97SAPS   C23 9646   5.954   3.416   7.200 -0.0372  0.2572 -0.5041
   97SAPS   H3R 9647   5.984   3.512   7.247  1.4966 -0.4218 -0.0156
   97SAPS   H3S 9648   6.042   3.348   7.210  0.3341  0.6225 -1.2177
   97SAPS   C24 9649   5.842   3.360   7.288 -0.4668 -0.3945  0.0581
   97SAPS   H4R 9650   5.743   3.401   7.258 -1.5051 -1.4210  1.9232
   97SAPS   H4S 9651   5.859   3.399   7.390 -1.7776 -3.5909  1.6351
   97SAPS   C25 9652   5.837   3.208   7.294  0.2377  0.3520  0.1613
   97SAPS   H5R 9653   5.881   3.161   7.205  1.7389 -0.3204  1.2018
   97SAPS   C26 9654   5.771   3.137   7.388 -0.2938  0.1382 -0.8623
   97SAPS   H6R 9655   5.774   3.027   7.393 -1.8293  0.1069 -0.2168
   97SAPS   C27 9656   5.699   3.190   7.508  0.1779 -0.4570  0.1545
   97SAPS   H7R 9657   5.604   3.133   7.516 -0.0570 -0.2891 -1.2618
   97SAPS   H7S 9658   5.674   3.297   7.490 -0.2819 -0.9750 -2.6673
   97SAPS   C28 9659   5.765   3.165   7.641  0.6858  0.1175 -0.2738
   97SAPS   H8R 9660   5.862   3.114   7.631 -0.0189 -1.3841  0.2622
   97SAPS   C29 9661   5.703   3.170   7.766 -0.1639 -0.5875 -0.0668
   97SAPS   H9R 9662   5.763   3.132   7.850  2.6940 -0.4491 -1.8687
   97SAPS  C210 9663   5.568   3.227   7.806 -0.4010  0.0258  0.5959
   97SAPS  H10R 9664   5.503   3.213   7.716 -0.1644  0.6006  0.3344
   97SAPS  H10S 9665   5.581   3.337   7.815  0.3933 -0.0110 -0.0141
   97SAPS  C211 9666   5.496   3.165   7.927 -0.4906 -0.0885  0.5032
   97SAPS  H11R 9667   5.434   3.076   7.914  0.2931 -0.7211  1.0018
   97SAPS  C212 9668   5.493   3.221   8.053  0.0213  0.1017  0.0338
   97SAPS  H12R 9669   5.437   3.173   8.134 -3.6292  3.1086 -0.3970
   97SAPS  C213 9670   5.552   3.357   8.100  0.2883 -0.3965  0.8591
   97SAPS  H13R 9671   5.637   3.379   8.032  0.7011 -0.9798  1.1725
   97SAPS  H13S 9672   5.597   3.358   8.201  0.8466  1.5412  0.6312
   97SAPS  C214 9673   5.451   3.471   8.088 -0.3652  0.0810 -0.5480
   97SAPS  H14R 9674   5.411   3.495   7.988  0.9757 -1.1785 -1.4232
   97SAPS  C215 9675   5.400   3.541   8.188  0.1976  0.2481 -0.7575
   97SAPS  H15R 9676   5.332   3.626   8.173 -0.8432  0.0654  2.2144
   97SAPS  C216 9677   5.431   3.517   8.337  0.2441  1.1154  0.4958
   97SAPS  H16R 9678   5.437   3.408   8.357  2.1890  1.1565  0.2701
   97SAPS  H16S 9679   5.344   3.534   8.403 -1.3143 -2.3845 -0.4004
   97SAPS  C217 9680   5.556   3.579   8.395 -0.6992  0.1644 -0.1753
   97SAPS  H17R 9681   5.645   3.583   8.329 -0.5361 -0.4038  0.0077
   97SAPS  H17S 9682   5.585   3.510   8.477  0.5184 -0.8399 -1.4028
   97SAPS  C218 9683   5.530   3.729   8.432  0.6981 -0.4856 -0.2435
   97SAPS  H18R 9684   5.438   3.730   8.494 -0.3096  0.4411 -1.6966
   97SAPS  H18S 9685   5.514   3.781   8.336  1.8606 -0.6314 -0.5367
   97SAPS  C219 9686   5.647   3.800   8.502  0.3756 -0.5016  0.3657
   97SAPS  H19R 9687   5.657   3.903   8.463  4.1285 -0.6500  0.5645
   97SAPS  H19S 9688   5.733   3.743   8.460 -0.6305 -1.1515 -0.8827
   97SAPS  C220 9689   5.651   3.803   8.653  0.7221 -0.0172  0.5888
   97SAPS  H20R 9690   5.574   3.874   8.688 -0.0839 -0.0073 -1.1088
   97SAPS  H20S 9691   5.746   3.845   8.691  1.2595 -0.0088 -0.7224
   97SAPS  H20T 9692   5.628   3.699   8.688 -0.7410  0.2413  0.4667
   97SAPS   C33 9693   6.215   3.926   7.169 -0.3060 -0.6087  0.1457
   97SAPS   H3X 9694   6.225   4.020   7.110 -0.0474  1.2922  2.9863
   97SAPS   H3Y 9695   6.299   3.856   7.149  0.9941  0.8217  0.3514
   97SAPS   C34 9696   6.238   3.959   7.321  0.3655  0.4108 -1.0429
   97SAPS   H4X 9697   6.172   4.044   7.348  2.0671  2.2861 -2.5485
   97SAPS   H4Y 9698   6.343   3.991   7.336 -0.6485  3.6554 -0.0925
   97SAPS   C35 9699   6.218   3.837   7.419  0.1793  0.3690 -0.1913
   97SAPS   H5X 9700   6.288   3.754   7.395 -0.6589 -0.0340 -1.3140
   97SAPS   H5Y 9701   6.116   3.795   7.409  1.2156 -2.6607  0.8659
   97SAPS   C36 9702   6.240   3.866   7.562 -0.3345 -0.5649  1.1775
   97SAPS   H6X 9703   6.153   3.924   7.600 -0.4624  0.9577 -1.2677
   97SAPS   H6Y 9704   6.338   3.917   7.570  0.1163 -1.3440  0.7400
   97SAPS   C37 9705   6.260   3.740   7.653  0.3270 -0.7701  0.6785
   97SAPS   H7X 9706   6.366   3.710   7.643  0.1117 -2.4764  2.7777
   97SAPS   H7Y 9707   6.184   3.668   7.616 -0.9816  0.9291 -0.0702
   97SAPS   C38 9708   6.234   3.774   7.804 -0.2736  0.7155 -0.6519
   97SAPS   H8X 9709   6.272   3.686   7.860 -1.6820 -1.2806 -2.6278
   97SAPS   H8Y 9710   6.126   3.770   7.830 -0.2038 -0.5997 -0.4742
   97SAPS   C39 9711   6.302   3.903   7.838 -0.1090 -0.7336 -0.2155
   97SAPS   H9X 9712   6.225   3.980   7.819 -0.1741 -0.7993 -0.2144
   97SAPS   H9Y 9713   6.400   3.918   7.786  0.2237  0.1796  0.6365
   97SAPS  C310 9714   6.327   3.916   7.989  0.5560  0.2333 -0.1720
   97SAPS  H10X 9715   6.411   3.848   8.015  1.0980  1.4852  1.5486
   97SAPS  H10Y 9716   6.228   3.896   8.036  0.4070  2.9379  0.8556
   97SAPS  C311 9717   6.374   4.057   8.032 -0.0081 -0.1971  0.0141
   97SAPS  H11X 9718   6.281   4.115   8.048  1.3493  2.4488 -0.9012
   97SAPS  H11Y 9719   6.438   4.098   7.951  1.1011 -0.2734  0.8170
   97SAPS  C312 9720   6.459   4.043   8.161 -0.2086 -0.3106  0.1068
   97SAPS  H12X 9721   6.507   4.144   8.159  0.0317 -0.4096 -2.4138
   97SAPS  H12Y 9722   6.546   3.974   8.153  0.5195  0.5650  0.2924
   97SAPS  C313 9723   6.390   4.021   8.303 -0.5520 -0.4471  0.5551
   97SAPS  H13X 9724   6.368   3.912   8.312 -1.2450 -0.5304 -1.4869
   97SAPS  H13Y 9725   6.299   4.085   8.303  0.4344  1.0289  2.1025
   97SAPS  C314 9726   6.474   4.063   8.426 -0.3727  0.4567  0.4213
   97SAPS  H14X 9727   6.417   4.050   8.521 -1.1544 -1.2968 -0.2448
   97SAPS  H14Y 9728   6.487   4.173   8.413 -2.8383  0.9664  1.6392
   97SAPS  C315 9729   6.618   4.008   8.446 -0.4076 -0.0651  0.1264
   97SAPS  H15X 9730   6.690   4.044   8.369 -0.5141 -1.5491 -0.7046
   97SAPS  H15Y 9731   6.620   3.898   8.439  0.3778 -0.1098  0.9457
   97SAPS  C316 9732   6.674   4.032   8.590 -0.3574 -0.4863  0.3333
   97SAPS  H16X 9733   6.699   4.139   8.604  0.6980 -0.8625  1.5528
   97SAPS  H16Y 9734   6.766   3.972   8.574 -0.7243 -1.2020  0.8322
   97SAPS  C317 9735   6.591   3.951   8.693 -0.8212  0.3729  1.2920
   97SAPS  H17X 9736   6.519   3.900   8.625 -1.8453  2.6772  0.5398
   97SAPS  H17Y 9737   6.529   4.009   8.765  1.5410  1.7825  2.3432
   97SAPS  C318 9738   6.672   3.848   8.779  0.5280 -0.5930 -0.2490
   97SAPS  H18X 9739   6.771   3.885   8.812  0.1288 -0.9291  1.4518
   97SAPS  H18Y 9740   6.688   3.760   8.713  0.4661 -0.8364  0.0604
   97SAPS  H18Z 9741   6.619   3.814   8.871 -1.5486  0.5794 -0.9312
   98SAPS     N 9742   3.254   5.373   6.083 -0.2965 -0.2411 -0.7395
   98SAPS   HN1 9743   3.152   5.367   6.102 -0.0797  1.8297  1.7177
   98SAPS   HN2 9744   3.292   5.449   6.144 -1.3479  0.2459 -0.6618
   98SAPS   HN3 9745   3.275   5.399   5.985  2.0902  1.1875  0.0465
   98SAPS   C12 9746   3.323   5.244   6.127 -0.3775 -0.1986  0.3576
   98SAPS  H12A 9747   3.317   5.229   6.234 -1.7937  1.1835  0.5159
   98SAPS   C13 9748   3.265   5.116   6.063  0.1415 -0.5365  0.2622
   98SAPS  O13A 9749   3.163   5.120   5.989  0.2738  0.5492  0.2876
   98SAPS  O13B 9750   3.316   5.009   6.094  0.7890  0.2828  0.2233
   98SAPS   C11 9751   3.470   5.255   6.083 -0.1734  0.5886  0.2346
   98SAPS  H11A 9752   3.473   5.258   5.972  0.2487  1.8964  0.2634
   98SAPS  H11B 9753   3.513   5.159   6.120 -0.9493 -0.5870 -1.8020
   98SAPS     P 9754   3.692   5.388   6.119 -0.2575  0.3577 -0.2028
   98SAPS   O13 9755   3.767   5.260   6.143  0.6664 -0.1815  0.2567
   98SAPS   O14 9756   3.714   5.437   5.980  0.4745 -0.1031  0.1718
   98SAPS   O12 9757   3.541   5.361   6.145 -0.2087  0.7127 -0.5367
   98SAPS   O11 9758   3.746   5.492   6.217  0.4177 -0.4314  0.9118
   98SAPS    C1 9759   3.669   5.518   6.335 -0.3924  0.3993 -0.5268
   98SAPS    HA 9760   3.687   5.622   6.371 -1.0978  0.5580 -0.6191
   98SAPS    HB 9761   3.560   5.530   6.317 -0.0936  1.6166 -1.7090
   98SAPS    C2 9762   3.701   5.442   6.470  0.3764  0.9471 -0.0302
   98SAPS    HS 9763   3.626   5.474   6.545 -0.0056 -2.8629  1.4428
   98SAPS   O21 9764   3.841   5.454   6.516 -0.2223 -0.7427  0.4835
   98SAPS   C21 9765   3.875   5.583   6.549 -0.2499  0.5016  0.0630
   98SAPS   O22 9766   3.797   5.674   6.543 -0.1986 -0.1813 -0.1280
   98SAPS   C22 9767   4.013   5.584   6.611 -0.5909  0.2075  0.3066
   98SAPS   H2R 9768   4.088   5.533   6.547  0.2646  1.8290 -0.0381
   98SAPS   H2S 9769   4.050   5.688   6.622  0.1235  0.3478 -2.5613
   98SAPS    C3 9770   3.666   5.288   6.457 -0.5847 -0.2315 -0.0327
   98SAPS    HX 9771   3.747   5.242   6.397  1.1215  2.4044  0.0926
   98SAPS    HY 9772   3.583   5.270   6.386 -1.1192 -2.2729  1.0552
   98SAPS   O31 9773   3.630   5.245   6.591 -0.4694  0.1626  0.0981
   98SAPS   C31 9774   3.730   5.187   6.656 -0.1375  0.1567 -0.5243
   98SAPS   O32 9775   3.835   5.150   6.609 -0.1067 -0.2210  0.1702
   98SAPS   C32 9776   3.695   5.185   6.805  0.6043 -0.5679  0.8680
   98SAPS   H2X 9777   3.599   5.129   6.814  0.2928 -0.2649 -0.3953
   98SAPS   H2Y 9778   3.663   5.290   6.822  2.0344  0.1805 -0.7470
   98SAPS   C23 9779   4.018   5.531   6.756  0.3221  0.4847  1.5470
   98SAPS   H3R 9780   4.122   5.498   6.778  0.5627  0.4307  0.4086
   98SAPS   H3S 9781   3.967   5.433   6.771 -0.6652  0.7635  0.2375
   98SAPS   C24 9782   3.990   5.630   6.864 -0.6201 -0.3941 -0.1374
   98SAPS   H4R 9783   4.047   5.725   6.853 -2.0394  0.1786 -3.7948
   98SAPS   H4S 9784   4.017   5.583   6.961  0.7587 -2.2483 -1.3473
   98SAPS   C25 9785   3.848   5.668   6.856 -0.2451  0.6074 -0.2191
   98SAPS   H5R 9786   3.824   5.752   6.790 -1.1138 -0.1646 -0.9136
   98SAPS   C26 9787   3.749   5.611   6.918  1.1231  0.0792 -0.7006
   98SAPS   H6R 9788   3.649   5.656   6.904 -0.4357 -2.7833  0.3100
   98SAPS   C27 9789   3.755   5.489   7.007  0.0461  0.6995 -0.0504
   98SAPS   H7R 9790   3.847   5.429   6.985  0.7979  1.8108 -0.0087
   98SAPS   H7S 9791   3.665   5.425   6.995  0.5689  0.0004 -0.3549
   98SAPS   C28 9792   3.767   5.529   7.152  0.0986 -0.0895 -0.1472
   98SAPS   H8R 9793   3.704   5.611   7.188 -0.8305 -0.7557 -0.2298
   98SAPS   C29 9794   3.866   5.494   7.232 -0.5404  0.5326 -0.4051
   98SAPS   H9R 9795   3.852   5.538   7.332 -2.1966 -1.0038  0.0791
   98SAPS  C210 9796   3.983   5.404   7.213 -0.7747 -0.4631 -0.0706
   98SAPS  H10R 9797   4.040   5.422   7.307  0.8262 -2.4296 -0.5902
   98SAPS  H10S 9798   4.034   5.428   7.118 -0.6006  0.1213  0.1675
   98SAPS  C211 9799   3.949   5.253   7.210 -0.6530  0.8157 -0.1848
   98SAPS  H11R 9800   3.976   5.201   7.117  4.0975  0.2259  1.2482
   98SAPS  C212 9801   3.895   5.183   7.315  0.1202 -0.1733  0.8386
   98SAPS  H12R 9802   3.850   5.085   7.295  1.0201 -0.6773  1.2543
   98SAPS  C213 9803   3.856   5.232   7.449 -0.3486  0.8623  0.0433
   98SAPS  H13R 9804   3.756   5.188   7.465  0.1593 -0.0501  0.8535
   98SAPS  H13S 9805   3.854   5.343   7.454 -0.8867  0.8874 -0.6988
   98SAPS  C214 9806   3.945   5.177   7.563  0.3505 -0.3876  0.0103
   98SAPS  H14R 9807   3.998   5.084   7.540 -1.2055 -0.7295 -2.5859
   98SAPS  C215 9808   3.962   5.231   7.693  0.0423  0.3223  0.8701
   98SAPS  H15R 9809   4.031   5.177   7.759  2.7089  0.0886 -1.8803
   98SAPS  C216 9810   3.908   5.356   7.755  0.1802 -0.5729  0.0947
   98SAPS  H16R 9811   3.838   5.333   7.838  0.1165  2.0328  0.8292
   98SAPS  H16S 9812   3.845   5.401   7.675  0.3896  1.2557  0.9342
   98SAPS  C217 9813   4.006   5.469   7.801  0.2793  0.2087  0.1170
   98SAPS  H17R 9814   3.961   5.570   7.802  1.0547  0.5747 -0.6986
   98SAPS  H17S 9815   4.088   5.483   7.728  0.6975  1.0809  0.7367
   98SAPS  C218 9816   4.065   5.448   7.938 -0.4089  0.7074 -0.3916
   98SAPS  H18R 9817   4.111   5.547   7.960 -1.9325  1.1660  0.9216
   98SAPS  H18S 9818   4.140   5.367   7.923 -0.1025  0.4456  2.1881
   98SAPS  C219 9819   3.969   5.401   8.046  0.4984  0.0762  0.1100
   98SAPS  H19R 9820   3.937   5.297   8.022  0.8649  0.5912 -2.9704
   98SAPS  H19S 9821   3.877   5.462   8.046  0.4056 -0.0589  0.8855
   98SAPS  C220 9822   4.026   5.397   8.191  0.3845 -0.0460 -0.0751
   98SAPS  H20R 9823   3.953   5.351   8.261 -0.4236 -0.1094 -0.9354
   98SAPS  H20S 9824   4.044   5.504   8.217 -2.8107  0.7968 -0.8224
   98SAPS  H20T 9825   4.122   5.344   8.205  0.1931 -1.0454 -2.1832
   98SAPS   C33 9826   3.813   5.153   6.905 -0.9284  0.2199 -0.2357
   98SAPS   H3X 9827   3.756   5.171   6.998  0.2335 -0.9565  0.7313
   98SAPS   H3Y 9828   3.892   5.228   6.884 -0.3979 -0.1579  0.3636
   98SAPS   C34 9829   3.872   5.011   6.906 -0.1293 -0.3562 -0.1224
   98SAPS   H4X 9830   3.954   4.997   6.980  0.2300  1.3391 -0.1563
   98SAPS   H4Y 9831   3.905   4.990   6.803 -0.4573  0.0499 -0.3134
   98SAPS   C35 9832   3.764   4.908   6.921  0.1260  0.4650  1.0506
   98SAPS   H5X 9833   3.807   4.807   6.901 -2.6971 -0.3709 -1.6824
   98SAPS   H5Y 9834   3.691   4.914   6.837  0.3969 -4.0033  0.2060
   98SAPS   C36 9835   3.668   4.918   7.041  0.1399  0.8984 -0.6125
   98SAPS   H6X 9836   3.571   4.867   7.023 -1.1787  2.2362  2.1204
   98SAPS   H6Y 9837   3.625   5.020   7.056  1.8987  1.5322  0.3888
   98SAPS   C37 9838   3.738   4.861   7.166 -0.2229  0.2255 -0.2722
   98SAPS   H7X 9839   3.836   4.913   7.178 -0.7315  1.0077  0.6157
   98SAPS   H7Y 9840   3.752   4.752   7.153  0.5646  0.2740  0.1163
   98SAPS   C38 9841   3.652   4.879   7.291 -0.1768  0.1388 -0.0530
   98SAPS   H8X 9842   3.581   4.794   7.303  1.1326 -0.9746  0.0895
   98SAPS   H8Y 9843   3.593   4.972   7.294 -1.3200 -0.5604 -0.2151
   98SAPS   C39 9844   3.743   4.860   7.415  0.1500  0.5891 -0.2067
   98SAPS   H9X 9845   3.803   4.952   7.430 -0.3872  0.5514  2.9903
   98SAPS   H9Y 9846   3.818   4.780   7.401 -2.1810 -1.4542 -1.7372
   98SAPS  C310 9847   3.660   4.850   7.550 -0.0408  0.2352  0.0661
   98SAPS  H10X 9848   3.595   4.759   7.547 -0.8787  0.8150  0.1616
   98SAPS  H10Y 9849   3.609   4.943   7.582  1.3413  0.4709  1.6945
   98SAPS  C311 9850   3.747   4.829   7.683 -0.3838 -0.1061  0.6677
   98SAPS  H11X 9851   3.822   4.910   7.672 -0.0869 -0.3320  1.0500
   98SAPS  H11Y 9852   3.801   4.732   7.675  0.9484  0.7437 -2.0306
   98SAPS  C312 9853   3.673   4.848   7.817 -0.1537  0.5485 -0.3561
   98SAPS  H12X 9854   3.606   4.761   7.833  2.7918 -1.7669  0.3094
   98SAPS  H12Y 9855   3.613   4.941   7.808  2.2625  2.3267  0.6540
   98SAPS  C313 9856   3.773   4.854   7.928  0.1399 -0.0127  0.3313
   98SAPS  H13X 9857   3.823   4.953   7.919  0.2111  0.1033  1.7628
   98SAPS  H13Y 9858   3.850   4.774   7.925  0.3848  0.2602 -1.3240
   98SAPS  C314 9859   3.701   4.838   8.064  0.3874 -0.0198 -0.5929
   98SAPS  H14X 9860   3.659   4.735   8.065 -0.5783  0.3577  0.1626
   98SAPS  H14Y 9861   3.614   4.907   8.065 -0.0633 -0.5802 -0.2287
   98SAPS  C315 9862   3.790   4.873   8.184  0.0821 -0.1326 -0.3005
   98SAPS  H15X 9863   3.729   4.884   8.276  0.3466  1.4646 -0.2806
   98SAPS  H15Y 9864   3.852   4.963   8.165  2.3568 -0.6877  3.3761
   98SAPS  C316 9865   3.897   4.768   8.220 -1.0448  0.2715 -0.0599
   98SAPS  H16X 9866   3.955   4.816   8.302 -0.3741 -0.8052  0.1200
   98SAPS  H16Y 9867   3.966   4.762   8.133 -0.7650 -1.7730  0.2524
   98SAPS  C317 9868   3.855   4.629   8.268 -0.0089  0.5912 -0.2155
   98SAPS  H17X 9869   3.791   4.589   8.187  1.3313  0.2654 -1.1402
   98SAPS  H17Y 9870   3.806   4.625   8.368  0.2289 -1.7966 -0.1376
   98SAPS  C318 9871   3.964   4.533   8.266 -0.1420 -0.3974  0.5430
   98SAPS  H18X 9872   3.993   4.516   8.160  0.5413  0.3027  0.6092
   98SAPS  H18Y 9873   3.942   4.445   8.331  1.4527 -1.1696  0.0931
   98SAPS  H18Z 9874   4.050   4.585   8.313  0.2970 -0.1980 -0.4643
   99SAPS     N 9875   4.676   1.081   5.874  0.1044  0.1054  0.2827
   99SAPS   HN1 9876   4.709   1.027   5.791 -1.4391  1.1825 -1.0939
   99SAPS   HN2 9877   4.688   1.016   5.954  0.1614 -0.0886  0.1193
   99SAPS   HN3 9878   4.579   1.097   5.841  0.1255 -0.2641  0.0372
   99SAPS   C12 9879   4.744   1.210   5.883  0.6436  0.5335  0.0977
   99SAPS  H12A 9880   4.851   1.200   5.897  1.0935  0.4573 -2.8256
   99SAPS   C13 9881   4.731   1.306   5.768 -0.1711  0.2844  0.2741
   99SAPS  O13A 9882   4.659   1.278   5.665  0.2943  0.0844  0.2894
   99SAPS  O13B 9883   4.760   1.424   5.790 -0.0528 -0.2975  0.1709
   99SAPS   C11 9884   4.679   1.275   6.006 -0.1387 -0.3254 -0.9515
   99SAPS  H11A 9885   4.584   1.324   5.976  0.1103 -0.3233 -1.7637
   99SAPS  H11B 9886   4.741   1.359   6.044  2.6897 -2.1397 -1.2655
   99SAPS     P 9887   4.556   1.210   6.237  0.4054  0.3247 -0.3536
   99SAPS   O13 9888   4.427   1.250   6.172  0.1628 -0.2419 -0.4641
   99SAPS   O14 9889   4.549   1.090   6.321 -0.5135 -0.2517 -0.2481
   99SAPS   O12 9890   4.668   1.192   6.131 -0.3082  0.6160  0.3424
   99SAPS   O11 9891   4.613   1.331   6.322 -0.5296 -0.3622  0.3936
   99SAPS    C1 9892   4.748   1.319   6.380  0.0555 -0.0820 -0.3802
   99SAPS    HA 9893   4.796   1.220   6.363 -1.8425 -1.3362  1.1873
   99SAPS    HB 9894   4.820   1.392   6.336  0.7602 -0.7389 -0.3383
   99SAPS    C2 9895   4.743   1.337   6.533  0.1431 -0.2142  0.5475
   99SAPS    HS 9896   4.843   1.298   6.562  1.1313  1.5517 -0.3235
   99SAPS   O21 9897   4.639   1.256   6.588  0.3534  0.0290 -0.0713
   99SAPS   C21 9898   4.668   1.125   6.588 -0.5941  0.7619  0.3401
   99SAPS   O22 9899   4.763   1.068   6.541 -1.0960 -0.6338  0.5068
   99SAPS   C22 9900   4.559   1.050   6.663  0.2852  0.2556  0.1926
   99SAPS   H2R 9901   4.480   1.122   6.692  2.3707  2.5290  0.6395
   99SAPS   H2S 9902   4.518   0.982   6.585 -2.3240  0.4287  1.3150
   99SAPS    C3 9903   4.714   1.484   6.567 -0.2924 -0.5042 -0.2267
   99SAPS    HX 9904   4.605   1.496   6.547 -0.3137  1.9939  0.9567
   99SAPS    HY 9905   4.771   1.540   6.489 -0.8884 -0.3507 -0.5577
   99SAPS   O31 9906   4.752   1.521   6.702  0.5769  0.7398  0.0208
   99SAPS   C31 9907   4.664   1.517   6.797  0.7145 -1.1123 -0.1244
   99SAPS   O32 9908   4.543   1.524   6.790  0.2778  0.5976  0.5825
   99SAPS   C32 9909   4.718   1.496   6.936 -0.6288  0.2269 -0.7427
   99SAPS   H2X 9910   4.816   1.444   6.930 -0.6662 -0.0602  0.7153
   99SAPS   H2Y 9911   4.665   1.408   6.979  2.9438 -1.2116  1.1104
   99SAPS   C23 9912   4.609   0.953   6.780 -0.1311  0.3682 -0.1685
   99SAPS   H3R 9913   4.683   0.881   6.739  1.5470  2.2286 -0.6154
   99SAPS   H3S 9914   4.516   0.903   6.812  0.8944 -0.6745  1.2928
   99SAPS   C24 9915   4.669   1.024   6.904  0.4605  0.0173  0.8048
   99SAPS   H4R 9916   4.766   1.077   6.887  0.5344 -0.4273 -0.2535
   99SAPS   H4S 9917   4.692   0.948   6.982  0.9841  0.8359  1.4659
   99SAPS   C25 9918   4.577   1.119   6.958 -0.8592  0.3646 -0.4490
   99SAPS   H5R 9919   4.493   1.158   6.898 -2.0233 -1.1068  0.1376
   99SAPS   C26 9920   4.583   1.164   7.083 -0.0431 -0.5012  0.6932
   99SAPS   H6R 9921   4.511   1.245   7.103  0.6687  0.1026  0.8570
   99SAPS   C27 9922   4.681   1.129   7.187 -0.0685  0.0627  0.0170
   99SAPS   H7R 9923   4.734   1.224   7.212  2.4930 -1.4866  0.9476
   99SAPS   H7S 9924   4.762   1.067   7.143 -1.8432 -1.0640 -1.8488
   99SAPS   C28 9925   4.633   1.066   7.313  0.3464 -0.2472 -0.5178
   99SAPS   H8R 9926   4.577   0.971   7.316  0.5352 -0.3579 -0.5121
   99SAPS   C29 9927   4.659   1.122   7.433 -0.3137  0.1208  0.3582
   99SAPS   H9R 9928   4.623   1.070   7.523 -1.5238 -0.9907 -0.7225
   99SAPS  C210 9929   4.736   1.248   7.474  0.6232 -0.4695 -0.5334
   99SAPS  H10R 9930   4.724   1.316   7.387  1.2773  0.1983 -0.1176
   99SAPS  H10S 9931   4.844   1.225   7.486  0.5826 -1.5683 -1.9788
   99SAPS  C211 9932   4.667   1.314   7.594 -0.1159  0.1716 -0.4279
   99SAPS  H11R 9933   4.562   1.344   7.580 -0.2948  0.3916  1.2686
   99SAPS  C212 9934   4.728   1.361   7.704 -0.0454  0.0480  0.2131
   99SAPS  H12R 9935   4.659   1.394   7.784  1.7444  0.6272  1.6021
   99SAPS  C213 9936   4.873   1.351   7.743  0.3835 -0.0497  0.2353
   99SAPS  H13R 9937   4.940   1.417   7.683  0.4126 -0.8295 -0.6266
   99SAPS  H13S 9938   4.898   1.246   7.715 -0.7761  0.0236 -1.2291
   99SAPS  C214 9939   4.890   1.372   7.892 -0.4185  0.1443  0.3861
   99SAPS  H14R 9940   4.967   1.451   7.895 -0.7246  0.4694 -0.2259
   99SAPS  C215 9941   4.838   1.304   7.998 -0.1524 -0.0987 -0.1972
   99SAPS  H15R 9942   4.869   1.331   8.100 -1.0920  2.2986 -0.4890
   99SAPS  C216 9943   4.739   1.194   7.993 -0.3227  0.1844  0.2476
   99SAPS  H16R 9944   4.787   1.109   7.940 -1.2223 -0.3213  0.2258
   99SAPS  H16S 9945   4.661   1.212   7.916 -2.2080  1.8233  2.4212
   99SAPS  C217 9946   4.681   1.150   8.127  0.1008  0.0491  0.2313
   99SAPS  H17R 9947   4.752   1.107   8.201  0.0653 -1.5097 -0.6138
   99SAPS  H17S 9948   4.600   1.076   8.108  0.3978 -0.3219  0.3960
   99SAPS  C218 9949   4.603   1.274   8.192 -0.4018 -0.0731 -0.4861
   99SAPS  H18R 9950   4.561   1.338   8.111  0.4803  0.0090 -0.8897
   99SAPS  H18S 9951   4.678   1.343   8.235  1.7407 -0.2862 -3.5044
   99SAPS  C219 9952   4.486   1.235   8.290 -0.3366  0.2147  0.1299
   99SAPS  H19R 9953   4.397   1.208   8.230  1.4424 -1.4853 -1.8964
   99SAPS  H19S 9954   4.461   1.324   8.353  0.6713  0.2078  0.5617
   99SAPS  C220 9955   4.521   1.132   8.386  0.1054  1.0418 -0.2186
   99SAPS  H20R 9956   4.560   1.177   8.480 -1.4538  0.0637  0.9506
   99SAPS  H20S 9957   4.596   1.058   8.350 -1.3404 -0.1843 -0.8077
   99SAPS  H20T 9958   4.440   1.062   8.416  0.9378 -1.0177 -2.3807
   99SAPS   C33 9959   4.732   1.611   7.033  0.0623  0.0651 -0.0280
   99SAPS   H3X 9960   4.649   1.681   7.008  0.1937 -0.4974 -2.2128
   99SAPS   H3Y 9961   4.828   1.664   7.018  0.5753 -1.4432 -2.5431
   99SAPS   C34 9962   4.730   1.564   7.181  0.0601 -0.7363  0.4418
   99SAPS   H4X 9963   4.812   1.497   7.214 -0.2115 -1.6857 -0.7418
   99SAPS   H4Y 9964   4.643   1.497   7.197 -1.2525  0.0588 -2.6140
   99SAPS   C35 9965   4.703   1.685   7.279 -0.7411  0.1201 -0.1055
   99SAPS   H5X 9966   4.597   1.718   7.278 -1.0935 -0.9699 -0.6493
   99SAPS   H5Y 9967   4.762   1.772   7.244 -0.6860 -0.6614 -2.0857
   99SAPS   C36 9968   4.747   1.666   7.427  0.4887 -1.1639 -0.2709
   99SAPS   H6X 9969   4.854   1.638   7.422  1.2811  1.1352  1.8494
   99SAPS   H6Y 9970   4.689   1.585   7.477  2.4550 -1.8196  1.0498
   99SAPS   C37 9971   4.751   1.792   7.516 -0.3373  0.8524  0.3824
   99SAPS   H7X 9972   4.648   1.832   7.524 -1.5978 -1.8099 -1.2765
   99SAPS   H7Y 9973   4.811   1.873   7.468 -0.7987  0.9346 -0.0582
   99SAPS   C38 9974   4.813   1.759   7.653 -0.3366  1.1437  0.5005
   99SAPS   H8X 9975   4.920   1.731   7.638 -0.6769 -1.0928  1.8282
   99SAPS   H8Y 9976   4.759   1.666   7.680 -1.7650  2.6112  3.0552
   99SAPS   C39 9977   4.787   1.863   7.757 -0.3292 -0.6815  0.0871
   99SAPS   H9X 9978   4.677   1.879   7.764 -0.2831 -1.1201  2.1932
   99SAPS   H9Y 9979   4.833   1.960   7.726  1.1994  0.0436  4.0842
   99SAPS  C310 9980   4.828   1.812   7.893 -0.9435 -0.9780  0.6166
   99SAPS  H10X 9981   4.775   1.718   7.920 -1.2586 -0.5043  1.6941
   99SAPS  H10Y 9982   4.822   1.891   7.971 -2.4468 -0.5200  0.0834
   99SAPS  C311 9983   4.979   1.783   7.904  0.7242  0.0605  0.1173
   99SAPS  H11X 9984   5.041   1.863   7.859  0.3713  0.0939 -0.3194
   99SAPS  H11Y 9985   5.011   1.688   7.856 -1.2543 -0.4547 -0.3055
   99SAPS  C312 9986   5.026   1.776   8.042 -0.0672  0.6700 -0.0840
   99SAPS  H12X 9987   4.976   1.843   8.116  0.6554 -1.1290  2.1842
   99SAPS  H12Y 9988   5.136   1.794   8.036  0.5166 -2.6774 -1.6354
   99SAPS  C313 9989   4.998   1.639   8.094  0.2896  0.1448 -0.6362
   99SAPS  H13X 9990   5.069   1.567   8.050  0.9276  2.0923 -2.9528
   99SAPS  H13Y 9991   4.900   1.589   8.074 -0.0804  1.6470 -2.9691
   99SAPS  C314 9992   5.014   1.645   8.247  0.4150 -0.8363 -0.5223
   99SAPS  H14X 9993   4.935   1.709   8.294 -1.5207 -2.0694 -1.9568
   99SAPS  H14Y 9994   5.114   1.680   8.281  0.3729  2.1636 -2.9697
   99SAPS  C315 9995   4.986   1.504   8.316  0.3515 -0.1177  0.1590
   99SAPS  H15X 9996   5.080   1.451   8.290 -0.8646 -1.7986 -0.9306
   99SAPS  H15Y 9997   4.898   1.459   8.267  2.8366 -2.8623 -2.1644
   99SAPS  C316 9998   4.980   1.519   8.469 -0.6672 -0.2826  0.6478
   99SAPS  H16X 9999   4.890   1.582   8.488 -0.7234 -0.4456  0.9267
   99SAPS  H16Y10000   5.065   1.580   8.506 -0.4083  0.4627 -1.0475
   99SAPS  C31710001   4.977   1.386   8.552 -0.7654 -0.3382 -0.5694
   99SAPS  H17X10002   4.980   1.407   8.661 -4.7533  1.4868 -0.6385
   99SAPS  H17Y10003   5.071   1.333   8.528  0.4788  1.8697 -0.8850
   99SAPS  C31810004   4.846   1.313   8.521  0.2419  0.2330 -0.2596
   99SAPS  H18X10005   4.762   1.376   8.555  0.3320  0.0088  0.4001
   99SAPS  H18Y10006   4.832   1.214   8.569 -0.0243  1.8776  3.3857
   99SAPS  H18Z10007   4.847   1.292   8.412 -0.1278 -2.0261  0.1107
  100SAPS     N10008   5.635   3.768   6.073 -0.9183 -0.1570 -0.1657
  100SAPS   HN110009   5.714   3.819   6.028 -1.3462 -0.3767 -1.1995
  100SAPS   HN210010   5.671   3.672   6.090  1.0094  0.6121  0.4013
  100SAPS   HN310011   5.544   3.760   6.023 -0.9039 -0.8566 -0.0893
  100SAPS   C1210012   5.620   3.833   6.197 -0.3870 -0.3971  0.2289
  100SAPS  H12A10013   5.710   3.808   6.252 -0.0069 -1.8929 -0.9966
  100SAPS   C1310014   5.615   3.988   6.185 -0.0537 -0.1100  0.4788
  100SAPS  O13A10015   5.614   4.051   6.072  0.2354  0.4213 -0.2391
  100SAPS  O13B10016   5.580   4.050   6.290  0.1445  0.5065 -0.8021
  100SAPS   C1110017   5.492   3.781   6.264  0.5468  0.4159 -0.3929
  100SAPS  H11A10018   5.403   3.817   6.208  0.3073 -0.6600 -0.7380
  100SAPS  H11B10019   5.477   3.820   6.367 -0.0235  0.0868 -0.3447
  100SAPS     P10020   5.537   3.548   6.371 -0.2253 -0.2154  0.0352
  100SAPS   O1310021   5.460   3.418   6.363 -0.4662 -0.2374  0.4286
  100SAPS   O1410022   5.681   3.542   6.382 -0.1996 -0.2829  0.6997
  100SAPS   O1210023   5.484   3.639   6.255  0.0760 -0.5869  0.2712
  100SAPS   O1110024   5.484   3.620   6.496 -0.6052 -0.0686  0.0926
  100SAPS    C110025   5.369   3.578   6.566 -0.0585 -0.0902  0.1323
  100SAPS    HA10026   5.282   3.579   6.496 -0.4271  1.5871  0.5714
  100SAPS    HB10027   5.380   3.483   6.621 -0.8367  0.9247  2.1283
  100SAPS    C210028   5.313   3.675   6.667  0.4004 -0.0063  0.3407
  100SAPS    HS10029   5.299   3.774   6.617  1.8541  0.1950  0.2927
  100SAPS   O2110030   5.393   3.677   6.786 -0.6114 -0.0591 -0.1621
  100SAPS   C2110031   5.433   3.795   6.843 -0.4989  0.6831  0.1288
  100SAPS   O2210032   5.391   3.907   6.811 -0.5627 -0.8410 -0.0384
  100SAPS   C2210033   5.539   3.769   6.947  0.1352  0.2319 -0.4323
  100SAPS   H2R10034   5.632   3.758   6.888  0.3027  1.6891 -0.4667
  100SAPS   H2S10035   5.562   3.855   7.013  0.1533 -0.9209  1.1126
  100SAPS    C310036   5.170   3.640   6.727 -0.5266 -0.1154 -0.2873
  100SAPS    HX10037   5.180   3.539   6.772  0.1782 -0.9012 -2.0868
  100SAPS    HY10038   5.097   3.624   6.645  0.7110 -1.6780 -1.1581
  100SAPS   O3110039   5.125   3.733   6.824 -0.3430 -0.0472  0.0801
  100SAPS   C3110040   5.054   3.839   6.789  0.5437  0.0296 -0.3912
  100SAPS   O3210041   5.033   3.879   6.675 -0.0338  0.6088 -0.1572
  100SAPS   C3210042   5.002   3.916   6.911  0.1423 -0.3424  0.3069
  100SAPS   H2X10043   4.965   4.009   6.864  3.0646  0.7731 -0.0002
  100SAPS   H2Y10044   5.087   3.961   6.966 -0.3242  3.6740 -1.8410
  100SAPS   C2310045   5.523   3.630   7.023 -0.7553 -0.1390 -0.3795
  100SAPS   H3R10046   5.606   3.623   7.096  0.1640  3.7150 -0.8088
  100SAPS   H3S10047   5.532   3.555   6.942 -0.0746  1.3186 -1.7132
  100SAPS   C2410048   5.387   3.609   7.096  0.7648 -0.2713  0.2438
  100SAPS   H4R10049   5.372   3.504   7.128 -1.8746  0.5969  2.1536
  100SAPS   H4S10050   5.310   3.624   7.017 -0.8459 -2.4103  1.3294
  100SAPS   C2510051   5.372   3.712   7.209 -0.2991 -0.1801  0.5090
  100SAPS   H5R10052   5.359   3.817   7.181  0.1642 -0.1797  0.2859
  100SAPS   C2610053   5.388   3.677   7.338 -0.0749  0.6650 -0.4600
  100SAPS   H6R10054   5.387   3.754   7.417  1.6555  0.2817 -0.0154
  100SAPS   C2710055   5.422   3.543   7.398 -0.0196  0.3127 -0.3188
  100SAPS   H7R10056   5.489   3.483   7.333  2.5036  3.1593 -0.5241
  100SAPS   H7S10057   5.323   3.493   7.392 -0.7056  1.7369 -1.4055
  100SAPS   C2810058   5.488   3.539   7.532  0.1753  0.0368  0.2458
  100SAPS   H8R10059   5.598   3.536   7.527  0.1469 -0.6495 -0.0944
  100SAPS   C2910060   5.419   3.547   7.651  0.2852 -0.3895  0.0426
  100SAPS   H9R10061   5.472   3.551   7.748 -0.5958  0.3739  0.5087
  100SAPS  C21010062   5.271   3.548   7.658 -0.5921  0.2600 -0.0564
  100SAPS  H10R10063   5.232   3.471   7.587 -0.2118 -0.8963  0.9521
  100SAPS  H10S10064   5.239   3.650   7.629 -1.8117 -0.2680 -0.6516
  100SAPS  C21110065   5.204   3.533   7.796 -0.0893  0.2339  0.3671
  100SAPS  H11R10066   5.208   3.433   7.841 -3.6285 -0.2585 -0.1040
  100SAPS  C21210067   5.179   3.634   7.878 -0.2506  1.3656  0.2135
  100SAPS  H12R10068   5.132   3.611   7.975  0.2510  0.1861  0.1923
  100SAPS  C21310069   5.210   3.785   7.863  0.1588 -1.1483  0.2821
  100SAPS  H13R10070   5.123   3.839   7.905 -0.8276 -0.9532 -1.8930
  100SAPS  H13S10071   5.211   3.802   7.753  3.2752 -0.0878  0.3758
  100SAPS  C21410072   5.339   3.845   7.916  0.5538 -0.3543  0.1271
  100SAPS  H14R10073   5.432   3.796   7.882  2.0848  2.1504  0.4705
  100SAPS  C21510074   5.354   3.955   7.993  0.1377  0.5916 -0.4836
  100SAPS  H15R10075   5.449   3.972   8.045 -1.3287 -0.3569  2.7603
  100SAPS  C21610076   5.246   4.040   8.046  1.1680 -0.8747  0.0878
  100SAPS  H16R10077   5.161   4.041   7.976  0.7273  1.2325  0.5917
  100SAPS  H16S10078   5.278   4.145   8.027 -1.7540  0.3566  1.4019
  100SAPS  C21710079   5.202   4.019   8.192  0.2606 -0.2383  1.0239
  100SAPS  H17R10080   5.124   4.085   8.236 -0.8758  0.6974 -2.1625
  100SAPS  H17S10081   5.297   4.026   8.249  1.8084  1.0814 -1.5181
  100SAPS  C21810082   5.152   3.879   8.222 -0.2752  0.2541  0.3597
  100SAPS  H18R10083   5.230   3.802   8.209  0.7585  1.2377  0.5970
  100SAPS  H18S10084   5.076   3.845   8.149  0.4490 -1.1040  0.2029
  100SAPS  C21910085   5.112   3.864   8.372  0.4049 -0.1174 -0.2546
  100SAPS  H19R10086   5.034   3.938   8.400 -0.5675 -1.1535 -0.1441
  100SAPS  H19S10087   5.196   3.891   8.441 -0.6193  1.8526  0.3168
  100SAPS  C22010088   5.055   3.724   8.418 -0.6840  0.0148  0.0703
  100SAPS  H20R10089   5.138   3.650   8.408 -0.1234  0.4601  1.2130
  100SAPS  H20S10090   4.968   3.681   8.364 -0.4331 -0.1322 -0.2194
  100SAPS  H20T10091   5.033   3.734   8.527  0.3200 -1.5094  0.4579
  100SAPS   C3310092   4.889   3.841   6.991 -0.8367  1.1164 -0.2082
  100SAPS   H3X10093   4.922   3.745   7.036 -1.7978  1.3666  1.1025
  100SAPS   H3Y10094   4.815   3.823   6.909 -0.4269  0.9395 -0.5414
  100SAPS   C3410095   4.835   3.926   7.103  0.3264  0.0850  0.4836
  100SAPS   H4X10096   4.749   3.872   7.149  1.0272 -2.0619 -0.5770
  100SAPS   H4Y10097   4.804   4.025   7.064  3.3188  0.4852 -1.2289
  100SAPS   C3510098   4.942   3.944   7.208  0.7664  0.3242  0.0841
  100SAPS   H5X10099   5.010   4.027   7.182  0.6008  0.7299  0.8975
  100SAPS   H5Y10100   5.001   3.850   7.213  0.4998  0.1960  1.1093
  100SAPS   C3610101   4.880   3.966   7.351  0.3878 -0.1331 -0.6681
  100SAPS   H6X10102   4.796   3.895   7.363  1.6476 -1.8793 -1.6780
  100SAPS   H6Y10103   4.843   4.071   7.346 -0.2575 -0.2114  1.4340
  100SAPS   C3710104   4.987   3.973   7.454 -0.0072  0.0372 -0.2138
  100SAPS   H7X10105   5.065   4.040   7.413 -0.0618 -0.5801 -1.3472
  100SAPS   H7Y10106   5.032   3.873   7.474  0.5843  0.6107  1.5246
  100SAPS   C3810107   4.938   4.022   7.591  0.2963 -0.3238 -0.2864
  100SAPS   H8X10108   4.875   4.111   7.571  0.5989  0.2016  0.9694
  100SAPS   H8Y10109   5.030   4.044   7.650 -0.2161  2.7639 -0.4727
  100SAPS   C3910110   4.856   3.922   7.675 -0.2232 -0.0610 -0.1801
  100SAPS   H9X10111   4.920   3.831   7.664 -1.4195 -0.8708 -0.6596
  100SAPS   H9Y10112   4.755   3.903   7.632  0.5116 -1.1298 -1.5104
  100SAPS  C31010113   4.853   3.947   7.830 -0.0354  0.6489 -0.6895
  100SAPS  H10X10114   4.957   3.962   7.863 -0.4700 -0.8306  1.5052
  100SAPS  H10Y10115   4.812   3.855   7.878 -1.2499  2.1137  1.2360
  100SAPS  C31110116   4.779   4.070   7.878  0.1013  1.0541 -0.1330
  100SAPS  H11X10117   4.693   4.076   7.807 -0.7449 -2.1176  0.4724
  100SAPS  H11Y10118   4.836   4.165   7.871  1.7380  0.0541 -1.1506
  100SAPS  C31210119   4.710   4.047   8.017 -0.3080  0.1604 -0.1862
  100SAPS  H12X10120   4.790   4.024   8.091 -0.4363 -3.2837 -0.9129
  100SAPS  H12Y10121   4.645   3.956   8.012  1.0481 -0.8138 -0.7644
  100SAPS  C31310122   4.613   4.167   8.047  0.1191 -0.3761 -0.0909
  100SAPS  H13X10123   4.524   4.152   7.981  0.0392 -1.5268  0.2636
  100SAPS  H13Y10124   4.650   4.264   8.008 -2.4754 -0.1282 -2.2743
  100SAPS  C31410125   4.559   4.167   8.191 -0.2964  0.0549 -0.1443
  100SAPS  H14X10126   4.648   4.157   8.257 -0.1351 -2.6778 -0.6384
  100SAPS  H14Y10127   4.503   4.073   8.208 -2.0203  1.1899  0.7514
  100SAPS  C31510128   4.466   4.291   8.227  0.5407 -0.6440 -0.0737
  100SAPS  H15X10129   4.399   4.319   8.143 -0.5788  0.8067  1.2264
  100SAPS  H15Y10130   4.529   4.379   8.253 -1.1505  1.0540 -1.4589
  100SAPS  C31610131   4.374   4.256   8.351  0.0057  0.4671 -0.1118
  100SAPS  H16X10132   4.443   4.220   8.430  0.3592 -0.7139 -0.9363
  100SAPS  H16Y10133   4.302   4.176   8.321  1.7660 -1.5577  0.8019
  100SAPS  C31710134   4.292   4.374   8.411 -0.3072  0.3383  0.4011
  100SAPS  H17X10135   4.237   4.417   8.324 -0.8781  0.5369  0.8551
  100SAPS  H17Y10136   4.356   4.457   8.447 -1.2258  0.8688  0.8296
  100SAPS  C31810137   4.202   4.330   8.516 -0.0149  0.1965 -0.0857
  100SAPS  H18X10138   4.130   4.411   8.539 -1.6331 -1.3369  0.5849
  100SAPS  H18Y10139   4.261   4.309   8.608  0.3385 -0.4284 -0.4436
  100SAPS  H18Z10140   4.145   4.239   8.486  0.4217 -0.7061  1.6603
  101OSM      N10141   2.628   4.387  10.787  0.0045  0.0708 -0.5539
  101OSM    C1510142   2.714   4.472  10.876  0.1746  0.3012  0.0215
  101OSM   H15A10143   2.645   4.537  10.927  0.9466  0.4351  0.9281
  101OSM   H15B10144   2.769   4.550  10.826 -0.8808  0.7416 -0.4899
  101OSM   H15C10145   2.780   4.423  10.945  1.0692 -1.2884 -1.8662
  101OSM    C1410146   2.722   4.299  10.704 -0.4175 -0.3150 -0.0153
  101OSM   H14A10147   2.796   4.356  10.650 -2.3723  0.5964 -1.8489
  101OSM   H14B10148   2.664   4.234  10.641 -2.6259  1.5534 -0.0463
  101OSM   H14C10149   2.779   4.239  10.774  2.1572  1.5885 -0.3288
  101OSM    C1310150   2.530   4.311  10.870  0.0414  0.0254  0.1983
  101OSM   H13A10151   2.586   4.246  10.937  1.2919  2.5795  1.7816
  101OSM   H13B10152   2.461   4.257  10.808 -1.4411  0.7461  1.1759
  101OSM   H13C10153   2.473   4.373  10.937  1.5893 -1.9475  3.6279
  101OSM    C1210154   2.554   4.486  10.688  0.0864  0.6868  0.0731
  101OSM   H12A10155   2.481   4.542  10.744 -1.2621  0.3023 -1.2405
  101OSM   H12B10156   2.502   4.426  10.615 -0.4836 -0.0743  1.0706
  101OSM    C1110157   2.640   4.580  10.605  0.6121  0.3045  0.2862
  101OSM   H11A10158   2.580   4.613  10.518 -0.0565 -0.1199  0.5814
  101OSM   H11B10159   2.728   4.527  10.562 -0.5887 -0.5679 -1.1908
  101OSM      P10160   2.807   4.778  10.645 -0.5984 -0.0377  0.1936
  101OSM    O1310161   2.772   4.910  10.693 -0.0795 -0.7455  0.1214
  101OSM    O1410162   2.926   4.703  10.699 -0.3105  0.0402 -0.1676
  101OSM    O1110163   2.837   4.790  10.491  0.0314 -0.0594 -0.1011
  101OSM    O1210164   2.674   4.696  10.680  0.5020  0.6446 -0.0936
  101OSM    C1S10165   2.753   4.884  10.425 -0.0850 -0.6315 -0.1433
  101OSM    H1S10166   2.782   4.987  10.455  1.7321 -1.1171 -0.0993
  101OSM    H1T10167   2.648   4.869  10.456  0.9250  0.0542  4.2757
  101OSM     NF10168   2.702   4.996  10.215 -0.1070 -0.9494 -0.3239
  101OSM    HNF10169   2.604   5.006  10.229  0.2916  0.4496  2.1049
  101OSM    C2S10170   2.759   4.875  10.273 -0.3194  0.7797 -0.5767
  101OSM    H2S10171   2.865   4.863  10.241  0.1073 -1.2241  1.3252
  101OSM    C3S10172   2.684   4.749  10.232  0.0170  0.3087  0.0082
  101OSM    H3S10173   2.586   4.756  10.284 -0.0488  1.0226 -0.1927
  101OSM     O310174   2.755   4.633  10.272  0.7233 -0.6993  0.5881
  101OSM    HO310175   2.814   4.669  10.338  0.8306  0.8213 -0.2754
  101OSM    C4S10176   2.671   4.736  10.080  0.1313 -0.5644 -0.2013
  101OSM    H4S10177   2.759   4.744  10.015 -0.6619  2.4759 -1.0276
  101OSM    C5S10178   2.558   4.694  10.016 -0.1655  0.0756  0.4943
  101OSM    H5S10179   2.464   4.675  10.070 -1.0332 -0.5755 -1.1869
  101OSM    C6S10180   2.545   4.677   9.866 -0.4830  0.7733  0.2371
  101OSM    H6S10181   2.473   4.599   9.834  0.2488  0.1485  0.0852
  101OSM    H6T10182   2.640   4.648   9.817 -0.2248  0.5012  0.8931
  101OSM    C7S10183   2.507   4.814   9.809 -0.2810  0.1580  0.2028
  101OSM    H7S10184   2.573   4.896   9.845  0.5977 -0.1829 -0.5822
  101OSM    H7T10185   2.406   4.833   9.851 -0.5765  0.7183 -0.7293
  101OSM    C8S10186   2.498   4.819   9.655  0.2249  0.4601 -0.4243
  101OSM    H8S10187   2.403   4.774   9.618  0.6954 -0.2614 -0.7809
  101OSM    H8T10188   2.573   4.752   9.607  2.5705  2.4800  0.1982
  101OSM    C9S10189   2.499   4.957   9.606 -0.5528 -1.4099  0.0603
  101OSM    H9S10190   2.596   5.005   9.629 -0.7864  0.4499 -2.4141
  101OSM    H9T10191   2.423   5.014   9.664  0.7345 -2.4122  2.9043
  101OSM   C10S10192   2.475   4.973   9.450  0.4032 -0.1470  0.1578
  101OSM   H10S10193   2.496   5.079   9.425  0.1674  0.3770  1.9733
  101OSM   H10T10194   2.367   4.959   9.427 -0.0339  1.9154  0.6792
  101OSM   C11S10195   2.561   4.888   9.356 -0.0843  0.2621  0.2352
  101OSM   H11S10196   2.538   4.781   9.376  2.9524 -0.0588  2.8966
  101OSM   H11T10197   2.670   4.905   9.373  0.0182  2.1241 -1.8893
  101OSM   C12S10198   2.534   4.916   9.206 -0.0267  0.2256 -0.1160
  101OSM   H12S10199   2.530   5.026   9.190 -0.4635  0.2713  0.2699
  101OSM   H12T10200   2.429   4.883   9.190  0.1937 -0.8799  0.6045
  101OSM   C13S10201   2.624   4.846   9.107 -0.2544  0.0301  0.3882
  101OSM   H13S10202   2.734   4.857   9.123 -0.1826 -2.1834  1.8531
  101OSM   H13T10203   2.614   4.894   9.007  1.2457 -0.8503 -0.2204
  101OSM   C14S10204   2.589   4.700   9.100  0.7159 -1.1190 -0.6806
  101OSM   H14S10205   2.481   4.684   9.077  0.9663 -2.5366 -1.0096
  101OSM   H14T10206   2.620   4.646   9.193 -0.1409  1.7534  1.4357
  101OSM   C15S10207   2.656   4.633   8.977 -0.2134  0.1137 -0.7356
  101OSM   H15S10208   2.649   4.522   8.983  0.4733 -0.0236 -1.9729
  101OSM   H15T10209   2.762   4.666   8.972 -0.9783  2.9372 -0.0034
  101OSM   C16S10210   2.596   4.670   8.837 -0.9642  0.7966 -0.5570
  101OSM   H16S10211   2.587   4.780   8.837 -1.0141  0.8691  2.2962
  101OSM   H16T10212   2.497   4.625   8.812 -2.1329  2.3180  1.1391
  101OSM   C17S10213   2.694   4.637   8.719 -0.0919  0.3142 -0.3652
  101OSM   H17S10214   2.801   4.647   8.748 -0.3872  0.9251  0.5408
  101OSM   H17T10215   2.673   4.718   8.645  2.1389  2.2340  0.9744
  101OSM   C18S10216   2.677   4.505   8.644 -0.4906 -0.3679 -0.2206
  101OSM   H18S10217   2.690   4.419   8.713  1.6271  1.2317  1.5097
  101OSM   H18T10218   2.761   4.504   8.572 -0.2485 -0.3039  0.0608
  101OSM   H18U10219   2.580   4.488   8.592 -1.2063  0.5773  0.7853
  101OSM    C1F10220   2.763   5.114  10.199  0.1521 -0.1445  0.0847
  101OSM     OF10221   2.887   5.117  10.181 -0.7557  0.2732  0.1865
  101OSM    C2F10222   2.678   5.231  10.208  0.5592 -0.7979  0.0444
  101OSM    H2F10223   2.739   5.323  10.196 -1.8362  0.8569 -0.1443
  101OSM    H2G10224   2.636   5.228  10.310  1.5895 -2.7791  0.4622
  101OSM    C3F10225   2.570   5.220  10.096 -0.6237 -0.0559  0.0681
  101OSM    H3F10226   2.501   5.307  10.102  0.6631  1.1754 -1.9103
  101OSM    H3G10227   2.507   5.129  10.102  1.6341 -1.6077  2.6976
  101OSM    C4F10228   2.634   5.222   9.954  0.6441  0.1054 -0.0643
  101OSM    H4F10229   2.556   5.196   9.879 -0.1550  0.8691  0.4870
  101OSM    H4G10230   2.720   5.153   9.941 -1.5798 -2.6964 -1.1150
  101OSM    C5F10231   2.682   5.362   9.913 -0.3645 -0.6053 -0.2217
  101OSM    H5F10232   2.791   5.376   9.926 -0.3096 -0.6625 -0.6064
  101OSM    H5G10233   2.620   5.438   9.965  0.1282 -1.4664  1.6969
  101OSM    C6F10234   2.667   5.390   9.768  0.6731  0.6503 -0.7393
  101OSM    H6F10235   2.561   5.406   9.739 -0.2116 -3.8691 -0.7972
  101OSM    H6G10236   2.702   5.305   9.706  1.6058  0.3285  0.1919
  101OSM    C7F10237   2.739   5.519   9.733  0.3152 -0.1850 -0.4067
  101OSM    H7F10238   2.844   5.526   9.771  0.6607  2.0368 -1.5873
  101OSM    H7G10239   2.694   5.608   9.783  0.3860 -0.6857  0.5708
  101OSM    C8F10240   2.758   5.557   9.580 -0.9777 -0.2501  0.4390
  101OSM    H8F10241   2.813   5.653   9.583  0.8082 -1.2518  1.6240
  101OSM    H8G10242   2.655   5.572   9.540 -1.2151 -2.5029  0.0754
  101OSM    C9F10243   2.843   5.458   9.508 -0.2272 -0.4713 -0.4995
  101OSM    H9F10244   2.940   5.439   9.555  0.8527  1.0337 -2.0272
  101OSM   C10F10245   2.806   5.396   9.394 -0.1574 -0.6215 -0.4273
  101OSM   H10F10246   2.871   5.316   9.357 -3.3541 -3.3381 -0.6845
  101OSM   C11F10247   2.684   5.424   9.311  0.6316 -0.1347 -0.1830
  101OSM   H11F10248   2.668   5.532   9.288  0.7364 -0.1318 -0.2419
  101OSM   H11G10249   2.597   5.389   9.371  1.2698  0.0418  0.8801
  101OSM   C12F10250   2.673   5.359   9.166 -0.2488  0.4065 -0.2724
  101OSM   H12F10251   2.565   5.358   9.141 -1.4491 -1.1673  3.9625
  101OSM   H12G10252   2.687   5.249   9.172  1.2200  0.5135 -1.2531
  101OSM   C13F10253   2.743   5.439   9.052  0.1930  0.3034  0.1077
  101OSM   H13F10254   2.852   5.421   9.059  0.6326  2.0325 -1.3937
  101OSM   H13G10255   2.721   5.543   9.085  0.6929  0.1289  1.0108
  101OSM   C14F10256   2.705   5.393   8.908  0.1754  0.6047 -1.0673
  101OSM   H14F10257   2.636   5.306   8.905  0.0634  0.6958 -1.1311
  101OSM   H14G10258   2.799   5.359   8.858 -0.0808 -3.7788  0.9279
  101OSM   C15F10259   2.632   5.498   8.819  0.1593 -0.7522 -0.7042
  101OSM   H15F10260   2.611   5.455   8.719  1.0708  0.9679 -1.6935
  101OSM   H15G10261   2.700   5.585   8.804  0.5791 -0.5441  1.9398
  101OSM   C16F10262   2.502   5.554   8.880  0.6202  0.5971 -0.0482
  101OSM   H16F10263   2.521   5.598   8.980  2.7151 -0.2205 -0.0269
  101OSM   H16G10264   2.452   5.458   8.904  2.1503  0.1697  1.6645
  101OSM   C17F10265   2.412   5.643   8.788  0.6308 -0.4986 -0.4826
  101OSM   H17F10266   2.384   5.584   8.698 -2.0250 -1.5003  0.8635
  101OSM   H17G10267   2.453   5.741   8.758 -0.8321  0.2547 -0.0908
  101OSM   C18F10268   2.263   5.658   8.851  0.0021  0.9012 -0.0151
  101OSM   H18F10269   2.200   5.696   8.768 -0.1014 -1.3753 -1.0554
  101OSM   H18G10270   2.245   5.714   8.945  0.7051 -0.1712  0.7769
  101OSM   H18H10271   2.226   5.553   8.851  2.6486 -0.1663 -2.4473
  102OSM      N10272   3.210   3.733  11.130 -0.4303 -0.0691 -0.5378
  102OSM    C1510273   3.287   3.658  11.238  0.0240  0.3364  0.3865
  102OSM   H15A10274   3.336   3.571  11.197  1.1783  0.4144  1.5686
  102OSM   H15B10275   3.229   3.623  11.322  2.4705  0.5439  2.2783
  102OSM   H15C10276   3.367   3.721  11.275  0.4306  0.3365 -0.4497
  102OSM    C1410277   3.106   3.632  11.088 -0.5978  0.0616  0.7126
  102OSM   H14A10278   3.052   3.594  11.173  0.2111 -0.3706  1.0486
  102OSM   H14B10279   3.154   3.560  11.024 -0.0265  1.1360 -0.1092
  102OSM   H14C10280   3.043   3.684  11.018  0.2186  1.5708  1.0463
  102OSM    C1310281   3.162   3.856  11.200  1.3638 -0.5045  0.8103
  102OSM   H13A10282   3.088   3.901  11.136  0.5913  0.5981  2.4202
  102OSM   H13B10283   3.236   3.933  11.215  1.7646 -0.4769 -1.1722
  102OSM   H13C10284   3.111   3.830  11.292  0.6168  3.5250  1.7281
  102OSM    C1210285   3.305   3.767  11.008  0.3052 -0.3093 -0.7682
  102OSM   H12A10286   3.345   3.672  10.975  0.2534 -0.9514  0.9397
  102OSM   H12B10287   3.386   3.827  11.048  1.8298 -2.7231 -0.0107
  102OSM    C1110288   3.245   3.826  10.880  0.1795 -0.4966  0.1713
  102OSM   H11A10289   3.174   3.752  10.839 -0.3488 -0.9432  1.8274
  102OSM   H11B10290   3.331   3.831  10.810 -0.8364  1.7272 -1.0242
  102OSM      P10291   3.261   4.085  10.895  0.3368 -0.0925 -0.5113
  102OSM    O1310292   3.197   4.182  10.982  0.2781 -0.3826 -0.2302
  102OSM    O1410293   3.401   4.054  10.933 -0.1494  0.5046  0.4383
  102OSM    O1110294   3.260   4.144  10.750  0.2171  0.1378 -0.0078
  102OSM    O1210295   3.182   3.949  10.898  0.0425  0.2213 -0.8835
  102OSM    C1S10296   3.219   4.062  10.638  0.2265 -0.0480  0.2422
  102OSM    H1S10297   3.122   4.012  10.661  2.0122 -2.6143  3.0131
  102OSM    H1T10298   3.289   3.977  10.622  2.2949  1.7556 -0.7916
  102OSM     NF10299   3.175   4.053  10.394 -0.1887  0.0408  0.0572
  102OSM    HNF10300   3.252   4.019  10.339  0.0610  0.5123  0.1113
  102OSM    C2S10301   3.212   4.145  10.506 -0.3821 -0.3747  0.4799
  102OSM    H2S10302   3.130   4.217  10.526 -0.5520 -1.0000  2.3156
  102OSM    C3S10303   3.348   4.231  10.486  0.0016  0.5117 -0.4871
  102OSM    H3S10304   3.437   4.165  10.475  1.2546  2.1483 -0.5233
  102OSM     O310305   3.364   4.330  10.586 -0.0555  0.3896 -0.1774
  102OSM    HO310306   3.314   4.306  10.664 -1.1090  1.8453 -0.3700
  102OSM    C4S10307   3.340   4.305  10.361  0.0247  0.7007  0.4355
  102OSM    H4S10308   3.250   4.367  10.345  1.7757  3.4417  0.5476
  102OSM    C5S10309   3.434   4.302  10.266 -0.5638 -0.0823  0.1890
  102OSM    H5S10310   3.528   4.250  10.288  1.5863  4.0069  1.7151
  102OSM    C6S10311   3.432   4.375  10.133  0.3491 -0.5784 -0.0424
  102OSM    H6S10312   3.524   4.435  10.114 -0.7286  0.7088 -1.4463
  102OSM    H6T10313   3.350   4.450  10.126  0.3848 -0.6564 -1.7897
  102OSM    C7S10314   3.430   4.284  10.009  0.3151  0.5692  0.2531
  102OSM    H7S10315   3.336   4.226  10.015  0.5174  0.3320  1.4409
  102OSM    H7T10316   3.513   4.210  10.008 -0.4893 -0.3620  0.9196
  102OSM    C8S10317   3.432   4.355   9.869  0.1811  0.4683  0.1192
  102OSM    H8S10318   3.525   4.415   9.875 -0.8621  2.0049  3.0991
  102OSM    H8T10319   3.345   4.424   9.863 -1.3275 -1.0605  2.4368
  102OSM    C9S10320   3.447   4.259   9.744 -0.6769 -0.0820 -0.1159
  102OSM    H9S10321   3.348   4.209   9.732 -0.4247 -0.8021  0.6763
  102OSM    H9T10322   3.511   4.170   9.762  0.7727  0.7198 -1.1736
  102OSM   C10S10323   3.499   4.332   9.616 -0.5524 -0.3707 -0.2998
  102OSM   H10S10324   3.607   4.355   9.630 -0.3382 -1.7345  0.4559
  102OSM   H10T10325   3.456   4.433   9.601 -0.4615 -0.0480  1.4058
  102OSM   C11S10326   3.478   4.239   9.492  0.3680  0.0111 -0.7340
  102OSM   H11S10327   3.373   4.205   9.503  1.1314 -1.9279  1.4905
  102OSM   H11T10328   3.541   4.148   9.502 -0.0940 -0.0992  1.7208
  102OSM   C12S10329   3.524   4.311   9.362 -0.2884  0.0061 -0.8102
  102OSM   H12S10330   3.627   4.352   9.374 -1.0208  1.4438  0.9386
  102OSM   H12T10331   3.477   4.411   9.356  2.3879  1.5384  1.3991
  102OSM   C13S10332   3.498   4.227   9.240 -0.5369  0.2959  0.3980
  102OSM   H13S10333   3.389   4.222   9.223 -0.7268  1.0625  1.3097
  102OSM   H13T10334   3.531   4.123   9.259  0.3761  0.5756  0.4122
  102OSM   C14S10335   3.557   4.260   9.099 -0.0368  0.2926 -0.0550
  102OSM   H14S10336   3.487   4.337   9.060 -0.4814  0.2335  0.6242
  102OSM   H14T10337   3.558   4.176   9.026  2.3637 -0.7398  1.0280
  102OSM   C15S10338   3.699   4.309   9.080 -0.2385  0.0964 -0.3756
  102OSM   H15S10339   3.761   4.242   9.144  0.9555 -0.1019 -1.7112
  102OSM   H15T10340   3.696   4.409   9.130 -0.2221  0.0700 -0.3212
  102OSM   C16S10341   3.753   4.303   8.939 -0.4689 -0.9452  0.1164
  102OSM   H16S10342   3.703   4.381   8.878  0.6445  0.0770  0.4756
  102OSM   H16T10343   3.745   4.205   8.888  1.0998  0.0284 -2.1776
  102OSM   C17S10344   3.899   4.354   8.933  0.7442 -0.0592  0.3624
  102OSM   H17S10345   3.936   4.292   8.848 -2.2269 -3.4577  1.3128
  102OSM   H17T10346   3.936   4.327   9.034  1.2467  0.5898  0.3570
  102OSM   C18S10347   3.912   4.504   8.912 -0.5367 -0.3811  0.2585
  102OSM   H18S10348   3.842   4.558   8.980 -1.6769 -1.6941  0.1857
  102OSM   H18T10349   3.891   4.540   8.809 -3.2749 -1.8066  0.2230
  102OSM   H18U10350   4.012   4.532   8.951 -1.4524  0.4482  2.1312
  102OSM    C1F10351   3.055   3.989  10.377 -0.0945 -0.3846 -0.4138
  102OSM     OF10352   2.971   4.009  10.465  0.6332  0.0743 -0.0108
  102OSM    C2F10353   3.044   3.887  10.266  0.2414  0.0664  0.1486
  102OSM    H2F10354   3.014   3.791  10.312 -0.8410 -0.8583 -2.3537
  102OSM    H2G10355   3.148   3.864  10.236  1.4460  2.6137  1.9420
  102OSM    C3F10356   2.944   3.935  10.157  0.4197 -0.2836  1.0196
  102OSM    H3F10357   2.971   4.031  10.107  3.8418 -1.6305 -0.0013
  102OSM    H3G10358   2.844   3.953  10.202 -0.1231 -1.9534  0.5375
  102OSM    C4F10359   2.920   3.823  10.049  0.1636  0.0089  0.0207
  102OSM    H4F10360   2.833   3.867   9.995 -0.7466 -2.0068 -0.2297
  102OSM    H4G10361   2.882   3.731  10.097  0.9458 -0.9267 -1.0979
  102OSM    C5F10362   3.025   3.789   9.943  0.6493 -0.2081 -0.1158
  102OSM    H5F10363   2.995   3.705   9.877 -1.3919  2.2302 -2.5309
  102OSM    H5G10364   3.117   3.762   9.999 -1.1400 -2.6727  1.8465
  102OSM    C6F10365   3.043   3.908   9.848  0.0344 -0.0918 -0.2675
  102OSM    H6F10366   3.076   3.991   9.913 -0.2339 -0.6272  0.5619
  102OSM    H6G10367   2.943   3.938   9.808  0.6445  0.3378 -1.5268
  102OSM    C7F10368   3.134   3.879   9.732  0.1435 -0.7561 -0.0241
  102OSM    H7F10369   3.099   3.783   9.689  0.3939 -3.5933  5.2130
  102OSM    H7G10370   3.236   3.858   9.771  1.7259  0.3939 -3.1768
  102OSM    C8F10371   3.155   4.005   9.645 -0.1165  0.0472 -0.2385
  102OSM    H8F10372   3.253   4.015   9.593  0.0783 -1.8144 -0.2953
  102OSM    H8G10373   3.150   4.093   9.712 -0.5480 -0.2773  0.1627
  102OSM    C9F10374   3.051   4.037   9.550 -0.3371 -0.1249  0.0995
  102OSM    H9F10375   2.951   4.056   9.590 -0.9686 -1.3171 -0.8330
  102OSM   C10F10376   3.067   4.019   9.413  1.1291  0.3467 -0.1682
  102OSM   H10F10377   2.985   4.049   9.346  1.8395 -0.2949 -1.3479
  102OSM   C11F10378   3.189   3.968   9.344  0.1213 -0.1504  0.2648
  102OSM   H11F10379   3.195   3.857   9.345  0.3430 -0.1330  1.2585
  102OSM   H11G10380   3.280   4.011   9.393 -0.0237  0.0384  0.3697
  102OSM   C12F10381   3.204   3.996   9.193  0.1026 -0.2383  0.7384
  102OSM   H12F10382   3.208   4.106   9.176 -1.7960 -0.4741 -1.8617
  102OSM   H12G10383   3.110   3.969   9.141  0.3179 -0.8406  0.6568
  102OSM   C13F10384   3.332   3.930   9.125 -0.4836  1.1712 -0.3635
  102OSM   H13F10385   3.341   3.830   9.174 -0.1590  1.6706  0.6098
  102OSM   H13G10386   3.424   3.985   9.154 -1.4120  1.2627  2.7809
  102OSM   C14F10387   3.332   3.916   8.979 -0.3057  0.1881  0.7318
  102OSM   H14F10388   3.322   4.022   8.947 -2.4624 -0.0239  0.5799
  102OSM   H14G10389   3.261   3.843   8.935  2.3557 -0.7997 -2.2996
  102OSM   C15F10390   3.466   3.871   8.928 -0.7469 -0.0935 -0.2081
  102OSM   H15F10391   3.490   3.764   8.950  3.3670  0.4224 -1.3834
  102OSM   H15G10392   3.544   3.924   8.986 -1.7520  2.1336 -0.8029
  102OSM   C16F10393   3.501   3.891   8.779  0.1124 -0.2509  0.5886
  102OSM   H16F10394   3.607   3.862   8.763  0.1932  0.6995 -0.7457
  102OSM   H16G10395   3.505   4.000   8.758  0.2928 -0.5813 -1.2531
  102OSM   C17F10396   3.413   3.826   8.677  0.1637  0.0886  0.1533
  102OSM   H17F10397   3.452   3.869   8.582  3.0429 -1.4869  0.5194
  102OSM   H17G10398   3.309   3.865   8.685  0.7591  1.3692  2.4779
  102OSM   C18F10399   3.403   3.670   8.668  0.4479 -0.6110  0.0260
  102OSM   H18F10400   3.363   3.642   8.569  0.5070  1.6247 -0.6681
  102OSM   H18G10401   3.333   3.637   8.748 -0.3139  0.0779 -0.3499
  102OSM   H18H10402   3.505   3.631   8.691  0.6641  0.7944  1.6271
  103OSM      N10403   4.931   6.122  11.382  0.8800 -0.5244 -0.0390
  103OSM    C1510404   5.079   6.130  11.412 -0.2766  0.3766  0.3019
  103OSM   H15A10405   5.092   6.098  11.514 -1.2068  0.1527  0.3545
  103OSM   H15B10406   5.096   6.237  11.411  0.0866  0.3271 -1.3663
  103OSM   H15C10407   5.135   6.081  11.334  3.4902 -0.2890  3.1335
  103OSM    C1410408   4.890   5.980  11.392 -0.3953 -0.0420  0.3203
  103OSM   H14A10409   4.929   5.937  11.301  1.7286  1.4408  0.4415
  103OSM   H14B10410   4.786   5.954  11.391 -0.1672 -1.1048  1.5449
  103OSM   H14C10411   4.934   5.939  11.482  1.6367 -0.7110 -0.9027
  103OSM    C1310412   4.855   6.183  11.493 -0.7264 -0.3958  0.1666
  103OSM   H13A10413   4.884   6.287  11.496  1.7042 -0.9792 -0.5218
  103OSM   H13B10414   4.876   6.135  11.587 -0.2638 -1.9360 -0.6792
  103OSM   H13C10415   4.748   6.182  11.479 -0.9145 -1.5169  1.4551
  103OSM    C1210416   4.894   6.181  11.249 -0.0450  0.1672 -0.0383
  103OSM   H12A10417   4.899   6.289  11.248 -1.1333  0.2298  0.2208
  103OSM   H12B10418   4.791   6.149  11.244  0.0643  0.0367 -2.7499
  103OSM    C1110419   4.956   6.123  11.123  0.8184 -0.2989 -0.5089
  103OSM   H11A10420   4.902   6.169  11.037  0.0295  0.1491  0.2118
  103OSM   H11B10421   4.934   6.014  11.116 -2.0934  0.1669  0.0139
  103OSM      P10422   5.132   6.301  11.070 -0.0901 -0.0583  0.3819
  103OSM    O1310423   5.076   6.410  11.153 -0.0706  0.1614 -0.2035
  103OSM    O1410424   5.276   6.307  11.048 -0.3187  0.1941 -0.1447
  103OSM    O1110425   5.080   6.311  10.919  0.3133  0.5321  0.1631
  103OSM    O1210426   5.101   6.155  11.119  0.3973 -0.4562 -0.3704
  103OSM    C1S10427   5.172   6.282  10.805  0.0580  0.1598 -0.7694
  103OSM    H1S10428   5.197   6.174  10.798  0.4984  0.1417  0.7387
  103OSM    H1T10429   5.263   6.345  10.814 -0.6938  1.7268 -3.0078
  103OSM     NF10430   5.173   6.283  10.552  0.4231 -0.4301 -0.1350
  103OSM    HNF10431   5.214   6.350  10.490  1.3957 -1.4867 -0.6614
  103OSM    C2S10432   5.096   6.322  10.673 -0.2112 -0.1208 -0.2079
  103OSM    H2S10433   5.003   6.262  10.666 -0.4280  0.3715 -1.9392
  103OSM    C3S10434   5.070   6.471  10.665  0.6828 -1.2022  0.4290
  103OSM    H3S10435   5.169   6.520  10.650  0.0723  0.3879  1.2976
  103OSM     O310436   5.012   6.532  10.781 -0.2896  0.0896  0.3446
  103OSM    HO310437   5.027   6.467  10.850 -1.6508 -0.5621  0.0655
  103OSM    C4S10438   4.984   6.510  10.553  0.2561  0.4738  0.9514
  103OSM    H4S10439   4.877   6.506  10.582  0.5301  2.3463  2.3995
  103OSM    C5S10440   5.030   6.583  10.443 -0.5156  0.8679 -0.0932
  103OSM    H5S10441   5.138   6.603  10.447 -0.7153  1.8788  0.7206
  103OSM    C6S10442   4.960   6.639  10.323 -0.3791 -0.6030 -0.3233
  103OSM    H6S10443   4.928   6.742  10.349  1.4437  0.4056 -1.7630
  103OSM    H6T10444   4.867   6.590  10.287  0.4449 -1.1562 -1.7919
  103OSM    C7S10445   5.065   6.648  10.206  0.3115  0.3926  0.5182
  103OSM    H7S10446   5.112   6.548  10.213  3.8858  1.8626 -0.4627
  103OSM    H7T10447   5.143   6.725  10.223  1.0508  0.3094 -2.0903
  103OSM    C8S10448   5.010   6.658  10.064  0.4159  0.8583  0.1182
  103OSM    H8S10449   4.947   6.749  10.049  0.5487  1.0533  0.7575
  103OSM    H8T10450   4.946   6.571  10.035  0.1002  0.9877  0.4156
  103OSM    C9S10451   5.126   6.663   9.968 -0.0266 -0.4769 -0.2097
  103OSM    H9S10452   5.187   6.582  10.011 -2.1687 -1.5369  1.0093
  103OSM    H9T10453   5.189   6.754   9.959  0.9852 -1.1921 -0.5294
  103OSM   C10S10454   5.099   6.612   9.823  0.0387  0.5108 -0.7800
  103OSM   H10S10455   5.059   6.508   9.821  0.4599  0.3412 -0.5596
  103OSM   H10T10456   5.192   6.609   9.763 -0.4643 -0.5125 -1.5590
  103OSM   C11S10457   5.015   6.715   9.752 -0.6170 -0.4591  0.5345
  103OSM   H11S10458   5.054   6.816   9.778  0.6187 -1.2961  2.1015
  103OSM   H11T10459   4.917   6.704   9.803 -0.6895 -2.3225  0.0549
  103OSM   C12S10460   4.997   6.677   9.604  0.5581 -0.2055 -0.4686
  103OSM   H12S10461   4.951   6.577   9.593 -1.0583  0.6309 -1.8646
  103OSM   H12T10462   5.096   6.682   9.554  0.8153  1.5031  0.1638
  103OSM   C13S10463   4.907   6.774   9.529  0.0189 -0.1942 -0.1715
  103OSM   H13S10464   4.888   6.876   9.570 -2.1647  0.5045 -2.6272
  103OSM   H13T10465   4.806   6.731   9.547  1.3702 -3.2538  0.7503
  103OSM   C14S10466   4.942   6.794   9.383  0.4196  1.3319  0.8338
  103OSM   H14S10467   5.048   6.824   9.368  0.3221  1.1140 -0.3651
  103OSM   H14T10468   4.870   6.866   9.337  0.0861  0.0744 -0.7237
  103OSM   C15S10469   4.917   6.668   9.302 -0.6714  1.3561  0.6741
  103OSM   H15S10470   4.816   6.678   9.255  0.6451  1.1360 -2.5047
  103OSM   H15T10471   4.897   6.579   9.366 -1.9527  0.9581 -0.2369
  103OSM   C16S10472   5.032   6.652   9.197  0.2113 -0.4597  0.3549
  103OSM   H16S10473   5.048   6.547   9.167 -0.2767 -0.7952  1.2372
  103OSM   H16T10474   5.128   6.676   9.248  0.0953 -0.6209  0.6514
  103OSM   C17S10475   5.015   6.749   9.082  0.7007  0.1417  0.0243
  103OSM   H17S10476   5.025   6.856   9.110 -1.3033  0.1206  0.9909
  103OSM   H17T10477   4.910   6.744   9.046  0.7504  0.8779 -0.2445
  103OSM   C18S10478   5.107   6.735   8.964  0.1770 -0.6625 -0.5978
  103OSM   H18S10479   5.098   6.822   8.894  0.5121 -0.6483 -0.6241
  103OSM   H18T10480   5.088   6.636   8.918  0.5744 -0.1072 -2.0064
  103OSM   H18U10481   5.207   6.731   9.012  0.3534  2.7220 -0.3970
  103OSM    C1F10482   5.189   6.150  10.522  0.7669  0.2472 -0.8311
  103OSM     OF10483   5.143   6.060  10.593  0.4702 -0.5132 -0.6157
  103OSM    C2F10484   5.262   6.122  10.390  0.0703 -0.4874  0.0639
  103OSM    H2F10485   5.262   6.011  10.377 -1.4572 -0.5989  0.8805
  103OSM    H2G10486   5.365   6.161  10.404 -0.3798 -0.0015  2.3370
  103OSM    C3F10487   5.194   6.195  10.275 -0.0548 -0.7169  0.1310
  103OSM    H3F10488   5.217   6.304  10.277 -0.7170 -0.5327 -1.1570
  103OSM    H3G10489   5.083   6.191  10.281 -0.0620 -0.7274  0.0052
  103OSM    C4F10490   5.259   6.150  10.138  0.0361  0.0249  0.1549
  103OSM    H4F10491   5.236   6.042  10.125 -2.1015  0.5154 -0.4696
  103OSM    H4G10492   5.369   6.162  10.127  0.1721 -1.1362  0.0971
  103OSM    C5F10493   5.184   6.221  10.019  0.0528  0.2689 -0.0374
  103OSM    H5F10494   5.189   6.331  10.035 -1.5084  0.8045 -2.6383
  103OSM    H5G10495   5.077   6.192  10.024  0.4295 -0.9641  1.6275
  103OSM    C6F10496   5.235   6.174   9.886 -0.2961 -0.5066  0.3972
  103OSM    H6F10497   5.204   6.068   9.872  0.4074 -0.4420 -1.9466
  103OSM    H6G10498   5.346   6.166   9.886 -0.2721 -0.2084  0.3221
  103OSM    C7F10499   5.205   6.253   9.761  0.7388  0.4206  0.4792
  103OSM    H7F10500   5.221   6.362   9.778 -0.9939  0.7598  0.1597
  103OSM    H7G10501   5.094   6.254   9.754  0.7451  1.1309  0.4325
  103OSM    C8F10502   5.270   6.202   9.632  0.9915  0.2219 -0.0690
  103OSM    H8F10503   5.245   6.096   9.607 -0.5598  0.3317  0.8870
  103OSM    H8G10504   5.381   6.215   9.629  1.1159 -0.6851  0.3532
  103OSM    C9F10505   5.211   6.280   9.515  0.1269 -0.2715  0.7191
  103OSM    H9F10506   5.114   6.260   9.469 -0.1122 -1.2011  1.5882
  103OSM   C10F10507   5.270   6.384   9.454 -0.7240 -0.7645 -0.2061
  103OSM   H10F10508   5.220   6.424   9.365 -0.0262  2.6431  0.7666
  103OSM   C11F10509   5.402   6.454   9.480 -0.0453 -0.3409 -0.0732
  103OSM   H11F10510   5.424   6.444   9.589 -1.2405  1.2573  0.3523
  103OSM   H11G10511   5.385   6.564   9.478  0.4296 -0.2274  1.0961
  103OSM   C12F10512   5.530   6.432   9.399  0.1602  0.0458 -0.0076
  103OSM   H12F10513   5.542   6.322   9.394  1.8035  0.1149  1.4499
  103OSM   H12G10514   5.617   6.476   9.452 -0.0989  0.2475  0.2564
  103OSM   C13F10515   5.524   6.501   9.265  0.1449  0.2982 -0.1164
  103OSM   H13F10516   5.492   6.607   9.270 -1.7517 -0.2441 -0.1968
  103OSM   H13G10517   5.627   6.494   9.223 -0.3932  1.6172 -1.7628
  103OSM   C14F10518   5.437   6.426   9.157  0.4022 -1.0403 -0.8671
  103OSM   H14F10519   5.332   6.417   9.193  0.2703 -1.2190 -1.2884
  103OSM   H14G10520   5.467   6.320   9.150  1.7649 -0.7007 -0.4186
  103OSM   C15F10521   5.439   6.496   9.019 -0.2214  0.7212 -0.1883
  103OSM   H15F10522   5.544   6.513   8.989  0.2343 -1.3051  0.0893
  103OSM   H15G10523   5.398   6.597   9.041  1.0029  1.5360 -1.5351
  103OSM   C16F10524   5.353   6.428   8.914  0.0894  0.4446  0.7921
  103OSM   H16F10525   5.254   6.425   8.963  0.6158  0.0615  1.8537
  103OSM   H16G10526   5.394   6.325   8.908  0.0241  0.4683 -0.3109
  103OSM   C17F10527   5.351   6.491   8.771 -0.2865 -0.1460 -0.6497
  103OSM   H17F10528   5.446   6.548   8.762  0.2751 -0.7993  0.8427
  103OSM   H17G10529   5.267   6.564   8.776  1.4117  1.8302  1.2959
  103OSM   C18F10530   5.357   6.391   8.654 -0.2929 -0.0449  0.1823
  103OSM   H18F10531   5.256   6.350   8.631 -0.8848  1.2093  0.4664
  103OSM   H18G10532   5.426   6.305   8.668 -0.4745 -0.2707 -0.2668
  103OSM   H18H10533   5.392   6.437   8.560  0.5206  0.3754  0.6771
  104OSM      N10534   2.050   6.374  10.684 -0.8360 -0.4136  1.1095
  104OSM    C1510535   2.039   6.522  10.724 -0.2912 -0.2297  0.5624
  104OSM   H15A10536   2.136   6.564  10.745  0.4712 -0.8342 -1.5666
  104OSM   H15B10537   1.975   6.530  10.811  1.1619 -0.9556  1.7471
  104OSM   H15C10538   1.992   6.575  10.642  0.3948  1.6626  1.3362
  104OSM    C1410539   2.162   6.358  10.581 -1.0840  0.1353 -0.1953
  104OSM   H14A10540   2.237   6.434  10.597  0.4229 -1.0810 -1.2203
  104OSM   H14B10541   2.133   6.366  10.477  0.6028 -1.5511 -0.8489
  104OSM   H14C10542   2.212   6.263  10.593 -1.2961  0.1507  0.8712
  104OSM    C1310543   2.078   6.295  10.810  0.4063  0.4024  1.1401
  104OSM   H13A10544   1.990   6.297  10.872 -1.1082 -0.3528 -0.8693
  104OSM   H13B10545   2.172   6.320  10.858  0.2462 -0.4225  1.9103
  104OSM   H13C10546   2.083   6.190  10.789 -1.4292  0.6970 -1.2050
  104OSM    C1210547   1.923   6.328  10.612  0.2499  0.0264  0.1319
  104OSM   H12A10548   1.950   6.270  10.524  0.1880 -0.4291  0.4075
  104OSM   H12B10549   1.868   6.408  10.565 -0.9225 -0.1815  1.1259
  104OSM    C1110550   1.820   6.250  10.705 -1.1777  0.4730  0.2069
  104OSM   H11A10551   1.869   6.164  10.756 -1.4846  0.1841  0.0219
  104OSM   H11B10552   1.743   6.215  10.632  1.1449 -1.5955 -1.4122
  104OSM      P10553   1.649   6.433  10.773  0.2328  0.1393 -0.4840
  104OSM    O1310554   1.521   6.374  10.821  0.0124  0.7851 -0.5373
  104OSM    O1410555   1.678   6.565  10.840  0.0337 -0.0294  0.2708
  104OSM    O1110556   1.642   6.449  10.621  0.5388 -0.0905  0.7297
  104OSM    O1210557   1.768   6.336  10.806  0.2895  0.8564 -0.2567
  104OSM    C1S10558   1.671   6.571  10.555 -0.3589 -0.4709 -0.5544
  104OSM    H1S10559   1.757   6.623  10.602  0.5862 -2.1165 -0.3888
  104OSM    H1T10560   1.585   6.641  10.560  0.1615  0.0867  1.6562
  104OSM     NF10561   1.764   6.664  10.353  0.0772  0.1541  0.1712
  104OSM    HNF10562   1.694   6.714  10.304 -1.1051 -1.5071  0.0916
  104OSM    C2S10563   1.708   6.543  10.407 -0.3755  0.1755 -1.0038
  104OSM    H2S10564   1.790   6.469  10.402  1.6554  2.2123  0.0099
  104OSM    C3S10565   1.588   6.485  10.325 -0.3094 -0.3888  0.0341
  104OSM    H3S10566   1.510   6.564  10.321  0.8783  1.0346  2.8152
  104OSM     O310567   1.513   6.382  10.377  0.0745 -0.5388 -1.0662
  104OSM    HO310568   1.543   6.374  10.468  2.0622  1.9032 -1.3710
  104OSM    C4S10569   1.627   6.439  10.189  0.7403 -0.3074 -0.0832
  104OSM    H4S10570   1.698   6.355  10.181  2.2703  0.5907  2.6548
  104OSM    C5S10571   1.569   6.494  10.080  0.4377 -0.3564 -0.1639
  104OSM    H5S10572   1.497   6.576  10.092  0.8590 -0.0800  0.5537
  104OSM    C6S10573   1.599   6.471   9.932 -0.3297 -0.1861 -0.7923
  104OSM    H6S10574   1.635   6.573   9.904  2.3591  0.1749  3.0698
  104OSM    H6T10575   1.511   6.452   9.868 -0.1005 -0.0513 -1.1486
  104OSM    C7S10576   1.716   6.366   9.914  0.7768 -0.2391 -0.0877
  104OSM    H7S10577   1.675   6.264   9.926  1.5909 -0.6683 -0.8945
  104OSM    H7T10578   1.789   6.382   9.996 -1.0040 -1.2570  1.7944
  104OSM    C8S10579   1.782   6.386   9.778  0.7855 -0.7493 -0.2274
  104OSM    H8S10580   1.858   6.304   9.776 -2.2011 -3.7979  0.4615
  104OSM    H8T10581   1.831   6.485   9.785  0.0583 -0.4112  0.1851
  104OSM    C9S10582   1.695   6.364   9.654 -0.1470 -0.4910  0.1392
  104OSM    H9S10583   1.625   6.451   9.661  0.1843 -0.2027 -0.1013
  104OSM    H9T10584   1.640   6.268   9.660 -0.9960  0.0144  0.6709
  104OSM   C10S10585   1.768   6.382   9.519 -0.2040 -0.3396 -0.5473
  104OSM   H10S10586   1.848   6.306   9.513  1.3239  1.2257 -0.6402
  104OSM   H10T10587   1.821   6.479   9.523  1.0842 -1.0307 -0.5041
  104OSM   C11S10588   1.683   6.390   9.390  0.9983 -0.4632  0.3863
  104OSM   H11S10589   1.647   6.494   9.375 -0.3438 -1.0153 -0.4202
  104OSM   H11T10590   1.596   6.324   9.405  2.2254 -1.9869  1.0286
  104OSM   C12S10591   1.750   6.338   9.264 -0.8833 -0.4623  0.1453
  104OSM   H12S10592   1.799   6.244   9.299 -0.9725 -0.3047  0.7077
  104OSM   H12T10593   1.828   6.411   9.233  1.2904 -2.4879  0.5174
  104OSM   C13S10594   1.649   6.297   9.156 -0.5541 -0.5027 -0.6726
  104OSM   H13S10595   1.605   6.394   9.122 -2.1699 -2.3129 -4.2131
  104OSM   H13T10596   1.566   6.240   9.202  1.2473 -1.9339  0.9696
  104OSM   C14S10597   1.706   6.219   9.037  0.1903  1.2594  0.5757
  104OSM   H14S10598   1.751   6.120   9.060 -1.3452  0.7090  1.3061
  104OSM   H14T10599   1.796   6.272   8.998  1.4717 -0.7557  0.6560
  104OSM   C15S10600   1.598   6.198   8.929 -0.5661 -0.4826 -0.5549
  104OSM   H15S10601   1.509   6.147   8.970  0.8629 -2.9701 -0.3860
  104OSM   H15T10602   1.643   6.122   8.862  1.0811 -0.3745  0.3871
  104OSM   C16S10603   1.571   6.320   8.838 -0.0767  0.4820  0.0134
  104OSM   H16S10604   1.664   6.357   8.791  0.7690  2.4902  2.9964
  104OSM   H16T10605   1.529   6.412   8.884  1.3370  1.4565 -0.5719
  104OSM   C17S10606   1.465   6.283   8.732  0.2496  0.2454 -0.0226
  104OSM   H17S10607   1.370   6.283   8.789  0.8490 -1.8715  1.0926
  104OSM   H17T10608   1.478   6.182   8.686 -3.1240 -0.4503  0.3224
  104OSM   C18S10609   1.458   6.378   8.611 -0.3038 -0.3391 -0.6923
  104OSM   H18S10610   1.551   6.364   8.551  0.7267 -0.7963  0.9516
  104OSM   H18T10611   1.444   6.485   8.634 -1.5455 -0.9290  1.6517
  104OSM   H18U10612   1.369   6.354   8.548  0.9034 -0.2691 -2.5217
  104OSM    C1F10613   1.890   6.706  10.392  0.2736  0.3592  0.1632
  104OSM     OF10614   1.967   6.635  10.455  0.2751  0.0983 -0.2351
  104OSM    C2F10615   1.926   6.849  10.365  0.3188  0.0633  0.1474
  104OSM    H2F10616   2.004   6.871  10.442  2.0917 -1.1732 -1.2274
  104OSM    H2G10617   1.843   6.922  10.377  0.0336 -0.0846 -0.8827
  104OSM    C3F10618   1.981   6.871  10.220 -0.1973  0.1399 -0.0040
  104OSM    H3F10619   2.070   6.810  10.195  1.7241  2.3366  1.1442
  104OSM    H3G10620   2.009   6.978  10.212 -0.7049  0.2357 -0.5363
  104OSM    C4F10621   1.877   6.862  10.112  0.1863 -0.4598  0.7890
  104OSM    H4F10622   1.788   6.923  10.142 -0.1134 -1.7701  2.7947
  104OSM    H4G10623   1.852   6.754  10.105 -0.1394 -0.2829 -1.7226
  104OSM    C5F10624   1.921   6.926   9.970 -0.4920  0.0224  0.0439
  104OSM    H5F10625   2.023   6.889   9.945  0.4007  1.8626  0.7732
  104OSM    H5G10626   1.935   7.036   9.975 -0.7412  0.0157  1.4287
  104OSM    C6F10627   1.835   6.885   9.848  0.1199  0.8855 -0.4260
  104OSM    H6F10628   1.727   6.908   9.858  0.2889  1.1220  1.2102
  104OSM    H6G10629   1.848   6.778   9.822 -0.5007  1.0367 -1.3872
  104OSM    C7F10630   1.873   6.961   9.714 -0.0249 -0.5333 -0.1273
  104OSM    H7F10631   1.982   6.955   9.693  0.3447  0.2734  1.4051
  104OSM    H7G10632   1.840   7.067   9.721 -0.6374 -0.6823 -0.6685
  104OSM    C8F10633   1.810   6.892   9.594  0.0467 -0.3465 -0.0446
  104OSM    H8F10634   1.832   6.783   9.601  2.3356 -0.2237 -3.2892
  104OSM    H8G10635   1.865   6.920   9.502 -0.8278 -3.5150 -1.6889
  104OSM    C9F10636   1.664   6.919   9.570 -0.3933 -0.7444 -0.5046
  104OSM    H9F10637   1.612   6.906   9.666  0.9317  2.4837  0.8066
  104OSM   C10F10638   1.601   6.942   9.454 -0.0091 -0.2452  0.3734
  104OSM   H10F10639   1.492   6.956   9.458  0.1305  1.2587 -0.3676
  104OSM   C11F10640   1.664   6.951   9.318  0.0819 -0.4078 -0.1790
  104OSM   H11F10641   1.767   6.993   9.314 -0.3325  0.5607 -1.5637
  104OSM   H11G10642   1.607   7.021   9.254  0.9358  1.7299  1.2869
  104OSM   C12F10643   1.654   6.814   9.244  0.1504 -0.3565 -0.4052
  104OSM   H12F10644   1.547   6.783   9.244  0.3168 -0.9835 -1.2452
  104OSM   H12G10645   1.711   6.744   9.309 -1.0603 -0.0026  1.1067
  104OSM   C13F10646   1.709   6.804   9.098 -0.1719 -0.6659  0.0222
  104OSM   H13F10647   1.813   6.842   9.101 -0.5289  0.2965  0.5371
  104OSM   H13G10648   1.660   6.889   9.045  0.7042  0.7132  1.3512
  104OSM   C14F10649   1.703   6.661   9.057 -0.6441 -0.3253 -0.4941
  104OSM   H14F10650   1.599   6.627   9.043 -1.0877  0.4813  0.6753
  104OSM   H14G10651   1.752   6.606   9.140  2.1325  0.5317 -1.4461
  104OSM   C15F10652   1.776   6.621   8.928 -0.2694  0.7582 -0.7982
  104OSM   H15F10653   1.769   6.511   8.921 -0.4765  0.8499 -2.3736
  104OSM   H15G10654   1.883   6.652   8.924 -0.3167  1.0511  0.0449
  104OSM   C16F10655   1.706   6.684   8.803 -0.3808  0.1104 -0.0503
  104OSM   H16F10656   1.724   6.793   8.803  1.3417 -0.1488  0.3419
  104OSM   H16G10657   1.599   6.656   8.812 -0.3781 -0.2121 -0.9171
  104OSM   C17F10658   1.764   6.635   8.675  0.0023 -0.0092 -0.7312
  104OSM   H17F10659   1.755   6.524   8.669  2.7352 -0.2942 -0.6388
  104OSM   H17G10660   1.873   6.655   8.669 -0.0188  0.0257 -1.0157
  104OSM   C18F10661   1.699   6.703   8.556  0.2016  0.0116 -0.0834
  104OSM   H18F10662   1.591   6.714   8.581  0.3877 -1.7768  1.7805
  104OSM   H18G10663   1.724   6.643   8.466  1.5781 -0.9208  0.8834
  104OSM   H18H10664   1.728   6.810   8.551  0.5661  0.0368  1.7910
  105OSM      N10665   2.191   5.548  10.856 -0.3825 -0.1146  0.1326
  105OSM    C1510666   2.290   5.434  10.849 -0.0091  0.0387  0.4858
  105OSM   H15A10667   2.391   5.458  10.819 -0.5494 -0.6711 -2.1868
  105OSM   H15B10668   2.262   5.350  10.787  0.0821  0.6989 -0.4576
  105OSM   H15C10669   2.313   5.396  10.948  2.8487 -1.9826 -0.8144
  105OSM    C1410670   2.063   5.477  10.907  0.3914  0.3518 -0.0041
  105OSM   H14A10671   2.041   5.389  10.849 -1.6470 -0.0179  1.2298
  105OSM   H14B10672   1.980   5.543  10.887  0.6147 -0.1151 -2.8310
  105OSM   H14C10673   2.065   5.454  11.013 -0.1359  0.2653 -0.0090
  105OSM    C1310674   2.245   5.642  10.959 -0.2843  0.4386  0.4814
  105OSM   H13A10675   2.189   5.734  10.956  3.1085  2.7028 -0.4852
  105OSM   H13B10676   2.345   5.672  10.929 -0.3417 -1.1235 -1.5318
  105OSM   H13C10677   2.237   5.607  11.060  0.7857  2.1995  1.2163
  105OSM    C1210678   2.163   5.602  10.722 -0.2854  0.3766  0.1243
  105OSM   H12A10679   2.072   5.660  10.729 -1.0122 -0.6749 -0.2958
  105OSM   H12B10680   2.140   5.524  10.651 -1.6565  1.2622 -0.4560
  105OSM    C1110681   2.269   5.698  10.660 -0.2100 -0.2236 -0.1446
  105OSM   H11A10682   2.267   5.725  10.552  1.2554 -0.5035 -0.2724
  105OSM   H11B10683   2.365   5.641  10.659  0.1997  0.3620  1.8022
  105OSM      P10684   2.203   5.950  10.730  0.4563 -0.3186  0.0062
  105OSM    O1310685   2.066   5.921  10.784  0.5249 -0.0130 -0.0289
  105OSM    O1410686   2.273   6.046  10.813  0.4486  0.0058  1.2368
  105OSM    O1110687   2.197   5.993  10.580  0.5648 -0.0561 -0.9344
  105OSM    O1210688   2.295   5.821  10.732  0.7328  0.3089 -0.0201
  105OSM    C1S10689   2.300   6.020  10.490 -0.2542  0.1588 -1.2327
  105OSM    H1S10690   2.394   5.967  10.517  0.0753  1.5068  0.4614
  105OSM    H1T10691   2.325   6.129  10.492  0.7503  0.0295 -3.3539
  105OSM     NF10692   2.382   6.010  10.255 -0.0443  0.2745  0.4252
  105OSM    HNF10693   2.377   6.072  10.178  2.1135  1.4889  1.1672
  105OSM    C2S10694   2.272   5.985  10.345 -0.0721 -0.4076  0.0744
  105OSM    H2S10695   2.254   5.875  10.349 -3.0240 -0.0531 -1.1271
  105OSM    C3S10696   2.148   6.061  10.304 -0.4416  0.0963 -0.7694
  105OSM    H3S10697   2.160   6.171  10.315  1.3023 -0.0414 -0.9629
  105OSM     O310698   2.033   6.027  10.380  0.0272 -0.3761 -0.2973
  105OSM    HO310699   2.061   6.007  10.469 -2.0410 -0.3598  0.4193
  105OSM    C4S10700   2.115   6.017  10.168 -0.1593 -0.5284  0.3718
  105OSM    H4S10701   2.105   5.909  10.151 -1.2372 -0.1476 -1.8223
  105OSM    C5S10702   2.121   6.092  10.053 -0.1963 -0.3197  0.1224
  105OSM    H5S10703   2.166   6.192  10.058  0.0286 -0.2535 -2.3008
  105OSM    C6S10704   2.102   6.045   9.916  0.6965 -0.2733  0.1827
  105OSM    H6S10705   1.993   6.056   9.893  1.3315  0.9607 -2.8044
  105OSM    H6T10706   2.131   5.938   9.915 -0.7256 -0.6952 -1.2379
  105OSM    C7S10707   2.169   6.133   9.812 -1.0808 -0.3364 -0.1824
  105OSM    H7S10708   2.276   6.121   9.837 -1.3531 -0.4313  1.0112
  105OSM    H7T10709   2.155   6.241   9.833  2.7120  0.1384  0.6055
  105OSM    C8S10710   2.135   6.090   9.671 -0.4076  0.3612  0.6157
  105OSM    H8S10711   2.029   6.117   9.648 -0.5930  1.6105  2.6650
  105OSM    H8T10712   2.142   5.980   9.669 -0.1050  0.3139  2.5342
  105OSM    C9S10713   2.218   6.162   9.562 -0.4315  0.3217  0.2537
  105OSM    H9S10714   2.327   6.141   9.563  0.2685  3.1750 -1.8040
  105OSM    H9T10715   2.217   6.267   9.599 -0.9491  0.0105  1.1335
  105OSM   C10S10716   2.148   6.165   9.422  0.1569  0.9075 -0.0426
  105OSM   H10S10717   2.043   6.200   9.431 -1.6798 -4.0783  1.3490
  105OSM   H10T10718   2.153   6.059   9.390  0.4005  0.9180 -0.0396
  105OSM   C11S10719   2.218   6.246   9.308  0.5427 -0.2348  0.0660
  105OSM   H11S10720   2.327   6.226   9.315  0.8463  1.3678  0.4207
  105OSM   H11T10721   2.211   6.354   9.334 -0.2937  0.2800 -2.1073
  105OSM   C12S10722   2.145   6.207   9.178  0.3411  0.2378 -0.7105
  105OSM   H12S10723   2.038   6.208   9.207  0.3781  1.2104 -0.5674
  105OSM   H12T10724   2.172   6.102   9.155  3.0600  0.5880  0.5064
  105OSM   C13S10725   2.176   6.300   9.061 -0.4405  0.8394 -0.0836
  105OSM   H13S10726   2.285   6.283   9.042 -0.9075 -0.5553 -1.8945
  105OSM   H13T10727   2.159   6.404   9.094 -2.1516  0.6477 -0.2775
  105OSM   C14S10728   2.094   6.268   8.942  0.5215 -0.6157 -0.3069
  105OSM   H14S10729   2.006   6.336   8.944 -0.0605 -1.3444 -0.5464
  105OSM   H14T10730   2.063   6.162   8.932  1.5208 -0.9360 -0.1582
  105OSM   C15S10731   2.165   6.307   8.814  0.0913  0.3679 -0.2544
  105OSM   H15S10732   2.085   6.289   8.738 -0.5372 -0.3843  0.5636
  105OSM   H15T10733   2.248   6.235   8.800 -0.7793 -0.9321  1.0305
  105OSM   C16S10734   2.214   6.454   8.809  0.5324  0.1803 -0.1751
  105OSM   H16S10735   2.262   6.484   8.905  0.7618 -0.0398 -0.2189
  105OSM   H16T10736   2.117   6.507   8.796  0.9800  0.6149 -1.9655
  105OSM   C17S10737   2.304   6.500   8.694 -0.5821 -0.4300  0.7300
  105OSM   H17S10738   2.397   6.440   8.705  0.0403  0.1218 -1.1268
  105OSM   H17T10739   2.311   6.608   8.718  2.7178 -0.5735  0.9044
  105OSM   C18S10740   2.240   6.479   8.547  0.1614  0.5039  0.0670
  105OSM   H18S10741   2.144   6.535   8.540  0.1227  0.3634 -0.5930
  105OSM   H18T10742   2.199   6.377   8.533 -0.3595  0.7996 -0.6401
  105OSM   H18U10743   2.297   6.521   8.461 -1.2246 -0.0569 -1.1733
  105OSM    C1F10744   2.501   5.946  10.268  0.1979  0.3979  0.4004
  105OSM     OF10745   2.510   5.868  10.361  0.2968  0.5520 -0.1186
  105OSM    C2F10746   2.621   5.981  10.173  0.9461  0.0102 -1.0857
  105OSM    H2F10747   2.657   6.079  10.211 -1.8059  1.6144 -2.3265
  105OSM    H2G10748   2.591   5.996  10.067 -3.0775  0.4330 -0.0382
  105OSM    C3F10749   2.727   5.872  10.193 -0.4472 -0.4770  0.0686
  105OSM    H3F10750   2.681   5.775  10.168  0.4905 -1.0735  0.5720
  105OSM    H3G10751   2.765   5.870  10.298  2.9288  0.0266 -1.0236
  105OSM    C4F10752   2.847   5.886  10.093 -0.0724 -0.8504 -0.2198
  105OSM    H4F10753   2.924   5.810  10.119  0.9166  0.4383  0.7432
  105OSM    H4G10754   2.894   5.984  10.114 -0.0045 -1.1617  1.2120
  105OSM    C5F10755   2.811   5.889   9.943  0.0696 -0.2680  0.3461
  105OSM    H5F10756   2.764   5.989   9.928  1.7306  0.2397 -1.9883
  105OSM    H5G10757   2.734   5.811   9.926 -0.1662  0.1337 -0.4753
  105OSM    C6F10758   2.922   5.874   9.841 -0.3064 -0.9716 -0.5408
  105OSM    H6F10759   2.963   5.771   9.844 -2.9052 -2.0736  0.2484
  105OSM    H6G10760   2.998   5.951   9.869 -0.1131 -1.7262  1.1610
  105OSM    C7F10761   2.871   5.910   9.701 -0.6721  0.0384 -0.4007
  105OSM    H7F10762   2.846   6.017   9.686  1.9787  0.8206  0.2670
  105OSM    H7G10763   2.789   5.837   9.683  0.0064 -0.8287 -0.0650
  105OSM    C8F10764   2.981   5.886   9.593  0.5316  0.9386 -0.6458
  105OSM    H8F10765   3.013   5.779   9.596  0.0764  0.6370 -3.6235
  105OSM    H8G10766   3.070   5.943   9.626  2.0929 -2.1678  0.9531
  105OSM    C9F10767   2.930   5.922   9.450  0.0659  0.7100 -0.5294
  105OSM    H9F10768   2.834   5.975   9.453  1.4965  3.4741 -0.7289
  105OSM   C10F10769   2.985   5.887   9.335  0.2101 -0.2141 -0.3560
  105OSM   H10F10770   2.938   5.920   9.241  0.0729  0.5044 -0.0348
  105OSM   C11F10771   3.108   5.803   9.319 -0.2587  0.1719  0.6585
  105OSM   H11F10772   3.081   5.716   9.254  0.7284  0.7345 -0.5337
  105OSM   H11G10773   3.152   5.767   9.414  1.1269  1.7433  0.6502
  105OSM   C12F10774   3.212   5.877   9.232  0.0082 -0.1143 -0.5052
  105OSM   H12F10775   3.293   5.802   9.215  0.3571  0.0407  0.4083
  105OSM   H12G10776   3.244   5.963   9.295 -2.3819  0.4750 -0.0297
  105OSM   C13F10777   3.172   5.921   9.090 -0.5132  0.2397  0.2101
  105OSM   H13F10778   3.262   5.967   9.042  0.2128 -0.5397  0.7960
  105OSM   H13G10779   3.094   6.000   9.096 -2.6562 -1.8450  1.6579
  105OSM   C14F10780   3.124   5.813   8.994 -0.3318  0.5283 -0.4059
  105OSM   H14F10781   3.014   5.828   8.985 -0.4508  0.6156  1.0149
  105OSM   H14G10782   3.130   5.713   9.042 -4.4062  1.4152  2.4956
  105OSM   C15F10783   3.192   5.815   8.862 -0.2553  0.8565 -0.0874
  105OSM   H15F10784   3.158   5.730   8.799  0.5271 -0.7559  1.6172
  105OSM   H15G10785   3.301   5.806   8.879  0.1548  1.4116 -2.1212
  105OSM   C16F10786   3.165   5.930   8.773  0.6662  0.5182  0.1987
  105OSM   H16F10787   3.209   5.917   8.671  0.3989 -1.1776  0.2694
  105OSM   H16G10788   3.220   6.021   8.805  1.8381  0.2021 -0.8074
  105OSM   C17F10789   3.017   5.968   8.758  0.2793  0.0928 -0.1020
  105OSM   H17F10790   3.039   6.059   8.698  2.5330  0.3569  0.9907
  105OSM   H17G10791   2.976   6.003   8.855  1.2323 -1.2421  0.8161
  105OSM   C18F10792   2.929   5.874   8.670 -0.4147 -0.1345 -0.1593
  105OSM   H18F10793   2.981   5.856   8.574 -1.4962 -2.8031 -0.3413
  105OSM   H18G10794   2.830   5.922   8.655 -0.9160 -0.7579  0.9465
  105OSM   H18H10795   2.911   5.778   8.724  2.4244 -0.9862 -0.5736
  106OSM      N10796   1.946   4.675  10.992 -0.0581  0.1403 -1.4093
  106OSM    C1510797   1.990   4.819  10.989  0.5823  0.0343  0.3022
  106OSM   H15A10798   1.924   4.889  11.038  0.7549  0.2232  0.2654
  106OSM   H15B10799   1.984   4.839  10.883 -3.0301  2.0870  0.7314
  106OSM   H15C10800   2.090   4.835  11.028  0.4048 -0.2238  0.8761
  106OSM    C1410801   1.943   4.627  11.134 -0.0010 -0.0149  0.0466
  106OSM   H14A10802   1.924   4.521  11.147  1.2887 -0.1561  1.0012
  106OSM   H14B10803   1.883   4.692  11.195  0.5154  1.4792 -0.9709
  106OSM   H14C10804   2.045   4.630  11.169  0.7563 -1.6034 -1.8077
  106OSM    C1310805   1.808   4.671  10.940  0.9444  0.3854  0.3393
  106OSM   H13A10806   1.778   4.569  10.925 -1.0198  0.8716  0.7353
  106OSM   H13B10807   1.802   4.715  10.841  0.0360 -0.5209 -0.0175
  106OSM   H13C10808   1.744   4.730  11.004  2.6947  0.7051  1.8811
  106OSM    C1210809   2.045   4.592  10.909 -0.7359  0.2940 -0.3462
  106OSM   H12A10810   2.018   4.487  10.912  3.6696 -1.0628 -0.1775
  106OSM   H12B10811   2.145   4.588  10.952 -0.5418  0.7239 -0.7474
  106OSM    C1110812   2.066   4.633  10.759  0.0499 -0.5930  0.2163
  106OSM   H11A10813   1.966   4.638  10.712 -1.1876 -1.1328  2.6206
  106OSM   H11B10814   2.129   4.550  10.722  1.3767  1.0031 -1.3249
  106OSM      P10815   2.291   4.751  10.748  0.0935  0.2563 -0.0528
  106OSM    O1310816   2.350   4.885  10.769  0.3332  0.1011 -0.0137
  106OSM    O1410817   2.334   4.640  10.841 -0.6896 -0.0454 -0.1172
  106OSM    O1110818   2.332   4.698  10.608 -0.4232  0.3203  0.7052
  106OSM    O1210819   2.135   4.768  10.750  0.7116 -0.1525 -0.6646
  106OSM    C1S10820   2.260   4.734  10.488 -0.7247 -0.0314  0.1913
  106OSM    H1S10821   2.250   4.845  10.487  0.3345  0.1464  2.7962
  106OSM    H1T10822   2.153   4.703  10.495 -0.7807  0.5856  2.9931
  106OSM     NF10823   2.275   4.729  10.240  0.1837 -0.1517  0.3153
  106OSM    HNF10824   2.223   4.676  10.174 -1.4100 -0.0413  1.4482
  106OSM    C2S10825   2.310   4.659  10.365  0.1996 -0.0849 -0.0226
  106OSM    H2S10826   2.421   4.654  10.370  0.1429 -0.5679  0.8446
  106OSM    C3S10827   2.266   4.511  10.376  0.1254 -0.0824  0.2157
  106OSM    H3S10828   2.156   4.502  10.376  0.0017  1.0894 -0.7574
  106OSM     O310829   2.307   4.457  10.499  1.1583  0.0366  0.0944
  106OSM    HO310830   2.338   4.533  10.549 -1.1706  1.5540 -0.5718
  106OSM    C4S10831   2.330   4.438  10.267  0.4133  0.0523  0.4009
  106OSM    H4S10832   2.256   4.428  10.187  0.8180  0.7073 -0.0736
  106OSM    C5S10833   2.457   4.390  10.254  0.0431  0.3837 -0.5855
  106OSM    H5S10834   2.519   4.411  10.343 -1.4130  3.7252 -0.1871
  106OSM    C6S10835   2.509   4.309  10.133 -0.4909  0.2010  0.5344
  106OSM    H6S10836   2.520   4.202  10.162  0.6148 -0.2409 -1.3482
  106OSM    H6T10837   2.614   4.333  10.105  0.8982 -2.9333  2.5376
  106OSM    C7S10838   2.423   4.307  10.002 -0.4682 -0.1805 -0.8354
  106OSM    H7S10839   2.413   4.411   9.963 -1.9168 -0.5669 -1.5515
  106OSM    H7T10840   2.323   4.269  10.031 -0.5248 -1.2697 -2.3433
  106OSM    C8S10841   2.493   4.219   9.895  0.3081 -0.1679  0.0516
  106OSM    H8S10842   2.601   4.243   9.893  0.7707 -2.0016  0.6933
  106OSM    H8T10843   2.455   4.227   9.791  0.2937  2.3771  0.1978
  106OSM    C9S10844   2.494   4.071   9.935  0.0055  0.4072 -0.4687
  106OSM    H9S10845   2.393   4.030   9.911  0.3227  0.9015 -2.9403
  106OSM    H9T10846   2.508   4.046  10.042 -2.4143 -0.6992 -0.3541
  106OSM   C10S10847   2.600   3.975   9.866  0.7893 -0.1717 -0.7570
  106OSM   H10S10848   2.576   3.873   9.903  0.3614 -1.8569 -5.1458
  106OSM   H10T10849   2.706   4.008   9.873  0.7196  0.3532 -2.0111
  106OSM   C11S10850   2.569   3.958   9.719  0.1962  0.0712 -0.8171
  106OSM   H11S10851   2.581   4.057   9.670  0.6912  0.0604 -0.7280
  106OSM   H11T10852   2.463   3.928   9.704 -0.7841  3.4077 -1.3446
  106OSM   C12S10853   2.649   3.851   9.653  0.0393  0.3741 -0.4458
  106OSM   H12S10854   2.635   3.754   9.706  1.7515  1.2504  1.7691
  106OSM   H12T10855   2.758   3.871   9.659 -0.2643  2.4880 -1.3350
  106OSM   C13S10856   2.613   3.853   9.502  0.6773  0.0495  0.9086
  106OSM   H13S10857   2.513   3.898   9.484 -0.1667 -1.5099  1.5062
  106OSM   H13T10858   2.597   3.748   9.469 -0.3429  0.0634  1.3176
  106OSM   C14S10859   2.717   3.913   9.409  0.0715 -0.2615 -0.0713
  106OSM   H14S10860   2.814   3.869   9.442 -0.1946 -0.0871  0.9934
  106OSM   H14T10861   2.741   4.020   9.426  0.7753 -0.4432  0.0946
  106OSM   C15S10862   2.674   3.898   9.261  0.2065  0.5574 -0.1111
  106OSM   H15S10863   2.573   3.942   9.254 -0.6699 -0.9788  1.7288
  106OSM   H15T10864   2.658   3.792   9.232  0.5276 -0.3426  2.6495
  106OSM   C16S10865   2.780   3.947   9.165 -0.1310  0.8865 -0.4828
  106OSM   H16S10866   2.875   3.902   9.201 -0.0969  1.6468  0.4155
  106OSM   H16T10867   2.800   4.056   9.174 -1.4095  1.1750 -0.9032
  106OSM   C17S10868   2.741   3.915   9.019  0.3067 -0.0399 -0.8471
  106OSM   H17S10869   2.646   3.971   9.005  0.2080 -0.4326 -1.8297
  106OSM   H17T10870   2.730   3.805   9.003  2.9394 -0.4914  0.0274
  106OSM   C18S10871   2.843   3.972   8.918 -0.3064  0.1599 -0.4245
  106OSM   H18S10872   2.851   4.083   8.912  1.2545  0.0249 -1.3620
  106OSM   H18T10873   2.799   3.946   8.820  0.7547 -2.4213 -0.3048
  106OSM   H18U10874   2.941   3.923   8.937 -0.0655  1.3414  1.7795
  106OSM    C1F10875   2.317   4.848  10.209 -0.7673 -0.0266  0.3547
  106OSM     OF10876   2.404   4.908  10.273  0.5429 -0.3318  0.7498
  106OSM    C2F10877   2.274   4.913  10.085 -0.4166 -0.2701 -0.0791
  106OSM    H2F10878   2.205   4.844  10.031 -0.7930 -1.1334  1.4194
  106OSM    H2G10879   2.360   4.954  10.028  1.0688 -0.2607  2.0197
  106OSM    C3F10880   2.173   5.034  10.119 -0.2431  0.1477  0.3095
  106OSM    H3F10881   2.233   5.121  10.153 -0.2979  1.2526 -2.2190
  106OSM    H3G10882   2.087   5.023  10.188 -1.4178  1.0147 -0.9671
  106OSM    C4F10883   2.104   5.091   9.992 -0.5996 -0.1724 -0.4586
  106OSM    H4F10884   2.011   5.138  10.030  0.8759  1.2268  1.6391
  106OSM    H4G10885   2.083   5.002   9.929  4.2581 -0.8599 -1.4784
  106OSM    C5F10886   2.190   5.197   9.920 -0.7325  0.1529  0.1384
  106OSM    H5F10887   2.275   5.146   9.869 -0.4445 -0.6121  1.3367
  106OSM    H5G10888   2.230   5.270   9.993 -0.6670  0.1482  0.1074
  106OSM    C6F10889   2.108   5.289   9.818  0.1393 -0.8108  0.6245
  106OSM    H6F10890   2.029   5.349   9.869 -0.0012  1.3582 -1.8964
  106OSM    H6G10891   2.047   5.223   9.753  0.6717  0.7803 -1.5942
  106OSM    C7F10892   2.192   5.376   9.715 -0.0174  1.2026  0.2210
  106OSM    H7F10893   2.265   5.427   9.782  1.4743 -0.2813 -0.2026
  106OSM    H7G10894   2.121   5.450   9.671 -0.6660 -0.7088 -2.2016
  106OSM    C8F10895   2.273   5.313   9.601 -0.6740 -0.1562  0.4085
  106OSM    H8F10896   2.211   5.229   9.565 -1.2229  1.2102 -2.0248
  106OSM    H8G10897   2.371   5.279   9.641  0.5805  2.4201 -0.2363
  106OSM    C9F10898   2.299   5.417   9.496  0.7015 -0.0905 -0.8381
  106OSM    H9F10899   2.371   5.497   9.523 -0.9724  0.7281  1.4997
  106OSM   C10F10900   2.242   5.432   9.372  0.2562  0.3885  0.0408
  106OSM   H10F10901   2.258   5.524   9.313 -0.7271  1.4956  1.4152
  106OSM   C11F10902   2.139   5.338   9.313 -0.1578  0.0071  0.0856
  106OSM   H11F10903   2.034   5.361   9.342 -0.3276  1.1839 -1.3202
  106OSM   H11G10904   2.157   5.240   9.362  1.1562  0.3562  0.3329
  106OSM   C12F10905   2.151   5.314   9.161  0.7373 -0.1103 -0.2344
  106OSM   H12F10906   2.145   5.409   9.105  2.4966 -0.5669 -1.2934
  106OSM   H12G10907   2.072   5.238   9.138  0.2093  0.5158 -0.5149
  106OSM   C13F10908   2.285   5.244   9.131 -0.2014  0.4091 -0.6560
  106OSM   H13F10909   2.300   5.152   9.190  1.5279  0.6052 -0.7582
  106OSM   H13G10910   2.359   5.317   9.170 -0.3940 -0.2925  1.1444
  106OSM   C14F10911   2.313   5.216   8.983  0.8712  0.0172  0.2813
  106OSM   H14F10912   2.421   5.198   8.965  0.7491 -1.5611  0.9624
  106OSM   H14G10913   2.279   5.309   8.931  1.0333  0.3172  0.6982
  106OSM   C15F10914   2.227   5.093   8.945  0.4009  0.1298 -0.3650
  106OSM   H15F10915   2.121   5.121   8.963  0.4231  0.1285 -0.2337
  106OSM   H15G10916   2.252   5.010   9.014 -3.5542  1.3442  2.8698
  106OSM   C16F10917   2.233   5.065   8.801 -0.3725 -0.5181  0.2218
  106OSM   H16F10918   2.255   5.160   8.748  0.3416 -0.0527  1.3341
  106OSM   H16G10919   2.144   5.019   8.753 -1.0973  1.2877 -0.2602
  106OSM   C17F10920   2.345   4.966   8.782 -0.6001  0.7444 -0.2957
  106OSM   H17F10921   2.297   4.866   8.780 -2.3153  1.3014  3.8243
  106OSM   H17G10922   2.423   4.960   8.861 -0.5594 -1.0501 -0.4193
  106OSM   C18F10923   2.420   4.975   8.648  0.3731  0.1145 -0.3333
  106OSM   H18F10924   2.348   4.970   8.563  0.2495  1.0785 -0.2915
  106OSM   H18G10925   2.482   4.883   8.643 -0.9738 -0.8019 -0.9745
  106OSM   H18H10926   2.475   5.071   8.639 -1.8394  1.4819 -0.0523
  107OSM      N10927   4.917   1.223  11.092  0.6780  0.1093  0.5857
  107OSM    C1510928   5.043   1.150  11.100 -0.2741  0.0541  0.2365
  107OSM   H15A10929   5.109   1.178  11.181  1.3162 -1.5565 -0.4397
  107OSM   H15B10930   5.104   1.168  11.013  1.6427  0.1398  1.5261
  107OSM   H15C10931   5.013   1.046  11.101 -0.5185  0.0923  2.2235
  107OSM    C1410932   4.833   1.174  11.207 -0.1765  0.1735  0.2390
  107OSM   H14A10933   4.747   1.236  11.225 -2.6529 -3.5825  3.1021
  107OSM   H14B10934   4.881   1.169  11.303  0.1328  0.6402  0.1107
  107OSM   H14C10935   4.795   1.075  11.185  0.2140  0.2691 -0.9560
  107OSM    C1310936   4.929   1.369  11.114 -0.3687  0.2060 -0.4933
  107OSM   H13A10937   4.839   1.426  11.131  1.4113  3.3670 -0.7716
  107OSM   H13B10938   4.982   1.415  11.032 -0.1250  1.0691  0.1214
  107OSM   H13C10939   4.991   1.400  11.197  0.7303 -0.0501 -1.2025
  107OSM    C1210940   4.853   1.192  10.953 -0.3424 -0.4531 -0.2695
  107OSM   H12A10941   4.924   1.223  10.878 -1.4563 -1.4537 -1.7999
  107OSM   H12B10942   4.765   1.254  10.941  0.3719  0.6752  0.1329
  107OSM    C1110943   4.809   1.047  10.932 -0.2368 -0.2569  0.7524
  107OSM   H11A10944   4.895   0.978  10.949 -1.0420 -1.1697  1.2264
  107OSM   H11B10945   4.782   1.047  10.825  0.6552  0.2872  0.5116
  107OSM      P10946   4.651   0.879  11.056 -0.2978 -0.4658 -0.0336
  107OSM    O1310947   4.734   0.840  11.167 -0.0995  0.2295  0.3948
  107OSM    O1410948   4.508   0.860  11.072  0.0869  0.3532 -0.5892
  107OSM    O1110949   4.684   0.805  10.924 -0.4494 -0.0993 -0.0789
  107OSM    O1210950   4.693   1.023  11.012  0.1565  0.1059 -0.1498
  107OSM    C1S10951   4.595   0.798  10.812 -0.0827 -0.6141 -0.7956
  107OSM    H1S10952   4.523   0.882  10.809  1.6888  0.9884 -0.7973
  107OSM    H1T10953   4.545   0.699  10.805  1.7714 -1.6957  0.3116
  107OSM     NF10954   4.585   0.849  10.561 -0.4123  0.9506 -0.1289
  107OSM    HNF10955   4.560   0.770  10.506  0.1337 -0.1000  1.0829
  107OSM    C2S10956   4.675   0.823  10.676 -0.8099  0.3182 -0.0212
  107OSM    H2S10957   4.746   0.908  10.674 -1.3969  0.8063 -1.3137
  107OSM    C3S10958   4.764   0.698  10.657 -1.0700  0.4024 -0.5147
  107OSM    H3S10959   4.695   0.612  10.655 -0.9581  0.2621 -3.6437
  107OSM     O310960   4.853   0.688  10.768  0.0131  0.4756  0.4467
  107OSM    HO310961   4.801   0.722  10.841  0.9656  1.0403  0.8907
  107OSM    C4S10962   4.849   0.691  10.530 -0.2016 -0.0637  0.1548
  107OSM    H4S10963   4.948   0.739  10.533 -0.4574  0.7402 -1.9148
  107OSM    C5S10964   4.815   0.629  10.414 -0.3170 -0.1263  0.1524
  107OSM    H5S10965   4.734   0.554  10.419  1.6626 -2.4282 -0.1474
  107OSM    C6S10966   4.910   0.631  10.292 -0.1262  0.7118 -0.8325
  107OSM    H6S10967   4.939   0.526  10.269 -2.7752 -0.2322 -0.2929
  107OSM    H6T10968   4.998   0.698  10.300  1.1279 -0.9863  0.1941
  107OSM    C7S10969   4.828   0.673  10.173 -0.7239 -0.2428  0.8899
  107OSM    H7S10970   4.771   0.766  10.194 -1.7949 -0.7447  0.2843
  107OSM    H7T10971   4.747   0.605  10.139  0.6519 -0.7818 -1.5302
  107OSM    C8S10972   4.914   0.705  10.043 -0.0115  0.7630 -0.2548
  107OSM    H8S10973   4.961   0.609  10.013 -0.9126  0.2543 -0.0615
  107OSM    H8T10974   4.996   0.778  10.065  1.1183 -0.4098 -0.4828
  107OSM    C9S10975   4.839   0.749   9.918  0.3506 -0.8813 -0.5860
  107OSM    H9S10976   4.769   0.834   9.933 -0.2516 -1.3436 -0.7553
  107OSM    H9T10977   4.774   0.666   9.886  0.9380 -1.1506 -1.1141
  107OSM   C10S10978   4.930   0.781   9.798  0.5545 -0.3589  0.1276
  107OSM   H10S10979   4.980   0.688   9.763 -0.3239 -0.4816 -0.8480
  107OSM   H10T10980   5.007   0.857   9.824 -0.0672  0.9074 -1.5888
  107OSM   C11S10981   4.857   0.835   9.680  0.1453  0.0973  0.1608
  107OSM   H11S10982   4.836   0.943   9.694  3.3519  0.7835  0.3497
  107OSM   H11T10983   4.762   0.777   9.683 -0.6347  1.3275  0.3100
  107OSM   C12S10984   4.928   0.826   9.551  0.5496 -0.5329 -0.0871
  107OSM   H12S10985   5.029   0.873   9.557 -0.3380  1.7281 -1.6108
  107OSM   H12T10986   4.873   0.896   9.484  1.4574 -0.3390 -0.6490
  107OSM   C13S10987   4.934   0.689   9.480  0.5948 -0.2596  0.0873
  107OSM   H13S10988   4.829   0.652   9.479  0.2284  0.6506  1.6893
  107OSM   H13T10989   4.993   0.615   9.539 -0.3039  0.5344  2.0627
  107OSM   C14S10990   4.987   0.693   9.342  0.7543 -0.1966  0.8264
  107OSM   H14S10991   5.082   0.750   9.351  0.0197  1.3858 -0.8925
  107OSM   H14T10992   4.920   0.761   9.286  0.2038 -0.4046  1.2274
  107OSM   C15S10993   5.011   0.556   9.266 -0.2787  0.4186 -0.6489
  107OSM   H15S10994   4.923   0.491   9.285 -0.2308  0.8130  1.1139
  107OSM   H15T10995   5.097   0.509   9.318 -1.2420  1.0517  1.6799
  107OSM   C16S10996   5.040   0.563   9.113 -0.3971  0.5323 -0.1057
  107OSM   H16S10997   5.134   0.620   9.102  0.3485 -0.4212  0.9901
  107OSM   H16T10998   4.962   0.619   9.058 -1.5721 -0.3209  0.6194
  107OSM   C17S10999   5.039   0.425   9.051  0.5244  0.7992 -0.1412
  107OSM   H17S11000   4.944   0.369   9.061 -0.3338  1.7311 -2.5051
  107OSM   H17T11001   5.116   0.365   9.105 -0.1488 -2.0413 -2.1256
  107OSM   C18S11002   5.080   0.419   8.903  0.5056 -0.8917 -0.5847
  107OSM   H18S11003   5.075   0.310   8.880  1.1566 -1.0451 -0.0419
  107OSM   H18T11004   5.182   0.461   8.890  0.8498 -0.5555  2.4204
  107OSM   H18U11005   5.008   0.480   8.844  0.6914  0.1455  0.2303
  107OSM    C1F11006   4.524   0.966  10.555 -0.0716  0.2187  0.0527
  107OSM     OF11007   4.561   1.059  10.628  0.1002 -0.1131  0.3554
  107OSM    C2F11008   4.426   0.995  10.446 -0.0576  0.6510 -0.1040
  107OSM    H2F11009   4.427   0.897  10.392 -0.8246 -0.0570  1.1192
  107OSM    H2G11010   4.449   1.083  10.383 -0.4944  1.0410  0.2756
  107OSM    C3F11011   4.281   1.031  10.498 -0.2165  0.3499  0.9479
  107OSM    H3F11012   4.285   1.136  10.536  0.7090 -0.0294  1.9677
  107OSM    H3G11013   4.245   0.958  10.573 -4.4804  1.9208  0.6893
  107OSM    C4F11014   4.174   1.006  10.393  0.0472  0.1710  0.8768
  107OSM    H4F11015   4.191   1.081  10.313  3.3904 -2.2277 -0.9194
  107OSM    H4G11016   4.069   1.032  10.420 -0.9637  0.4331 -2.8308
  107OSM    C5F11017   4.163   0.868  10.325 -0.1322  0.1875  0.2497
  107OSM    H5F11018   4.165   0.790  10.404 -1.3734  1.3403  1.4555
  107OSM    H5G11019   4.257   0.865  10.266  0.0559  0.3774  0.5395
  107OSM    C6F11020   4.039   0.851  10.240  0.2730 -0.4752 -0.1653
  107OSM    H6F11021   3.949   0.833  10.304 -0.2175 -1.8742 -1.2135
  107OSM    H6G11022   4.059   0.762  10.176 -0.2876 -0.3371 -0.5380
  107OSM    C7F11023   3.990   0.972  10.153 -0.2011 -0.4237  0.0080
  107OSM    H7F11024   4.083   1.016  10.111 -0.2915  0.6893  0.9301
  107OSM    H7G11025   3.935   1.048  10.213 -1.8770  1.7784 -3.9487
  107OSM    C8F11026   3.893   0.929  10.038  0.6701  0.1371  0.3272
  107OSM    H8F11027   3.837   1.022  10.014 -0.0576  0.6021  3.4300
  107OSM    H8G11028   3.817   0.854  10.069  1.4124 -0.8164 -0.0781
  107OSM    C9F11029   3.964   0.869   9.920  0.6092 -0.2605  0.3745
  107OSM    H9F11030   4.004   0.766   9.925  0.5750 -0.3011 -0.1222
  107OSM   C10F11031   3.970   0.926   9.793 -0.4412  0.7228 -0.5851
  107OSM   H10F11032   4.032   0.879   9.716 -0.6587  1.4138 -1.1935
  107OSM   C11F11033   3.916   1.060   9.763  0.2102 -0.2720  0.8267
  107OSM   H11F11034   3.980   1.136   9.812  1.0493 -0.6053  0.2703
  107OSM   H11G11035   3.820   1.077   9.817  0.7828 -0.8014  2.0543
  107OSM   C12F11036   3.900   1.113   9.616  0.1103 -0.4002 -0.2567
  107OSM   H12F11037   3.997   1.094   9.565  0.3108 -0.3599  0.1027
  107OSM   H12G11038   3.880   1.222   9.625 -0.5125 -0.3921 -1.4765
  107OSM   C13F11039   3.786   1.042   9.542 -0.2603 -0.5603  0.1618
  107OSM   H13F11040   3.685   1.062   9.583 -0.9699 -1.0317 -1.3009
  107OSM   H13G11041   3.815   0.934   9.545 -1.2770 -0.8302  0.4620
  107OSM   C14F11042   3.789   1.077   9.389 -0.5139  0.1828 -0.0208
  107OSM   H14F11043   3.893   1.066   9.351 -0.3602 -1.9996  0.9463
  107OSM   H14G11044   3.760   1.179   9.353  1.3039  0.2187 -1.6035
  107OSM   C15F11045   3.705   0.981   9.309  0.5407 -0.5558 -0.2488
  107OSM   H15F11046   3.737   0.880   9.345  1.3000 -0.3042 -0.2031
  107OSM   H15G11047   3.732   1.008   9.205  2.4297  2.5561  0.9211
  107OSM   C16F11048   3.551   0.981   9.343 -0.1411  0.4585 -0.6617
  107OSM   H16F11049   3.517   1.077   9.298 -0.9010  0.0159 -1.0327
  107OSM   H16G11050   3.548   0.980   9.454 -1.0108 -1.6828 -0.6690
  107OSM   C17F11051   3.469   0.855   9.291  0.5433 -0.1386 -0.6665
  107OSM   H17F11052   3.361   0.883   9.288  1.0662  2.7477  2.1090
  107OSM   H17G11053   3.491   0.771   9.361  0.3279 -0.4465 -0.9692
  107OSM   C18F11054   3.505   0.822   9.147 -0.0607 -0.0498 -0.2226
  107OSM   H18F11055   3.476   0.716   9.132 -0.1827  0.1661 -1.6865
  107OSM   H18G11056   3.615   0.823   9.137 -0.1234  0.4094 -0.9742
  107OSM   H18H11057   3.461   0.894   9.074  0.3563 -0.6154 -1.0472
  108OSM      N11058   1.368   5.989  11.108 -0.7093 -0.4207  0.4273
  108OSM    C1511059   1.236   5.982  11.175  0.7937 -0.7293 -0.3026
  108OSM   H15A11060   1.186   5.901  11.124  1.4512 -2.4654  1.6658
  108OSM   H15B11061   1.181   6.074  11.171  0.0342 -1.1312  0.5667
  108OSM   H15C11062   1.248   5.952  11.278 -2.0525  0.1868  0.3900
  108OSM    C1411063   1.353   6.033  10.970  1.0587 -0.4583  0.1967
  108OSM   H14A11064   1.452   6.028  10.927  0.9744  0.1771 -0.0792
  108OSM   H14B11065   1.326   6.138  10.960 -0.8710 -0.9252  0.1570
  108OSM   H14C11066   1.283   5.982  10.908 -0.3999 -2.5765  3.3227
  108OSM    C1311067   1.454   6.083  11.182  1.0544 -0.2217 -0.2487
  108OSM   H13A11068   1.413   6.182  11.170  0.5086 -0.6759 -2.8026
  108OSM   H13B11069   1.552   6.088  11.136  1.4796 -1.5768  0.4664
  108OSM   H13C11070   1.463   6.051  11.284 -0.1672 -1.2858 -0.4559
  108OSM    C1211071   1.446   5.855  11.122  0.4545  0.3552  0.2109
  108OSM   H12A11072   1.420   5.825  11.222 -2.9818  4.3425  0.8147
  108OSM   H12B11073   1.551   5.856  11.101 -0.3134 -0.3521 -4.8508
  108OSM    C1111074   1.398   5.749  11.021 -0.2943  1.9572 -0.2749
  108OSM   H11A11075   1.423   5.784  10.919 -1.6976  0.1660 -1.2805
  108OSM   H11B11076   1.289   5.744  11.043 -0.0738 -1.4530  0.6171
  108OSM      P11077   1.581   5.565  10.983  0.1698  0.1459 -0.1011
  108OSM    O1311078   1.702   5.653  10.997 -0.1617  0.1114  0.7203
  108OSM    O1411079   1.597   5.430  11.035  0.4247 -0.4938 -0.1082
  108OSM    O1111080   1.541   5.548  10.828 -0.4496 -0.0181 -0.5108
  108OSM    O1211081   1.456   5.617  11.052  0.2051  0.2008  0.2287
  108OSM    C1S11082   1.632   5.594  10.725 -0.3339  0.3837 -0.6836
  108OSM    H1S11083   1.738   5.586  10.758 -0.5585  0.9625  0.1813
  108OSM    H1T11084   1.601   5.692  10.684 -1.7259  0.5637  0.6939
  108OSM     NF11085   1.719   5.554  10.486 -0.1068  0.0095 -0.1753
  108OSM    HNF11086   1.660   5.580  10.410 -1.2112 -1.0735  0.2729
  108OSM    C2S11087   1.636   5.501  10.598 -0.2839 -0.1464  0.2160
  108OSM    H2S11088   1.676   5.409  10.644 -0.0821 -0.7116 -1.0343
  108OSM    C3S11089   1.494   5.466  10.551 -0.5712 -0.0007 -0.2785
  108OSM    H3S11090   1.435   5.559  10.533  0.7708  1.5351  2.5289
  108OSM     O311091   1.416   5.407  10.653 -0.2387  0.1441 -0.6308
  108OSM    HO311092   1.465   5.431  10.732 -1.5977 -0.8264  0.5661
  108OSM    C4S11093   1.501   5.371  10.429 -0.6791 -0.2949 -0.2610
  108OSM    H4S11094   1.541   5.273  10.457 -2.2557 -0.9815 -0.3435
  108OSM    C5S11095   1.465   5.393  10.303  0.9609 -0.5375  0.0101
  108OSM    H5S11096   1.417   5.486  10.272  0.9941 -0.0064  1.4559
  108OSM    C6S11097   1.471   5.301  10.193 -0.5534  0.6454 -0.4064
  108OSM    H6S11098   1.369   5.292  10.149 -0.6146 -1.3830  0.0405
  108OSM    H6T11099   1.494   5.200  10.234 -1.0249  0.2494 -1.0931
  108OSM    C7S11100   1.588   5.354  10.097  0.4706  0.3181  0.8965
  108OSM    H7S11101   1.687   5.368  10.147 -0.5736  1.8970  2.6471
  108OSM    H7T11102   1.556   5.455  10.063  1.1232  0.3990  0.5079
  108OSM    C8S11103   1.604   5.267   9.971 -0.5182  0.6444  0.5796
  108OSM    H8S11104   1.508   5.234   9.927 -0.7274  0.2885  1.2860
  108OSM    H8T11105   1.648   5.173  10.011 -2.2255  0.3631  1.9007
  108OSM    C9S11106   1.688   5.333   9.860 -0.2825  0.0535  0.2127
  108OSM    H9S11107   1.775   5.266   9.844  0.4199  0.8118  0.7853
  108OSM    H9T11108   1.722   5.433   9.893  3.8865 -1.1063 -0.1057
  108OSM   C10S11109   1.620   5.346   9.723  0.5028  0.2264 -0.8508
  108OSM   H10S11110   1.588   5.452   9.715  2.8152  1.1242  0.6478
  108OSM   H10T11111   1.524   5.290   9.724 -0.2575  1.4741  0.9714
  108OSM   C11S11112   1.701   5.313   9.604  0.0749 -0.0264 -0.0837
  108OSM   H11S11113   1.715   5.202   9.602 -1.0941 -0.2659  2.1105
  108OSM   H11T11114   1.800   5.363   9.613  0.2167 -0.3623  0.2309
  108OSM   C12S11115   1.634   5.360   9.471  0.4354 -0.3354 -0.6003
  108OSM   H12S11116   1.611   5.468   9.482  0.9504 -0.3265  0.4642
  108OSM   H12T11117   1.530   5.322   9.462 -0.0153  0.3063  1.4046
  108OSM   C13S11118   1.698   5.319   9.346  0.4164  0.2870 -0.2176
  108OSM   H13S11119   1.714   5.209   9.351  1.0236  0.4388  2.5179
  108OSM   H13T11120   1.799   5.363   9.338  0.0976  0.8141 -1.8163
  108OSM   C14S11121   1.612   5.356   9.227 -0.4137  0.9675  0.5384
  108OSM   H14S11122   1.590   5.465   9.226 -1.4397  0.8376 -2.6032
  108OSM   H14T11123   1.511   5.310   9.228 -0.4267  0.6649 -2.8053
  108OSM   C15S11124   1.668   5.294   9.099 -0.9745 -0.6143  0.8016
  108OSM   H15S11125   1.592   5.278   9.020  0.7612  0.0580 -1.0899
  108OSM   H15T11126   1.701   5.192   9.128  3.1139  0.0043 -0.9753
  108OSM   C16S11127   1.783   5.379   9.048 -0.3586  0.0151 -0.0739
  108OSM   H16S11128   1.860   5.368   9.127 -1.8845  2.2462  1.8710
  108OSM   H16T11129   1.753   5.485   9.031 -1.8230 -0.7249 -2.6015
  108OSM   C17S11130   1.836   5.325   8.914  0.0657 -0.2791  0.0467
  108OSM   H17S11131   1.749   5.270   8.873 -0.3006  0.1472  0.2550
  108OSM   H17T11132   1.919   5.252   8.928 -0.2180 -1.2138 -2.5105
  108OSM   C18S11133   1.874   5.425   8.804  0.1594  0.2037 -0.2608
  108OSM   H18S11134   1.969   5.474   8.833  0.2336  0.6676 -1.2472
  108OSM   H18T11135   1.794   5.502   8.798  0.5021  0.8539  2.2906
  108OSM   H18U11136   1.900   5.371   8.711  1.6842  0.7048 -0.1592
  108OSM    C1F11137   1.852   5.558  10.485 -0.0848 -0.2851  0.4999
  108OSM     OF11138   1.915   5.545  10.587  0.2307 -0.2199 -0.1471
  108OSM    C2F11139   1.917   5.582  10.350 -0.9992 -0.0897  0.5090
  108OSM    H2F11140   1.965   5.682  10.345 -3.0594  0.9111 -0.9493
  108OSM    H2G11141   1.840   5.571  10.271 -2.9447  0.8876  2.1675
  108OSM    C3F11142   2.035   5.491  10.336 -0.4619  0.5820 -0.4110
  108OSM    H3F11143   1.996   5.388  10.348 -0.0086  0.3587 -0.8217
  108OSM    H3G11144   2.102   5.502  10.424 -0.0964 -0.1945 -0.5890
  108OSM    C4F11145   2.100   5.484  10.197 -0.1815 -0.7740  0.0966
  108OSM    H4F11146   2.024   5.490  10.116  0.1896  0.0212 -0.2060
  108OSM    H4G11147   2.152   5.388  10.177  1.8233 -0.5131  3.3642
  108OSM    C5F11148   2.204   5.598  10.187 -0.8144 -0.1669  0.1007
  108OSM    H5F11149   2.281   5.587  10.266 -1.9183  2.3215  1.6562
  108OSM    H5G11150   2.150   5.692  10.211  1.1555  1.2515 -0.7442
  108OSM    C6F11151   2.268   5.596  10.048 -0.1938 -0.8799  0.5933
  108OSM    H6F11152   2.190   5.565   9.975  0.1308 -0.5234  0.0813
  108OSM    H6G11153   2.346   5.518  10.040  1.1208  0.5102 -1.4614
  108OSM    C7F11154   2.332   5.734  10.011 -0.0790 -0.1993  0.4165
  108OSM    H7F11155   2.411   5.745  10.088  0.6044 -1.3998 -0.0810
  108OSM    H7G11156   2.262   5.820  10.009  1.3189  0.9800  0.1885
  108OSM    C8F11157   2.391   5.735   9.862 -0.2104 -0.4197 -0.0838
  108OSM    H8F11158   2.314   5.711   9.786  1.2371 -0.4793 -1.6065
  108OSM    H8G11159   2.456   5.646   9.851 -1.1567 -1.1407  0.0484
  108OSM    C9F11160   2.464   5.870   9.845  0.3531  0.4342 -0.0880
  108OSM    H9F11161   2.482   5.939   9.928  0.5385  0.3102 -0.0252
  108OSM   C10F11162   2.507   5.908   9.729  0.9704  0.2877  0.2096
  108OSM   H10F11163   2.545   6.010   9.718  2.7075 -0.0811  2.0777
  108OSM   C11F11164   2.508   5.820   9.606  0.1246 -0.4516 -0.0107
  108OSM   H11F11165   2.516   5.712   9.632  1.2820 -0.0377  1.4654
  108OSM   H11G11166   2.606   5.844   9.559  0.8245 -1.4792  0.8689
  108OSM   C12F11167   2.391   5.848   9.508  0.0777 -0.4065 -0.0787
  108OSM   H12F11168   2.381   5.946   9.456  0.6534 -1.4675 -2.3480
  108OSM   H12G11169   2.295   5.818   9.555 -0.6213  0.2587 -1.0403
  108OSM   C13F11170   2.418   5.761   9.387  0.1833  0.3825  0.1061
  108OSM   H13F11171   2.323   5.749   9.330 -0.0783  3.1936 -0.1917
  108OSM   H13G11172   2.450   5.658   9.416  4.6061  0.8775 -2.2306
  108OSM   C14F11173   2.520   5.810   9.281  0.5340 -0.0260 -0.0070
  108OSM   H14F11174   2.530   5.728   9.206  1.1358 -0.9888  1.1060
  108OSM   H14G11175   2.618   5.823   9.331  0.8875 -1.5533 -0.2474
  108OSM   C15F11176   2.474   5.931   9.197 -0.4982  0.5710 -0.0222
  108OSM   H15F11177   2.439   6.004   9.272 -0.9563  1.3474 -0.9731
  108OSM   H15G11178   2.382   5.904   9.142 -2.3037  0.3782  2.9075
  108OSM   C16F11179   2.590   5.988   9.118 -0.4154 -0.3282  0.2022
  108OSM   H16F11180   2.629   5.904   9.056  1.7158 -0.6890  1.8934
  108OSM   H16G11181   2.675   6.013   9.185  0.7928 -2.1847 -0.5510
  108OSM   C17F11182   2.563   6.101   9.024  0.1858 -0.0541 -0.2668
  108OSM   H17F11183   2.657   6.154   8.995  1.1624  0.1565  2.8809
  108OSM   H17G11184   2.495   6.174   9.074 -0.8877 -0.3600 -1.2380
  108OSM   C18F11185   2.504   6.046   8.894 -0.7914 -0.1845 -0.8682
  108OSM   H18F11186   2.401   6.007   8.913  1.0650 -5.0136  0.9479
  108OSM   H18G11187   2.574   5.967   8.858 -0.2996 -1.3600  2.3296
  108OSM   H18H11188   2.506   6.131   8.823 -1.5646  1.4282  0.9640
  109OSM      N11189   1.817   0.213  10.915  0.2237 -0.0221  0.5588
  109OSM    C1511190   1.737   0.342  10.919 -0.1995  0.4161  0.0352
  109OSM   H15A11191   1.715   0.376  10.819 -4.7699 -2.0220 -0.0335
  109OSM   H15B11192   1.794   0.424  10.959 -0.5119  0.4463  0.4247
  109OSM   H15C11193   1.643   0.324  10.970 -0.2359 -0.7745 -0.4296
  109OSM    C1411194   1.931   0.242  10.830  0.3969 -0.0678  0.0754
  109OSM   H14A11195   2.005   0.163  10.830  0.5942  0.1167  0.2714
  109OSM   H14B11196   1.988   0.326  10.865  2.9038 -0.6815 -2.2321
  109OSM   H14C11197   1.900   0.255  10.727 -2.9953 -2.9889  0.5261
  109OSM    C1311198   1.858   0.177  11.059  0.7168  0.6387  0.2511
  109OSM   H13A11199   1.909   0.259  11.107 -1.0032  1.6791  0.3753
  109OSM   H13B11200   1.925   0.092  11.053  2.1113  1.6052  1.3678
  109OSM   H13C11201   1.774   0.153  11.122  0.5379 -1.0582 -0.5840
  109OSM    C1211202   1.723   0.097  10.864  0.0277 -0.6785 -0.9120
  109OSM   H12A11203   1.635   0.105  10.926  0.6219  1.9506 -0.2780
  109OSM   H12B11204   1.770   0.001  10.881  2.8059  0.6392 -0.6522
  109OSM    C1111205   1.687   0.087  10.723 -0.0703 -0.3439  1.1263
  109OSM   H11A11206   1.638  -0.012  10.708 -2.1984  1.0384 -2.3037
  109OSM   H11B11207   1.777   0.089  10.659 -2.2171 -0.4698 -2.0995
  109OSM      P11208   1.445   0.188  10.742 -0.0759 -0.1901  0.3156
  109OSM    O1311209   1.445   0.116  10.866  0.0322 -0.3217 -0.2559
  109OSM    O1411210   1.389   0.323  10.740 -0.2129 -0.3891  0.1645
  109OSM    O1111211   1.389   0.096  10.627  0.1477  0.2496 -0.4284
  109OSM    O1211212   1.596   0.199  10.685  0.1659  0.2362  0.4696
  109OSM    C1S11213   1.400   0.162  10.497  0.1640  0.1683 -0.5821
  109OSM    H1S11214   1.492   0.127  10.447 -0.7401 -2.5061 -0.5200
  109OSM    H1T11215   1.396   0.273  10.498  0.2544  0.1691 -0.2336
  109OSM     NF11216   1.325   0.140  10.254  0.5286 -0.2229 -0.1922
  109OSM    HNF11217   1.283   0.225  10.223  0.3658 -0.9593 -2.1767
  109OSM    C2S11218   1.285   0.115  10.399 -0.4681  0.0233  0.3677
  109OSM    H2S11219   1.279   0.005  10.412 -0.3568  0.2678  3.1462
  109OSM    C3S11220   1.146   0.168  10.441 -0.1445 -0.3863  0.1680
  109OSM    H3S11221   1.142   0.278  10.426  0.5855 -0.5083 -1.1302
  109OSM     O311222   1.105   0.149  10.575 -0.1625 -0.1111  0.0697
  109OSM    HO311223   1.190   0.127  10.613  0.5557  0.8244 -0.9525
  109OSM    C4S11224   1.042   0.102  10.366 -0.1358 -0.5429  0.1155
  109OSM    H4S11225   1.027  -0.006  10.381  0.0330 -0.8614 -1.7946
  109OSM    C5S11226   0.938   0.155  10.303  0.5213 -0.5227  0.0415
  109OSM    H5S11227   0.929   0.264  10.300 -0.8469 -0.5673  1.4535
  109OSM    C6S11228   0.834   0.076  10.233  0.2257  0.4089  0.1171
  109OSM    H6S11229   0.729   0.099  10.263  0.9775  1.8412  1.8214
  109OSM    H6T11230   0.848  -0.032  10.250  1.2307 -0.2571 -3.9050
  109OSM    C7S11231   0.829   0.088  10.083  0.4513 -0.5116  0.2334
  109OSM    H7S11232   0.928   0.100  10.035 -0.0705 -1.9699 -1.3006
  109OSM    H7T11233   0.769   0.172  10.042 -0.1152 -1.3627 -0.7326
  109OSM    C8S11234   0.745  -0.030  10.027 -0.9986 -0.6351  0.2928
  109OSM    H8S11235   0.669  -0.069  10.098 -0.4085 -1.7643  0.3372
  109OSM    H8T11236   0.813  -0.116  10.006 -2.0028 -1.7009  1.2449
  109OSM    C9S11237   0.691   0.012   9.886  0.5367  0.4647 -0.6272
  109OSM    H9S11238   0.624   0.101   9.888  0.0530  0.1518 -1.8735
  109OSM    H9T11239   0.639  -0.075   9.841 -0.2430  0.1311  0.8603
  109OSM   C10S11240   0.803   0.045   9.786 -0.1288  0.8359  0.3650
  109OSM   H10S11241   0.862  -0.047   9.768 -1.6358 -0.0275 -0.4452
  109OSM   H10T11242   0.873   0.129   9.805 -0.3422  1.6092 -1.9138
  109OSM   C11S11243   0.737   0.082   9.657  0.1761 -0.0960 -0.6450
  109OSM   H11S11244   0.671   0.168   9.677  1.7005  1.1123 -0.6112
  109OSM   H11T11245   0.689  -0.009   9.616 -0.9530  0.7036 -1.1248
  109OSM   C12S11246   0.839   0.139   9.569 -0.4136  0.6164  0.1785
  109OSM   H12S11247   0.921   0.067   9.549 -0.4693  0.4898  0.4063
  109OSM   H12T11248   0.895   0.225   9.613  0.7607 -0.3673  0.6642
  109OSM   C13S11249   0.779   0.190   9.428  0.2511  0.4955 -0.8924
  109OSM   H13S11250   0.739   0.291   9.451  1.1360  0.5640  0.4848
  109OSM   H13T11251   0.692   0.125   9.406  0.6741  0.3348 -2.1834
  109OSM   C14S11252   0.873   0.183   9.317 -0.1632 -0.0461 -0.1369
  109OSM   H14S11253   0.928   0.088   9.327 -2.0435 -1.3552 -1.6706
  109OSM   H14T11254   0.951   0.262   9.327  0.4284 -0.8435  2.0933
  109OSM   C15S11255   0.804   0.189   9.183 -0.7030  0.4531 -0.5638
  109OSM   H15S11256   0.722   0.264   9.187 -0.6398  0.5476 -1.0247
  109OSM   H15T11257   0.741   0.097   9.176 -1.4232  0.9540 -0.7928
  109OSM   C16S11258   0.883   0.191   9.059 -0.0550 -0.1772  0.1154
  109OSM   H16S11259   0.945   0.098   9.057  1.5215  0.8507 -0.6676
  109OSM   H16T11260   0.946   0.282   9.051  1.8518 -1.4039  0.5293
  109OSM   C17S11261   0.797   0.177   8.939  0.0508 -0.0704  0.5877
  109OSM   H17S11262   0.743   0.274   8.931 -0.9455 -0.6870 -0.4506
  109OSM   H17T11263   0.723   0.095   8.948  2.2825 -2.1773  0.6975
  109OSM   C18S11264   0.877   0.166   8.809  0.4159  0.5027 -0.2695
  109OSM   H18S11265   0.807   0.145   8.725 -1.6641  0.6356  1.3519
  109OSM   H18T11266   0.953   0.085   8.815  0.7595  0.7967 -0.5725
  109OSM   H18U11267   0.939   0.254   8.781  0.3237  0.3925 -0.8223
  109OSM    C1F11268   1.429   0.091  10.191 -0.4020 -0.6442  0.7135
  109OSM     OF11269   1.507   0.009  10.232 -0.0430 -0.2430 -0.2620
  109OSM    C2F11270   1.467   0.155  10.065 -0.0937  0.2319  0.4831
  109OSM    H2F11271   1.576   0.176  10.064  0.0565 -0.2707  2.2941
  109OSM    H2G11272   1.403   0.245  10.052 -3.2516 -2.2041 -3.6271
  109OSM    C3F11273   1.433   0.070   9.942  0.1113  0.3914 -0.0166
  109OSM    H3F11274   1.474  -0.032   9.952 -0.5696  0.1510  0.3548
  109OSM    H3G11275   1.496   0.114   9.861 -0.3723 -0.6174 -0.9615
  109OSM    C4F11276   1.281   0.053   9.904 -0.3582 -0.3975  0.3080
  109OSM    H4F11277   1.223   0.142   9.871 -3.1634 -1.8306  1.0391
  109OSM    H4G11278   1.230   0.033  10.000  0.7216 -1.1120  0.7479
  109OSM    C5F11279   1.253  -0.058   9.801 -0.6508  0.2173 -0.3624
  109OSM    H5F11280   1.144  -0.074   9.796 -0.8421  1.5678 -1.2493
  109OSM    H5G11281   1.306  -0.150   9.832  0.7649 -0.1887 -3.5372
  109OSM    C6F11282   1.295  -0.016   9.663 -0.0081  0.1292  0.0111
  109OSM    H6F11283   1.405  -0.003   9.672  0.3472 -2.0705 -0.6121
  109OSM    H6G11284   1.251   0.084   9.643  0.4256  1.2233  3.7327
  109OSM    C7F11285   1.271  -0.128   9.558 -0.3062 -0.0629 -0.3060
  109OSM    H7F11286   1.165  -0.159   9.566 -0.0108 -0.8003  1.1838
  109OSM    H7G11287   1.339  -0.214   9.577 -0.6391 -0.5478 -1.2585
  109OSM    C8F11288   1.299  -0.071   9.421 -0.2421 -0.5474 -0.6339
  109OSM    H8F11289   1.383  -0.002   9.398  0.4450 -1.5755 -1.2861
  109OSM    H8G11290   1.210  -0.008   9.397  0.9105  1.2549 -0.4057
  109OSM    C9F11291   1.312  -0.179   9.317  0.1767  0.1096 -0.5588
  109OSM    H9F11292   1.353  -0.275   9.349  1.0006 -0.0864 -2.1127
  109OSM   C10F11293   1.267  -0.175   9.185 -0.0826  0.6187 -0.1185
  109OSM   H10F11294   1.282  -0.263   9.120  3.8783 -0.0427  1.4194
  109OSM   C11F11295   1.203  -0.053   9.124  0.0905  0.2607  0.9644
  109OSM   H11F11296   1.221   0.033   9.192  2.6565  0.1116  0.5719
  109OSM   H11G11297   1.095  -0.073   9.108 -0.0020  2.3216 -1.7803
  109OSM   C12F11298   1.260  -0.012   8.990 -0.6123  0.0225  0.8688
  109OSM   H12F11299   1.370  -0.007   8.976 -0.7290 -0.4056 -0.2721
  109OSM   H12G11300   1.214   0.084   8.959 -0.2990 -0.2650 -0.5643
  109OSM   C13F11301   1.200  -0.098   8.876  0.0725  0.1548 -0.2079
  109OSM   H13F11302   1.090  -0.082   8.869  0.2209  1.0807 -0.5491
  109OSM   H13G11303   1.230  -0.204   8.890 -0.0791  0.0960 -0.3194
  109OSM   C14F11304   1.251  -0.042   8.743 -0.4177 -0.1695  0.1296
  109OSM   H14F11305   1.358  -0.016   8.755 -0.8704  1.4330  1.0626
  109OSM   H14G11306   1.199   0.056   8.737  0.6878  0.3893 -0.4813
  109OSM   C15F11307   1.232  -0.116   8.603  0.1145 -0.3092  0.1591
  109OSM   H15F11308   1.194  -0.219   8.619  0.1483 -0.3754 -0.1907
  109OSM   H15G11309   1.327  -0.134   8.549 -1.0482 -2.3472 -1.3383
  109OSM   C16F11310   1.118  -0.037   8.532 -0.5139  0.4692 -0.9735
  109OSM   H16F11311   1.033  -0.017   8.600 -1.5306 -0.9998 -1.7506
  109OSM   H16G11312   1.090  -0.108   8.451  0.8967 -0.4842 -0.6781
  109OSM   C17F11313   1.164   0.104   8.472 -0.5341 -0.2476 -0.1632
  109OSM   H17F11314   1.161   0.178   8.554  1.7774  0.0881 -0.3046
  109OSM   H17G11315   1.089   0.149   8.404 -1.1733 -1.1006 -0.0508
  109OSM   C18F11316   1.303   0.106   8.414 -0.3486  0.4524 -0.5298
  109OSM   H18F11317   1.381   0.122   8.492 -1.0696  2.3038 -0.1329
  109OSM   H18G11318   1.300   0.193   8.345  1.3352  0.4488 -0.6549
  109OSM   H18H11319   1.311   0.005   8.367  2.5509  1.2688 -2.0430
  110OSM      N11320   2.289   0.887  11.189 -0.4244 -0.4932  0.2710
  110OSM    C1511321   2.193   0.772  11.214  0.2706 -0.3686 -0.1585
  110OSM   H15A11322   2.208   0.707  11.129  0.8718  0.1201 -0.4307
  110OSM   H15B11323   2.091   0.806  11.217 -0.5656 -2.7246  1.6845
  110OSM   H15C11324   2.218   0.723  11.308 -0.7362 -0.8141 -0.1069
  110OSM    C1411325   2.264   0.988  11.298  0.3919 -0.7558  0.3946
  110OSM   H14A11326   2.165   1.031  11.294  0.9145  0.5590  0.9948
  110OSM   H14B11327   2.327   1.075  11.283 -1.9231  0.8744 -0.5216
  110OSM   H14C11328   2.286   0.949  11.396 -0.7715 -2.9424 -0.1508
  110OSM    C1311329   2.432   0.840  11.209  0.7209  0.5219 -0.4865
  110OSM   H13A11330   2.507   0.918  11.211  0.8656  0.3915  2.0895
  110OSM   H13B11331   2.454   0.768  11.131 -0.1681 -0.5228  0.2022
  110OSM   H13C11332   2.440   0.784  11.301  0.8316  1.1494 -0.1095
  110OSM    C1211333   2.270   0.946  11.050 -0.2545 -0.9962 -0.7918
  110OSM   H12A11334   2.338   1.030  11.043  0.3851 -1.4101  0.2029
  110OSM   H12B11335   2.173   0.993  11.041  0.1212 -0.0772 -0.2556
  110OSM    C1111336   2.284   0.847  10.932 -0.3059 -0.2785  0.3624
  110OSM   H11A11337   2.386   0.803  10.924  1.1823  2.6892  1.5153
  110OSM   H11B11338   2.274   0.904  10.838  0.2134 -1.5209 -0.4667
  110OSM      P11339   2.215   0.594  10.918  0.0569 -0.0506 -0.3194
  110OSM    O1311340   2.328   0.572  11.007 -0.2770  0.6193  0.4102
  110OSM    O1411341   2.096   0.512  10.946  0.6397  0.6970  0.0729
  110OSM    O1111342   2.252   0.576  10.767  0.1823 -0.0064 -0.5928
  110OSM    O1211343   2.178   0.751  10.924 -0.2104 -0.2851  0.5057
  110OSM    C1S11344   2.148   0.592  10.672  0.2453 -0.2411  0.7982
  110OSM    H1S11345   2.127   0.701  10.659 -0.4263 -0.6489 -2.4597
  110OSM    H1T11346   2.054   0.548  10.711  1.8302 -2.3047  2.5387
  110OSM     NF11347   2.105   0.595  10.427  0.2193  0.1228 -0.3076
  110OSM    HNF11348   2.034   0.552  10.372 -0.7025  1.4870 -0.2446
  110OSM    C2S11349   2.184   0.536  10.530  0.0324 -0.0082  0.0468
  110OSM    H2S11350   2.289   0.560  10.503  0.1074  2.0425  1.8842
  110OSM    C3S11351   2.167   0.386  10.524 -0.4001  0.3587 -0.0601
  110OSM    H3S11352   2.060   0.360  10.522 -0.3900  0.3285 -0.3192
  110OSM     O311353   2.203   0.327  10.649 -0.5846  0.6470 -0.6436
  110OSM    HO311354   2.222   0.404  10.704 -0.7451 -0.0457  0.4042
  110OSM    C4S11355   2.239   0.313  10.405  0.8365 -0.3284 -0.2428
  110OSM    H4S11356   2.175   0.280  10.322  0.7959 -0.8868  0.0080
  110OSM    C5S11357   2.370   0.280  10.402  0.1054 -0.2863 -0.0885
  110OSM    H5S11358   2.429   0.305  10.492 -0.3160  0.4930 -0.0209
  110OSM    C6S11359   2.444   0.210  10.294  0.2350 -0.1517  0.1580
  110OSM    H6S11360   2.473   0.106  10.318 -0.4268  0.0893  2.1812
  110OSM    H6T11361   2.542   0.253  10.267 -0.0632 -0.8599 -2.3071
  110OSM    C7S11362   2.375   0.204  10.157  0.2119  0.3336 -0.2024
  110OSM    H7S11363   2.333   0.306  10.142  2.3897  1.3662  0.3796
  110OSM    H7T11364   2.295   0.126  10.163  0.8938 -0.4238 -0.6292
  110OSM    C8S11365   2.463   0.173  10.031  0.4001 -0.1918 -1.0963
  110OSM    H8S11366   2.508   0.071  10.042 -2.1234 -1.3693 -1.0937
  110OSM    H8T11367   2.550   0.242  10.027  1.5697 -1.4133  1.1060
  110OSM    C9S11368   2.391   0.181   9.894  0.3155 -0.6836  0.4392
  110OSM    H9S11369   2.343   0.279   9.878 -0.5272 -1.1360  0.1325
  110OSM    H9T11370   2.312   0.105   9.873  0.1607 -1.4263  3.2008
  110OSM   C10S11371   2.475   0.153   9.763  0.1533 -0.7864 -0.3799
  110OSM   H10S11372   2.489   0.043   9.757 -1.3004 -0.9520 -1.3396
  110OSM   H10T11373   2.571   0.207   9.770 -0.3886  0.3504 -1.4111
  110OSM   C11S11374   2.402   0.171   9.626  0.2531 -0.2672  0.0991
  110OSM   H11S11375   2.331   0.255   9.638 -1.0737 -1.1637 -1.0696
  110OSM   H11T11376   2.332   0.086   9.611 -0.2698  0.1464  0.1707
  110OSM   C12S11377   2.501   0.184   9.505 -0.4809  0.3594  0.3655
  110OSM   H12S11378   2.556   0.090   9.485  1.7431  1.2112  2.0334
  110OSM   H12T11379   2.581   0.256   9.530  0.0317  0.9722 -2.5817
  110OSM   C13S11380   2.435   0.238   9.370  0.3281  0.1389 -0.3217
  110OSM   H13S11381   2.398   0.342   9.372  0.5602  0.3983 -3.9801
  110OSM   H13T11382   2.349   0.171   9.348  0.9380 -0.9496  0.4848
  110OSM   C14S11383   2.520   0.214   9.246  0.7563  0.4319  0.2674
  110OSM   H14S11384   2.466   0.250   9.157 -0.0195  0.8020  0.8819
  110OSM   H14T11385   2.534   0.104   9.236 -0.8402  0.3004 -0.8724
  110OSM   C15S11386   2.654   0.297   9.260  0.0538  0.4666 -0.4829
  110OSM   H15S11387   2.720   0.260   9.341 -1.0607 -0.2884  0.1092
  110OSM   H15T11388   2.624   0.403   9.273  3.2051  1.1702  2.8371
  110OSM   C16S11389   2.724   0.279   9.116 -0.5165  0.7077 -0.5198
  110OSM   H16S11390   2.730   0.172   9.085  1.5356  0.1223  1.5543
  110OSM   H16T11391   2.826   0.318   9.132  1.3618 -3.7429 -0.0583
  110OSM   C17S11392   2.660   0.367   9.011  0.1329  0.0320 -0.4287
  110OSM   H17S11393   2.636   0.468   9.050 -1.1207 -1.4056  2.8746
  110OSM   H17T11394   2.564   0.313   8.997  0.2772 -0.7182  1.2959
  110OSM   C18S11395   2.749   0.360   8.884 -0.5625  0.1056  1.0786
  110OSM   H18S11396   2.704   0.409   8.795 -1.0060  1.3928  1.9795
  110OSM   H18T11397   2.769   0.253   8.858 -0.4964 -0.0018  1.5685
  110OSM   H18U11398   2.843   0.415   8.906 -0.8996  0.3731  1.8526
  110OSM    C1F11399   2.121   0.717  10.382  0.0015 -0.4365  0.0588
  110OSM     OF11400   2.218   0.786  10.417 -0.0132  0.3115  0.0878
  110OSM    C2F11401   2.019   0.774  10.289 -0.1141  0.7003 -0.5431
  110OSM    H2F11402   1.973   0.856  10.349  0.3012  1.4512 -1.2405
  110OSM    H2G11403   1.947   0.698  10.251  0.0084 -1.2439  2.6585
  110OSM    C3F11404   2.082   0.846  10.170 -0.1526 -0.1009  0.7421
  110OSM    H3F11405   2.162   0.915  10.206 -1.3836  0.8955  1.6357
  110OSM    H3G11406   2.011   0.902  10.107  0.4905 -1.7580 -1.5872
  110OSM    C4F11407   2.160   0.757  10.072 -0.3946  0.0659 -0.2446
  110OSM    H4F11408   2.231   0.693  10.127  0.6735  0.3329 -1.2516
  110OSM    H4G11409   2.227   0.825  10.014 -0.5942  0.3893 -0.1031
  110OSM    C5F11410   2.070   0.680   9.976 -0.4645  0.2895 -0.9635
  110OSM    H5F11411   1.993   0.740   9.922 -1.6239  0.7307  1.0604
  110OSM    H5G11412   2.014   0.601  10.032 -0.9014 -0.3476 -2.2659
  110OSM    C6F11413   2.147   0.598   9.871 -0.1690  0.1744 -0.0295
  110OSM    H6F11414   2.217   0.527   9.921 -0.6096 -0.0630  0.2672
  110OSM    H6G11415   2.203   0.671   9.809  1.1785 -1.2583 -0.5602
  110OSM    C7F11416   2.055   0.512   9.779  0.4937 -0.1571 -0.5977
  110OSM    H7F11417   1.951   0.551   9.787  0.1707 -1.1395  0.2291
  110OSM    H7G11418   2.057   0.405   9.809  1.5109 -0.0753 -0.3405
  110OSM    C8F11419   2.098   0.523   9.628 -0.1852  0.3147 -0.1014
  110OSM    H8F11420   2.059   0.440   9.566  0.3504  0.4656 -0.6487
  110OSM    H8G11421   2.208   0.518   9.616 -0.2717 -1.1084 -0.4234
  110OSM    C9F11422   2.052   0.654   9.574  0.0865  0.0891 -0.0537
  110OSM    H9F11423   2.091   0.745   9.623 -0.6195  0.2347  0.2421
  110OSM   C10F11424   1.980   0.680   9.469  0.3104 -0.0480 -0.0805
  110OSM   H10F11425   1.965   0.785   9.437  0.5070  1.0043  2.9815
  110OSM   C11F11426   1.917   0.570   9.387 -0.0750 -0.6857 -0.3106
  110OSM   H11F11427   1.820   0.601   9.343 -0.4857 -0.2456  0.8709
  110OSM   H11G11428   1.900   0.486   9.457  0.6886  0.7166  1.6383
  110OSM   C12F11429   2.013   0.524   9.288 -0.3132 -0.2440 -0.0953
  110OSM   H12F11430   1.987   0.426   9.243  1.1723 -0.0915 -1.3707
  110OSM   H12G11431   2.112   0.502   9.334 -1.4907 -0.6964  2.3809
  110OSM   C13F11432   2.033   0.616   9.162 -0.9534  1.3601 -0.2034
  110OSM   H13F11433   2.041   0.720   9.200 -3.8246  1.3507  0.6325
  110OSM   H13G11434   1.949   0.610   9.090 -0.8645  0.8171 -0.2691
  110OSM   C14F11435   2.167   0.593   9.095  0.0982 -0.4016  0.9374
  110OSM   H14F11436   2.247   0.587   9.172  2.6807  2.5790 -1.2565
  110OSM   H14G11437   2.203   0.682   9.040  0.3975 -1.1933 -0.1732
  110OSM   C15F11438   2.175   0.480   8.992  0.0021  0.4795  0.2606
  110OSM   H15F11439   2.118   0.501   8.899  0.4182 -1.1761 -0.4014
  110OSM   H15G11440   2.127   0.390   9.035  0.4818  0.1055  0.0209
  110OSM   C16F11441   2.323   0.467   8.959  0.9369  0.0819 -0.1087
  110OSM   H16F11442   2.312   0.380   8.890 -1.3069  2.1790 -2.6351
  110OSM   H16G11443   2.396   0.456   9.042  0.5444  0.0357  0.2345
  110OSM   C17F11444   2.374   0.576   8.864 -0.8834  0.1545  0.3825
  110OSM   H17F11445   2.476   0.538   8.843 -0.8075 -0.3014  1.5271
  110OSM   H17G11446   2.393   0.671   8.919  2.9476  0.3849 -1.0410
  110OSM   C18F11447   2.303   0.585   8.726  0.4277 -0.2384  0.3398
  110OSM   H18F11448   2.288   0.484   8.684 -0.1654  0.4306 -1.1132
  110OSM   H18G11449   2.353   0.647   8.648  0.9522  1.6420  2.0799
  110OSM   H18H11450   2.210   0.643   8.743  0.4171 -0.5311  1.3595
  111OSM      N11451   3.928   3.671  10.683  0.2703 -0.1409  0.6092
  111OSM    C1511452   4.060   3.743  10.671 -0.6392  0.3547  0.1793
  111OSM   H15A11453   4.032   3.846  10.685 -1.5740 -0.0088  1.1514
  111OSM   H15B11454   4.121   3.739  10.583  0.2176 -0.7898  0.7881
  111OSM   H15C11455   4.118   3.717  10.759  0.4169 -0.2895 -0.6905
  111OSM    C1411456   3.856   3.724  10.800 -0.6555 -0.0777  0.4763
  111OSM   H14A11457   3.762   3.673  10.814 -1.2583  1.4993  2.8571
  111OSM   H14B11458   3.844   3.832  10.799  0.2649  0.0449 -1.2374
  111OSM   H14C11459   3.905   3.705  10.894 -1.1894  3.3321  1.6107
  111OSM    C1311460   3.840   3.696  10.569  0.3987 -0.0279  0.0938
  111OSM   H13A11461   3.892   3.685  10.475  0.3560  3.7017 -0.5098
  111OSM   H13B11462   3.799   3.795  10.579 -2.9226 -1.3698  1.3483
  111OSM   H13C11463   3.747   3.641  10.577 -0.5754  1.7723  2.2359
  111OSM    C1211464   3.958   3.527  10.683  0.2269  0.1692  0.0168
  111OSM   H12A11465   3.994   3.486  10.590  0.0976 -0.8136  0.3942
  111OSM   H12B11466   3.868   3.470  10.703  0.9959 -1.2457 -0.4161
  111OSM    C1111467   4.044   3.472  10.802  0.0938  0.3629  0.3071
  111OSM   H11A11468   4.054   3.362  10.786  1.4892  0.4941  0.0976
  111OSM   H11B11469   3.986   3.482  10.895  2.7528 -3.2516  2.6458
  111OSM      P11470   4.298   3.453  10.779  0.2918  0.5595  0.0729
  111OSM    O1311471   4.416   3.540  10.787  0.6106  0.0866 -0.7370
  111OSM    O1411472   4.306   3.324  10.855  0.0657 -0.5964 -0.2055
  111OSM    O1111473   4.274   3.424  10.625 -0.3780  0.2620  0.4387
  111OSM    O1211474   4.166   3.534  10.818  0.1768 -0.4452  0.2531
  111OSM    C1S11475   4.240   3.290  10.576 -0.6472 -0.2880 -0.0507
  111OSM    H1S11476   4.131   3.280  10.561 -0.8179 -0.2907  1.0633
  111OSM    H1T11477   4.282   3.203  10.631  0.6221  0.6459  0.5027
  111OSM     NF11478   4.244   3.140  10.376 -0.8204 -0.2856  0.1160
  111OSM    HNF11479   4.302   3.060  10.387 -0.9237 -0.5522 -1.1293
  111OSM    C2S11480   4.297   3.269  10.423 -0.7216 -0.1090 -0.6493
  111OSM    H2S11481   4.260   3.348  10.354 -2.6419 -0.6984 -0.3464
  111OSM    C3S11482   4.453   3.278  10.415 -0.2968  0.3025  0.1389
  111OSM    H3S11483   4.500   3.194  10.472 -1.1917  1.1363  2.2172
  111OSM     O311484   4.528   3.388  10.480  0.2782 -0.1480 -0.4065
  111OSM    HO311485   4.458   3.427  10.533  0.0135  1.6700 -1.9875
  111OSM    C4S11486   4.504   3.259  10.274 -0.2547  0.1616  0.3214
  111OSM    H4S11487   4.501   3.153  10.242 -2.2376  0.7640 -1.7001
  111OSM    C5S11488   4.552   3.341  10.187 -0.1037  0.0938 -0.0791
  111OSM    H5S11489   4.569   3.447  10.212 -0.7306  0.5311 -1.4303
  111OSM    C6S11490   4.598   3.315  10.044  0.0162 -0.3158 -0.1711
  111OSM    H6S11491   4.667   3.228  10.050  0.5337  0.0923 -0.1636
  111OSM    H6T11492   4.660   3.401  10.010 -0.3354  0.6597  1.5099
  111OSM    C7S11493   4.476   3.292   9.955  0.9610 -0.6631  0.6062
  111OSM    H7S11494   4.416   3.384   9.940  1.4789 -0.3145  0.6631
  111OSM    H7T11495   4.400   3.226  10.002 -2.9027  1.6778 -1.8158
  111OSM    C8S11496   4.508   3.239   9.811  0.0531 -0.7120 -0.4410
  111OSM    H8S11497   4.559   3.141   9.815 -0.2636 -0.8554  0.1370
  111OSM    H8T11498   4.581   3.311   9.767 -0.2334 -0.3022 -0.2597
  111OSM    C9S11499   4.390   3.222   9.722 -0.1992 -0.5124 -0.9484
  111OSM    H9S11500   4.345   3.322   9.707  0.0110 -0.3446 -0.4723
  111OSM    H9T11501   4.313   3.163   9.775  0.3288 -0.1860  0.2211
  111OSM   C10S11502   4.410   3.154   9.593 -0.0218 -0.4928 -0.6726
  111OSM   H10S11503   4.461   3.058   9.618  1.4525 -0.1511 -2.2506
  111OSM   H10T11504   4.480   3.220   9.538  2.9594 -2.3619  0.6067
  111OSM   C11S11505   4.286   3.127   9.516  0.2691  0.3324  0.5387
  111OSM   H11S11506   4.228   3.220   9.493 -2.8790 -1.2150  1.6065
  111OSM   H11T11507   4.215   3.073   9.582 -0.3304 -1.5593 -1.5053
  111OSM   C12S11508   4.301   3.053   9.379  0.4599  0.8936  0.9855
  111OSM   H12S11509   4.200   3.046   9.333  0.5107 -1.2242  1.1268
  111OSM   H12T11510   4.332   2.948   9.396 -1.4379  0.3386  1.1408
  111OSM   C13S11511   4.397   3.118   9.279 -0.1139  0.1294 -0.6753
  111OSM   H13S11512   4.500   3.111   9.321 -0.3108 -0.2945 -0.2449
  111OSM   H13T11513   4.372   3.224   9.256  3.1803  0.8285 -1.6283
  111OSM   C14S11514   4.399   3.053   9.145  0.1817  0.1846 -0.3744
  111OSM   H14S11515   4.394   2.942   9.150 -1.2332  0.1836 -1.2781
  111OSM   H14T11516   4.494   3.080   9.094 -0.9134  2.3493 -1.3591
  111OSM   C15S11517   4.283   3.096   9.056  0.4499  0.1781  0.4243
  111OSM   H15S11518   4.285   3.207   9.055 -1.1852  0.2526  1.6509
  111OSM   H15T11519   4.190   3.053   9.097  0.4705  0.5744  0.8923
  111OSM   C16S11520   4.293   3.043   8.904  0.4258 -0.2922  0.1852
  111OSM   H16S11521   4.277   2.933   8.899 -0.6944 -0.1795  0.9958
  111OSM   H16T11522   4.392   3.064   8.857 -0.0516  1.7512  0.0043
  111OSM   C17S11523   4.190   3.111   8.821 -0.0248 -0.7953 -0.1213
  111OSM   H17S11524   4.191   3.221   8.831  1.3045 -0.9062  1.3428
  111OSM   H17T11525   4.083   3.093   8.849  0.0871  1.2687  1.9284
  111OSM   C18S11526   4.219   3.060   8.686 -0.0967  0.1763 -0.2554
  111OSM   H18S11527   4.285   3.126   8.626  0.4854  0.2605  0.4634
  111OSM   H18T11528   4.125   3.059   8.625 -1.3089  0.1138  1.5286
  111OSM   H18U11529   4.257   2.956   8.686 -1.4420 -0.3468  1.1496
  111OSM    C1F11530   4.120   3.121  10.340 -0.0099  0.7740  0.0350
  111OSM     OF11531   4.055   3.216  10.309  0.2278  0.1279 -0.3724
  111OSM    C2F11532   4.062   2.983  10.354  0.1956 -0.0965 -0.5521
  111OSM    H2F11533   3.974   2.996  10.421  0.1101 -0.0170 -0.6788
  111OSM    H2G11534   4.137   2.919  10.405  1.6265  2.1816  0.3896
  111OSM    C3F11535   4.029   2.918  10.222 -0.2150  0.9756 -0.7006
  111OSM    H3F11536   3.961   2.973  10.154  1.3333  0.0007 -3.2083
  111OSM    H3G11537   3.975   2.828  10.261  1.2572  0.2847 -0.1746
  111OSM    C4F11538   4.152   2.879  10.149  0.1268 -0.7948  0.0046
  111OSM    H4F11539   4.235   2.847  10.216  0.1519  1.0078  0.8813
  111OSM    H4G11540   4.195   2.959  10.085  0.7373 -0.3703  0.9226
  111OSM    C5F11541   4.130   2.776  10.032  0.0905  0.7802 -0.0617
  111OSM    H5F11542   4.219   2.771   9.966  1.1513 -0.3813  1.3860
  111OSM    H5G11543   4.042   2.803   9.969 -0.7074 -0.1423  0.6196
  111OSM    C6F11544   4.120   2.626  10.081 -0.4690 -0.0020 -0.8303
  111OSM    H6F11545   4.035   2.615  10.151 -0.1892 -1.6191 -0.7119
  111OSM    H6G11546   4.214   2.602  10.135 -1.3874  0.1585  0.9112
  111OSM    C7F11547   4.095   2.527   9.966  0.5719  0.8098 -0.1346
  111OSM    H7F11548   3.992   2.541   9.926  0.0406 -1.5827  0.2400
  111OSM    H7G11549   4.092   2.424  10.009  0.8476  1.1414  0.6987
  111OSM    C8F11550   4.203   2.525   9.866 -0.6297  0.4398 -0.2834
  111OSM    H8F11551   4.292   2.502   9.928 -2.0625 -1.1464  1.2878
  111OSM    H8G11552   4.210   2.625   9.818  0.2292  0.3310 -0.4017
  111OSM    C9F11553   4.177   2.421   9.758  0.4989 -0.1048 -0.2446
  111OSM    H9F11554   4.225   2.323   9.773  0.2678 -0.3756 -1.2037
  111OSM   C10F11555   4.111   2.441   9.639 -0.2066  0.1142 -0.1255
  111OSM   H10F11556   4.086   2.357   9.574 -1.1830  1.1625 -1.1558
  111OSM   C11F11557   4.047   2.566   9.586  0.4375 -0.6112 -0.6642
  111OSM   H11F11558   4.096   2.657   9.625 -0.5874 -0.6750  0.8618
  111OSM   H11G11559   3.939   2.575   9.610  0.6859  0.7701  0.0576
  111OSM   C12F11560   4.062   2.577   9.436  0.4067  0.7353 -0.4175
  111OSM   H12F11561   4.169   2.567   9.407  0.2979  0.9456 -0.8980
  111OSM   H12G11562   4.018   2.676   9.413 -2.6191 -0.1060  1.2064
  111OSM   C13F11563   3.966   2.487   9.356  0.1117 -0.3951  0.1921
  111OSM   H13F11564   3.866   2.501   9.402 -0.3518 -1.0219 -0.5980
  111OSM   H13G11565   3.996   2.381   9.371  1.2919 -0.0940  0.1077
  111OSM   C14F11566   3.982   2.533   9.216 -0.5138 -0.0530  0.5847
  111OSM   H14F11567   4.090   2.543   9.191 -1.1066  1.7258 -1.5503
  111OSM   H14G11568   3.923   2.626   9.204 -0.4015 -0.0011  0.4267
  111OSM   C15F11569   3.914   2.433   9.115  0.1567 -0.2108 -0.4242
  111OSM   H15F11570   3.806   2.425   9.137 -0.2820  1.1332 -1.8821
  111OSM   H15G11571   3.955   2.331   9.131 -0.4453 -0.8871 -2.7965
  111OSM   C16F11572   3.939   2.471   8.963 -0.6959  0.4812  0.9293
  111OSM   H16F11573   4.049   2.484   8.959 -0.6912  0.4945  1.0615
  111OSM   H16G11574   3.898   2.573   8.948  2.1555  2.0544  2.8085
  111OSM   C17F11575   3.884   2.365   8.862  0.5383 -1.1378 -0.1457
  111OSM   H17F11576   3.880   2.406   8.759  0.5191 -3.5676 -1.1825
  111OSM   H17G11577   3.777   2.362   8.889 -0.0441  3.5007 -1.0010
  111OSM   C18F11578   3.966   2.237   8.853  0.0970 -0.6254  0.0169
  111OSM   H18F11579   4.068   2.261   8.814  0.1543  3.5770  2.1997
  111OSM   H18G11580   3.916   2.160   8.791  1.0979 -0.9697 -0.3935
  111OSM   H18H11581   3.981   2.206   8.958  1.3049  0.6498  0.2620
  112OSM      N11582   4.661   6.716  10.889  0.2446 -0.3230  0.5844
  112OSM    C1511583   4.756   6.830  10.900 -0.2867 -0.3569 -0.2194
  112OSM   H15A11584   4.822   6.838  10.815 -1.3128 -1.5729 -1.1634
  112OSM   H15B11585   4.825   6.814  10.982 -0.2837 -1.7805 -0.4874
  112OSM   H15C11586   4.705   6.925  10.905  3.7922  2.0649  0.8795
  112OSM    C1411587   4.565   6.715  11.001 -0.3478  0.8132 -0.3053
  112OSM   H14A11588   4.511   6.621  11.002 -0.7926  1.0414 -1.4445
  112OSM   H14B11589   4.494   6.797  10.997  0.0345  1.1393 -0.4319
  112OSM   H14C11590   4.621   6.728  11.092 -1.9741 -0.6036  0.9735
  112OSM    C1311591   4.581   6.738  10.763  0.1030 -0.4996 -0.4049
  112OSM   H13A11592   4.642   6.723  10.675  0.1311 -1.6746 -0.2029
  112OSM   H13B11593   4.544   6.839  10.760 -0.0433 -0.4714  1.2440
  112OSM   H13C11594   4.497   6.672  10.752 -1.1802  1.0165 -0.0303
  112OSM    C1211595   4.732   6.586  10.885  0.2599 -0.2772 -0.0626
  112OSM   H12A11596   4.769   6.562  10.984 -1.4071 -0.0860  0.6366
  112OSM   H12B11597   4.813   6.585  10.813 -1.8629  0.7020 -2.6321
  112OSM    C1111598   4.646   6.464  10.834 -0.1249 -0.4492  0.2308
  112OSM   H11A11599   4.714   6.388  10.791  0.8363  1.8016 -2.4902
  112OSM   H11B11600   4.588   6.483  10.741  0.4873  0.9860  0.1183
  112OSM      P11601   4.593   6.307  11.038 -0.2139  0.3218 -0.0799
  112OSM    O1311602   4.704   6.355  11.121  0.0943 -0.4270  0.2419
  112OSM    O1411603   4.470   6.261  11.109 -0.1585  0.0728 -0.0004
  112OSM    O1111604   4.657   6.187  10.950 -0.2986  0.1241 -0.7811
  112OSM    O1211605   4.555   6.415  10.937  0.1073  0.0709  0.4326
  112OSM    C1S11606   4.606   6.142  10.828  0.5528  0.0061 -1.1019
  112OSM    H1S11607   4.555   6.219  10.766  1.6166 -1.2092 -3.6269
  112OSM    H1T11608   4.532   6.061  10.843  0.9483 -0.7173 -2.8765
  112OSM     NF11609   4.681   6.100  10.594  0.6846  0.0469  0.5930
  112OSM    HNF11610   4.627   6.029  10.549 -0.0190  0.8514  0.1356
  112OSM    C2S11611   4.712   6.073  10.733  0.7115 -0.1232 -0.2841
  112OSM    H2S11612   4.810   6.117  10.763  0.0055 -0.6792  3.3427
  112OSM    C3S11613   4.733   5.926  10.770 -0.1455 -0.0337 -0.0669
  112OSM    H3S11614   4.645   5.859  10.757 -0.3024 -0.3598  2.1624
  112OSM     O311615   4.771   5.922  10.912  0.2577  0.4116  0.0094
  112OSM    HO311616   4.757   6.011  10.946 -0.5502  0.3862 -0.2286
  112OSM    C4S11617   4.848   5.864  10.694 -0.1588  0.3556 -0.2566
  112OSM    H4S11618   4.943   5.920  10.696 -0.0265  0.1295  1.3758
  112OSM    C5S11619   4.846   5.747  10.630 -0.1486 -0.6009  0.2186
  112OSM    H5S11620   4.754   5.687  10.641 -1.1018  1.0461  1.8268
  112OSM    C6S11621   4.964   5.695  10.547 -0.0381 -0.1925 -0.3001
  112OSM    H6S11622   4.981   5.589  10.573  0.2549  0.3853  2.1219
  112OSM    H6T11623   5.056   5.755  10.567  0.1131 -1.0253  1.7344
  112OSM    C7S11624   4.949   5.711  10.393 -0.7356  0.4044 -0.3174
  112OSM    H7S11625   4.854   5.670  10.355 -0.2573  0.8734 -2.1330
  112OSM    H7T11626   5.022   5.639  10.350 -1.0598 -0.7888  1.0847
  112OSM    C8S11627   4.959   5.857  10.350  0.5032 -0.7412  0.3433
  112OSM    H8S11628   5.065   5.890  10.350  0.5188 -0.7634  1.5666
  112OSM    H8T11629   4.909   5.930  10.417  1.5986  0.8173 -0.4508
  112OSM    C9S11630   4.900   5.887  10.199 -0.9608  0.0968 -0.5778
  112OSM    H9S11631   4.923   5.993  10.176  1.1115  0.2139  1.6741
  112OSM    H9T11632   4.790   5.868  10.205 -1.2653  2.0733  1.2805
  112OSM   C10S11633   4.963   5.794  10.093 -0.6612 -0.4254  0.3012
  112OSM   H10S11634   4.926   5.692  10.114 -0.7347 -0.5002 -0.1704
  112OSM   H10T11635   5.072   5.810  10.101 -0.8666  1.2759  0.1294
  112OSM   C11S11636   4.917   5.836   9.949 -0.2990 -0.6237  0.1938
  112OSM   H11S11637   4.963   5.934   9.924  0.3555 -1.2764 -1.2943
  112OSM   H11T11638   4.807   5.843   9.963 -0.5787  1.5841 -2.4312
  112OSM   C12S11639   4.957   5.738   9.839 -0.5438  0.1080  1.0785
  112OSM   H12S11640   4.910   5.640   9.863  0.6811 -1.8528 -3.3681
  112OSM   H12T11641   5.067   5.726   9.827 -0.6578  0.4141 -0.4533
  112OSM   C13S11642   4.906   5.787   9.696 -0.2632 -0.1437 -0.4103
  112OSM   H13S11643   4.806   5.830   9.718 -0.0779 -0.8783  2.0861
  112OSM   H13T11644   4.889   5.697   9.634 -1.7767  0.3053 -0.6836
  112OSM   C14S11645   5.000   5.899   9.642 -0.6630 -0.2226 -0.3835
  112OSM   H14S11646   5.103   5.859   9.644 -0.7943 -0.5725  1.7819
  112OSM   H14T11647   4.993   5.982   9.715 -2.3854  0.5714 -1.3684
  112OSM   C15S11648   4.960   5.929   9.501  0.6934  0.6932  0.5409
  112OSM   H15S11649   5.010   6.021   9.464 -3.2230  2.9868  0.3667
  112OSM   H15T11650   4.855   5.966   9.501  1.0937  1.9572  2.1347
  112OSM   C16S11651   4.980   5.814   9.404 -0.3896 -0.4573 -0.3676
  112OSM   H16S11652   4.894   5.743   9.406  0.0056 -0.9443  1.4480
  112OSM   H16T11653   5.079   5.774   9.435  2.4899  2.8193 -4.2129
  112OSM   C17S11654   5.012   5.873   9.268  0.0164  0.5664 -0.4837
  112OSM   H17S11655   5.053   5.793   9.203 -2.0366 -1.8824  1.0644
  112OSM   H17T11656   5.089   5.952   9.284 -0.3326  1.1390 -1.5456
  112OSM   C18S11657   4.896   5.931   9.188  0.7231  0.4677  0.2309
  112OSM   H18S11658   4.809   5.862   9.188  0.4001  0.8651  0.4107
  112OSM   H18T11659   4.937   5.964   9.090 -1.6335  2.0267 -0.3200
  112OSM   H18U11660   4.863   6.018   9.249  0.4825  0.1521  0.5597
  112OSM    C1F11661   4.694   6.217  10.528 -0.6130 -0.0861 -0.5768
  112OSM     OF11662   4.732   6.317  10.588 -0.5361 -0.6963  0.2215
  112OSM    C2F11663   4.661   6.217  10.385 -0.5441  0.3290  0.1682
  112OSM    H2F11664   4.551   6.213  10.368 -0.0412  0.6884 -4.5810
  112OSM    H2G11665   4.706   6.126  10.339  0.5190 -0.4069  2.4947
  112OSM    C3F11666   4.720   6.333  10.315 -0.6242 -0.1661  0.6641
  112OSM    H3F11667   4.826   6.360  10.338 -0.0698 -0.1564 -1.6559
  112OSM    H3G11668   4.664   6.419  10.357 -0.1131  0.5640 -0.0994
  112OSM    C4F11669   4.689   6.346  10.158  0.7283  0.1369 -0.4028
  112OSM    H4F11670   4.705   6.456  10.152  2.4031 -0.1228 -1.0493
  112OSM    H4G11671   4.583   6.326  10.132  0.7628  1.3948 -1.6622
  112OSM    C5F11672   4.787   6.273  10.065 -0.1822 -0.5392  0.1738
  112OSM    H5F11673   4.765   6.165  10.049  1.4617 -0.8833  0.0400
  112OSM    H5G11674   4.890   6.274  10.105 -0.0426 -0.4130 -0.1858
  112OSM    C6F11675   4.784   6.338   9.922 -0.1893 -0.0525  1.1683
  112OSM    H6F11676   4.861   6.314   9.846 -1.5076 -0.5453 -0.0549
  112OSM    H6G11677   4.797   6.448   9.932 -1.7590  0.0275  3.0147
  112OSM    C7F11678   4.644   6.331   9.851 -0.0865  0.2973 -0.5864
  112OSM    H7F11679   4.559   6.379   9.904  1.0754  2.2754 -0.4111
  112OSM    H7G11680   4.622   6.222   9.854  0.4009  0.1138  3.8082
  112OSM    C8F11681   4.645   6.384   9.704  0.2892  0.4279  0.5028
  112OSM    H8F11682   4.697   6.482   9.694  2.5183 -0.9367 -3.8436
  112OSM    H8G11683   4.537   6.401   9.687 -0.2461 -1.7076  1.4862
  112OSM    C9F11684   4.704   6.272   9.618  0.6863 -0.0017  0.5748
  112OSM    H9F11685   4.757   6.196   9.677  1.3217  0.6517  0.8525
  112OSM   C10F11686   4.678   6.249   9.488 -0.5631 -0.6330  0.1019
  112OSM   H10F11687   4.724   6.159   9.445  0.0172  0.3314 -1.3587
  112OSM   C11F11688   4.596   6.340   9.396  0.2133  0.5640 -0.4943
  112OSM   H11F11689   4.600   6.444   9.435 -0.2432 -0.3395  2.2245
  112OSM   H11G11690   4.493   6.301   9.379  1.1513 -1.7389 -1.3190
  112OSM   C12F11691   4.668   6.336   9.260 -0.3460  0.5768 -0.5158
  112OSM   H12F11692   4.657   6.229   9.231 -4.1104  0.7861 -0.3847
  112OSM   H12G11693   4.776   6.361   9.267 -0.3783  1.2797 -2.0853
  112OSM   C13F11694   4.606   6.429   9.168  1.2063 -0.1010 -0.2307
  112OSM   H13F11695   4.675   6.447   9.082  0.8923  0.0470 -0.4557
  112OSM   H13G11696   4.595   6.524   9.225  0.4049 -0.3870  0.1127
  112OSM   C14F11697   4.476   6.392   9.100  0.2964  0.3681  0.4441
  112OSM   H14F11698   4.397   6.369   9.175 -0.5356 -1.4074 -0.9112
  112OSM   H14G11699   4.494   6.296   9.048 -0.4121  1.1591 -1.3612
  112OSM   C15F11700   4.421   6.490   9.004 -0.0236 -0.3238 -0.3697
  112OSM   H15F11701   4.495   6.497   8.922  1.6093 -1.3989  0.9546
  112OSM   H15G11702   4.411   6.595   9.040  2.5990  1.8262 -4.9654
  112OSM   C16F11703   4.277   6.457   8.946 -0.7251  0.3718 -0.2021
  112OSM   H16F11704   4.276   6.348   8.924  3.2471 -0.4632  2.7191
  112OSM   H16G11705   4.260   6.515   8.853 -0.1626  0.6261 -0.1477
  112OSM   C17F11706   4.162   6.499   9.036 -0.1180 -0.2022  0.3924
  112OSM   H17F11707   4.167   6.608   9.053 -0.1073  0.4148 -2.9289
  112OSM   H17G11708   4.173   6.451   9.135  3.8266  2.4444  1.4463
  112OSM   C18F11709   4.032   6.481   8.961 -0.4000 -0.4645 -0.3591
  112OSM   H18F11710   3.950   6.472   9.036 -0.4512 -3.2918 -0.6482
  112OSM   H18G11711   4.031   6.386   8.904  3.2700  0.0793 -1.5537
  112OSM   H18H11712   4.001   6.567   8.898  0.5319 -1.3060 -2.0360
  113OSM      N11713   0.814   4.718  11.363  0.6281  0.2144 -0.3742
  113OSM    C1511714   0.891   4.843  11.329 -0.0809 -0.4637  0.1389
  113OSM   H15A11715   0.963   4.829  11.250 -0.5750 -2.6304  0.0027
  113OSM   H15B11716   0.949   4.863  11.419  1.8677 -1.8443 -0.7378
  113OSM   H15C11717   0.821   4.922  11.308 -2.3679 -2.0115  1.4148
  113OSM    C1411718   0.917   4.630  11.417  0.6503  0.2463  0.0654
  113OSM   H14A11719   0.985   4.672  11.489  0.9085 -0.7435  0.4198
  113OSM   H14B11720   0.983   4.606  11.335  2.1719  1.1502  0.9707
  113OSM   H14C11721   0.859   4.550  11.461 -1.3095  3.0145  2.9203
  113OSM    C1311722   0.715   4.752  11.466 -0.2972 -0.0182  0.5053
  113OSM   H13A11723   0.656   4.666  11.492  2.2525 -1.5895  1.4498
  113OSM   H13B11724   0.649   4.829  11.427  0.4917 -0.1316 -1.1161
  113OSM   H13C11725   0.758   4.792  11.557 -1.6899  1.6946  0.4726
  113OSM    C1211726   0.735   4.654  11.252 -0.1594 -0.0548 -0.1845
  113OSM   H12A11727   0.686   4.561  11.274 -2.3674  0.9535 -0.5795
  113OSM   H12B11728   0.801   4.634  11.168 -0.3252  0.6355 -0.4936
  113OSM    C1111729   0.624   4.744  11.197  0.0628  0.0480  0.3394
  113OSM   H11A11730   0.590   4.717  11.094 -3.9249  0.4391  1.4078
  113OSM   H11B11731   0.662   4.847  11.174 -4.3499  1.8719  0.2632
  113OSM      P11732   0.393   4.652  11.268  0.3986  0.1739  0.4107
  113OSM    O1311733   0.446   4.515  11.289 -0.1469 -0.1861  0.0195
  113OSM    O1411734   0.273   4.690  11.349  0.0028 -0.0758 -0.3115
  113OSM    O1111735   0.343   4.654  11.121 -0.4902 -0.9158  0.0239
  113OSM    O1211736   0.509   4.756  11.280 -0.1045 -0.7543  0.2971
  113OSM    C1S11737   0.327   4.779  11.042 -0.1017  0.1056 -0.2845
  113OSM    H1S11738   0.417   4.843  11.053  0.1604 -0.1076 -1.0697
  113OSM    H1T11739   0.239   4.840  11.071  0.3616 -0.2485  2.0533
  113OSM     NF11740   0.335   4.866  10.797  0.4108  0.4184  0.0569
  113OSM    HNF11741   0.258   4.905  10.747  0.0161 -0.0513  0.2988
  113OSM    C2S11742   0.312   4.750  10.888  0.5928  0.4848 -0.9701
  113OSM    H2S11743   0.389   4.670  10.876  0.6773 -0.1041  2.5716
  113OSM    C3S11744   0.173   4.678  10.865 -0.6532  0.4791 -0.0426
  113OSM    H3S11745   0.091   4.750  10.887 -1.0274  0.4650 -1.2890
  113OSM     O311746   0.137   4.567  10.947  0.3141  0.6570 -0.1321
  113OSM    HO311747   0.189   4.584  11.026  1.2936 -1.3889 -0.2630
  113OSM    C4S11748   0.161   4.620  10.722 -0.1247 -0.3832 -0.1009
  113OSM    H4S11749   0.237   4.541  10.711  0.0046 -0.6457  2.1496
  113OSM    C5S11750   0.071   4.654  10.632  0.5241  0.3746 -0.0429
  113OSM    H5S11751  -0.011   4.727  10.640 -1.0143 -0.8963 -2.8042
  113OSM    C6S11752   0.066   4.581  10.502 -0.1090 -0.5191 -0.4519
  113OSM    H6S11753   0.061   4.471  10.520 -4.9363 -0.4231 -0.0060
  113OSM    H6T11754   0.153   4.597  10.435  0.0144 -3.1878 -1.0427
  113OSM    C7S11755  -0.058   4.622  10.418 -0.6162 -0.3176 -0.7023
  113OSM    H7S11756  -0.038   4.729  10.396  0.0790 -0.5828 -1.4201
  113OSM    H7T11757  -0.152   4.607  10.474  0.6712 -2.7714  1.0124
  113OSM    C8S11758  -0.070   4.550  10.283  0.0708  0.8038  0.0265
  113OSM    H8S11759  -0.097   4.443  10.297  2.6299 -0.1105 -1.4441
  113OSM    H8T11760   0.025   4.549  10.225  2.1469 -1.2055  3.1749
  113OSM    C9S11761  -0.183   4.612  10.204 -0.7867  0.3848  0.0082
  113OSM    H9S11762  -0.187   4.722  10.200 -0.4182  0.5341  2.3065
  113OSM    H9T11763  -0.275   4.580  10.258  1.0772 -2.5404  1.7333
  113OSM   C10S11764  -0.207   4.537  10.070 -0.5632  0.1345 -0.1851
  113OSM   H10S11765  -0.312   4.505  10.054 -0.3292  0.1247 -1.8675
  113OSM   H10T11766  -0.146   4.444  10.067  1.3514  1.3162  0.1770
  113OSM   C11S11767  -0.151   4.623   9.955 -0.2869 -0.6640 -0.1643
  113OSM   H11S11768  -0.046   4.652   9.976 -0.8740  0.7199  1.0555
  113OSM   H11T11769  -0.217   4.712   9.943 -0.8021 -1.1552 -1.0634
  113OSM   C12S11770  -0.151   4.557   9.820  0.5165  1.0719 -0.2655
  113OSM   H12S11771  -0.257   4.536   9.793  0.8149  1.9135 -2.2685
  113OSM   H12T11772  -0.107   4.455   9.832 -2.2854 -0.3967 -1.4621
  113OSM   C13S11773  -0.090   4.644   9.708 -0.2052 -0.5087  0.2803
  113OSM   H13S11774  -0.013   4.591   9.648  1.0364 -0.2269  1.5563
  113OSM   H13T11775  -0.031   4.721   9.762 -2.2037  0.4468  1.1815
  113OSM   C14S11776  -0.186   4.707   9.612 -0.0679  0.4332 -0.3919
  113OSM   H14S11777  -0.253   4.779   9.663 -1.8381  0.5289 -2.6674
  113OSM   H14T11778  -0.242   4.620   9.571  0.2024  0.4772 -0.8667
  113OSM   C15S11779  -0.140   4.781   9.487  0.8207 -0.5454  0.3646
  113OSM   H15S11780  -0.085   4.875   9.510 -0.3343  0.7258 -1.7924
  113OSM   H15T11781  -0.232   4.801   9.429 -0.2763 -2.3769  1.3603
  113OSM   C16S11782  -0.037   4.710   9.400  0.1391  0.7948  0.6525
  113OSM   H16S11783   0.042   4.664   9.463  0.8441  1.3609  0.2016
  113OSM   H16T11784   0.017   4.786   9.340 -0.7509  0.8618 -0.0944
  113OSM   C17S11785  -0.097   4.600   9.302  0.0199  0.6916 -0.2280
  113OSM   H17S11786  -0.109   4.512   9.369 -1.8185 -0.7770 -2.3167
  113OSM   H17T11787  -0.025   4.572   9.222  0.3871  0.7750  0.0722
  113OSM   C18S11788  -0.227   4.629   9.228  0.0014  0.2226  0.7618
  113OSM   H18S11789  -0.304   4.682   9.289  1.6308  1.6845  1.6310
  113OSM   H18T11790  -0.280   4.537   9.195  1.7940 -0.9699  1.0826
  113OSM   H18U11791  -0.204   4.685   9.135  1.9943 -3.3807 -1.1171
  113OSM    C1F11792   0.447   4.941  10.785  0.1743  0.4919  0.0321
  113OSM     OF11793   0.541   4.910  10.850 -0.4290  0.4641  0.3027
  113OSM    C2F11794   0.450   5.064  10.706 -0.5507  0.2965 -0.2294
  113OSM    H2F11795   0.465   5.138  10.788  0.7905 -1.8524  1.5849
  113OSM    H2G11796   0.354   5.082  10.654  0.2899 -0.8840 -2.3016
  113OSM    C3F11797   0.568   5.075  10.617  0.1939  0.4339 -0.4842
  113OSM    H3F11798   0.662   5.086  10.674  0.2834 -1.3977 -0.2474
  113OSM    H3G11799   0.561   5.165  10.551  2.2195 -0.5894 -2.2381
  113OSM    C4F11800   0.576   4.943  10.526  0.3294  0.0595  0.1612
  113OSM    H4F11801   0.585   4.852  10.590 -0.2978  1.0007  1.6438
  113OSM    H4G11802   0.676   4.948  10.478  0.1426  1.9515 -0.0881
  113OSM    C5F11803   0.462   4.925  10.425 -0.2182 -0.0068  1.2507
  113OSM    H5F11804   0.457   5.025  10.376 -1.5131 -1.0595 -0.9239
  113OSM    H5G11805   0.362   4.912  10.471 -0.6262  1.9203  1.0229
  113OSM    C6F11806   0.498   4.813  10.315  0.3240 -1.1244 -0.7788
  113OSM    H6F11807   0.602   4.830  10.281  0.6488 -0.5851  0.4371
  113OSM    H6G11808   0.427   4.831  10.230  2.0150  1.2865 -1.7963
  113OSM    C7F11809   0.480   4.672  10.374 -0.0541  0.4482  0.6509
  113OSM    H7F11810   0.392   4.666  10.442 -1.3209  2.1288 -0.7560
  113OSM    H7G11811   0.570   4.628  10.422 -0.2338 -2.1630 -1.1979
  113OSM    C8F11812   0.466   4.570  10.265 -0.5248  0.3221 -0.1507
  113OSM    H8F11813   0.481   4.465  10.299 -0.1211 -0.4048 -2.4408
  113OSM    H8G11814   0.550   4.602  10.200  0.1334  0.9565  0.9593
  113OSM    C9F11815   0.347   4.574  10.178  0.0520 -0.0315  0.1866
  113OSM    H9F11816   0.249   4.583  10.228 -1.3392 -0.0388 -2.3156
  113OSM   C10F11817   0.340   4.559  10.050  0.5324 -1.1676 -0.7924
  113OSM   H10F11818   0.240   4.560  10.005  0.4631  1.1983 -0.6867
  113OSM   C11F11819   0.445   4.537   9.954  0.4201 -0.3615 -0.2590
  113OSM   H11F11820   0.418   4.451   9.888 -1.1723 -0.7993  0.9211
  113OSM   H11G11821   0.537   4.501  10.005 -0.8313  0.1209  2.5167
  113OSM   C12F11822   0.469   4.659   9.862 -0.4779  0.0591  0.2940
  113OSM   H12F11823   0.497   4.750   9.918 -1.1013  0.9475 -0.7785
  113OSM   H12G11824   0.372   4.685   9.814 -0.8336 -0.5937  0.6356
  113OSM   C13F11825   0.576   4.647   9.754  0.2186 -0.3717  0.3379
  113OSM   H13F11826   0.672   4.677   9.800 -0.0141  1.9011 -0.5320
  113OSM   H13G11827   0.551   4.718   9.673 -2.8266  1.1710  2.4361
  113OSM   C14F11828   0.579   4.507   9.696  0.3353 -0.1340 -0.8814
  113OSM   H14F11829   0.480   4.470   9.661 -0.7910  2.3703 -0.4954
  113OSM   H14G11830   0.615   4.438   9.775  0.8999 -0.6521 -1.5680
  113OSM   C15F11831   0.672   4.500   9.584 -0.5004 -0.4153 -0.4622
  113OSM   H15F11832   0.777   4.527   9.609 -0.1857  0.7184 -2.7444
  113OSM   H15G11833   0.636   4.561   9.498  0.2230 -3.5643 -3.1908
  113OSM   C16F11834   0.671   4.357   9.525 -0.2815 -0.4651  0.2874
  113OSM   H16F11835   0.573   4.347   9.473  0.1892 -3.9369 -0.1649
  113OSM   H16G11836   0.671   4.287   9.611 -0.5743 -0.5136  0.2470
  113OSM   C17F11837   0.791   4.319   9.437  0.3023  0.6162  0.3624
  113OSM   H17F11838   0.887   4.316   9.492  0.6505 -1.0611 -0.2795
  113OSM   H17G11839   0.803   4.398   9.360  1.2274 -0.5541 -0.7281
  113OSM   C18F11840   0.761   4.180   9.371  0.3486 -0.3305  0.0203
  113OSM   H18F11841   0.858   4.139   9.335 -0.7136 -2.4144 -0.6428
  113OSM   H18G11842   0.697   4.201   9.282  2.1331  2.2536 -0.7692
  113OSM   H18H11843   0.712   4.113   9.445  0.4738 -0.2712  0.1569
  114OSM      N11844   3.436   6.326  11.008 -0.3669  0.6959  0.0726
  114OSM    C1511845   3.470   6.245  11.129  0.1309  0.1527 -0.9354
  114OSM   H15A11846   3.570   6.274  11.158  1.2720 -2.0979 -2.3486
  114OSM   H15B11847   3.475   6.140  11.107 -0.8307  0.1069 -0.9866
  114OSM   H15C11848   3.408   6.252  11.217  1.3919 -0.9807  0.0817
  114OSM    C1411849   3.449   6.471  11.046  0.3034  0.0508 -0.2609
  114OSM   H14A11850   3.430   6.534  10.961  0.5290  0.3513 -0.0903
  114OSM   H14B11851   3.550   6.490  11.079 -0.1395  3.2035 -0.4606
  114OSM   H14C11852   3.375   6.497  11.120  0.0328  2.8681 -1.4331
  114OSM    C1311853   3.540   6.293  10.907  0.4200  0.7861 -0.0634
  114OSM   H13A11854   3.522   6.359  10.824  1.1059  1.3542  0.2340
  114OSM   H13B11855   3.516   6.192  10.877 -0.0104  1.2109 -1.2154
  114OSM   H13C11856   3.642   6.315  10.934  0.8801 -0.3830 -0.7739
  114OSM    C1211857   3.297   6.295  10.961 -0.3363  0.1775 -0.2212
  114OSM   H12A11858   3.233   6.316  11.045 -1.0439  1.2507 -1.0031
  114OSM   H12B11859   3.294   6.190  10.937 -0.8313  0.3606 -0.9741
  114OSM    C1111860   3.249   6.374  10.844 -0.1751 -0.8463 -0.0341
  114OSM   H11A11861   3.163   6.315  10.805 -1.5667  1.5549 -0.8260
  114OSM   H11B11862   3.322   6.375  10.759  1.4027  0.7269  1.2622
  114OSM      P11863   3.071   6.561  10.922  0.4731  0.2883  0.3274
  114OSM    O1311864   3.021   6.447  11.008  0.1398 -0.0764 -0.3689
  114OSM    O1411865   3.076   6.696  10.982  0.2436  0.7494 -0.8827
  114OSM    O1111866   2.980   6.562  10.790  0.2220  0.2316 -0.8795
  114OSM    O1211867   3.212   6.508  10.870 -0.1898  0.0343 -0.3933
  114OSM    C1S11868   3.022   6.504  10.667 -0.7461  0.2105  1.1562
  114OSM    H1S11869   3.014   6.393  10.672 -0.0209  0.1401  0.9056
  114OSM    H1T11870   3.130   6.525  10.652 -0.8008 -1.0329 -1.4144
  114OSM     NF11871   2.999   6.479  10.423 -0.1599 -0.0522 -0.4604
  114OSM    HNF11872   3.085   6.510  10.383  0.5437  0.1134  1.1093
  114OSM    C2S11873   2.952   6.558  10.543 -1.0509 -0.2992 -0.5248
  114OSM    H2S11874   2.846   6.542  10.572 -1.1785  0.1617 -0.7325
  114OSM    C3S11875   2.977   6.710  10.533 -0.0673 -0.6501  0.5135
  114OSM    H3S11876   3.085   6.732  10.519 -0.1568  0.2655  1.1867
  114OSM     O311877   2.954   6.776  10.658 -0.7184  0.3844 -0.2494
  114OSM    HO311878   2.955   6.701  10.718 -2.4639  0.1808 -0.4485
  114OSM    C4S11879   2.896   6.781  10.429  0.5652 -0.4264  0.8492
  114OSM    H4S11880   2.790   6.784  10.458  0.3364  0.8052 -0.0567
  114OSM    C5S11881   2.939   6.837  10.317 -0.6637 -0.0291 -0.2672
  114OSM    H5S11882   3.046   6.828  10.293 -0.3874  2.3618 -0.0942
  114OSM    C6S11883   2.846   6.919  10.230  0.1962  0.3178 -0.1135
  114OSM    H6S11884   2.873   7.026  10.243  1.3304 -0.1644  1.9925
  114OSM    H6T11885   2.741   6.901  10.262  0.2471  1.0902  0.5242
  114OSM    C7S11886   2.840   6.890  10.075 -0.0817 -0.1566  0.3119
  114OSM    H7S11887   2.936   6.929  10.033 -0.5106  0.2308 -0.3288
  114OSM    H7T11888   2.754   6.947  10.035 -1.2582  0.3085  3.2818
  114OSM    C8S11889   2.833   6.739  10.039 -0.4190  0.3875  0.1328
  114OSM    H8S11890   2.777   6.684  10.118  0.8682  0.4917  1.1550
  114OSM    H8T11891   2.935   6.697  10.052  0.0135  1.4153  0.1695
  114OSM    C9S11892   2.781   6.710   9.891 -0.0573  0.3919  0.4632
  114OSM    H9S11893   2.672   6.732   9.887  0.3230  2.2839 -1.9686
  114OSM    H9T11894   2.781   6.601   9.870  0.2154  0.5246 -0.2565
  114OSM   C10S11895   2.858   6.787   9.795  0.1086 -0.3953 -0.1610
  114OSM   H10S11896   2.967   6.777   9.816 -0.2882 -2.3829  1.2468
  114OSM   H10T11897   2.838   6.894   9.820 -1.4166 -0.9921  1.4015
  114OSM   C11S11898   2.803   6.766   9.653  0.4217  0.4353 -0.0124
  114OSM   H11S11899   2.694   6.779   9.637  0.6436  1.3062 -0.9349
  114OSM   H11T11900   2.821   6.657   9.637  0.0599  0.0316  2.0670
  114OSM   C12S11901   2.868   6.849   9.541  0.0133 -0.0481  0.8916
  114OSM   H12S11902   2.969   6.869   9.583 -1.5590  2.2250  4.0481
  114OSM   H12T11903   2.819   6.948   9.534  0.3544 -0.0113 -1.5385
  114OSM   C13S11904   2.895   6.779   9.402 -0.0551  0.2496  0.8611
  114OSM   H13S11905   2.796   6.750   9.360 -0.0338 -0.1629  1.0907
  114OSM   H13T11906   2.947   6.685   9.430 -0.2694 -1.0391 -2.5190
  114OSM   C14S11907   2.982   6.857   9.307  0.0524  0.3584 -0.6177
  114OSM   H14S11908   3.051   6.920   9.366 -2.4674  1.5268  1.2341
  114OSM   H14T11909   2.927   6.921   9.235 -2.0470 -0.4999  0.1603
  114OSM   C15S11910   3.075   6.765   9.220 -0.0783  0.6469  0.6252
  114OSM   H15S11911   3.018   6.714   9.140 -1.3742  2.1144  0.5569
  114OSM   H15T11912   3.128   6.688   9.279  0.8197  1.1867  0.5440
  114OSM   C16S11913   3.182   6.850   9.147 -1.0372 -0.4567  0.1449
  114OSM   H16S11914   3.229   6.910   9.228 -1.2398 -0.4780  0.2811
  114OSM   H16T11915   3.141   6.923   9.075  1.6227  1.6865  0.6362
  114OSM   C17S11916   3.276   6.765   9.066 -0.6684  0.0904 -0.0357
  114OSM   H17S11917   3.210   6.704   9.002  2.1602 -1.1177 -2.0076
  114OSM   H17T11918   3.323   6.692   9.135  0.5866  1.5304  0.6945
  114OSM   C18S11919   3.375   6.839   8.978  0.8260 -0.3885  0.3498
  114OSM   H18S11920   3.467   6.882   9.024  2.1324 -0.8763 -1.6504
  114OSM   H18T11921   3.319   6.923   8.932  1.7652 -0.5459 -1.1748
  114OSM   H18U11922   3.407   6.774   8.893  4.1655  1.3555  0.1016
  114OSM    C1F11923   2.942   6.364  10.398 -0.3333  0.7407 -0.2556
  114OSM     OF11924   2.835   6.329  10.448  0.1986 -0.0575  0.7000
  114OSM    C2F11925   2.996   6.274  10.288  0.1448  0.0516 -0.2966
  114OSM    H2F11926   2.909   6.206  10.284 -0.3321  0.5169  1.2483
  114OSM    H2G11927   3.081   6.211  10.323  0.7313 -0.1317 -1.9771
  114OSM    C3F11928   3.021   6.347  10.160  0.5250  0.3655 -1.0466
  114OSM    H3F11929   3.120   6.396  10.167  0.1262  1.0107  0.5566
  114OSM    H3G11930   2.945   6.425  10.136  1.4055  1.5187 -0.2153
  114OSM    C4F11931   3.034   6.259  10.032  0.3345  0.5194  0.0002
  114OSM    H4F11932   2.949   6.188  10.030  0.6473  0.1237  0.6876
  114OSM    H4G11933   3.124   6.194  10.033 -0.5207 -0.6897  0.3108
  114OSM    C5F11934   3.041   6.357   9.917  0.1458  0.5357  0.3820
  114OSM    H5F11935   3.132   6.420   9.927 -0.4040  1.8418 -1.9961
  114OSM    H5G11936   2.958   6.430   9.912  0.1544  0.7631  2.7182
  114OSM    C6F11937   3.046   6.302   9.775 -0.6532 -0.0171  0.4908
  114OSM    H6F11938   2.956   6.245   9.742 -0.2349  0.5228 -1.8021
  114OSM    H6G11939   3.125   6.224   9.778 -0.3888  0.0524 -2.1378
  114OSM    C7F11940   3.069   6.418   9.678  0.5629  0.7317  0.2427
  114OSM    H7F11941   3.174   6.452   9.689  1.5556 -1.8789 -0.3090
  114OSM    H7G11942   2.993   6.495   9.701 -1.0521 -1.1426  1.4992
  114OSM    C8F11943   3.050   6.387   9.526  0.7677 -0.1167  0.1076
  114OSM    H8F11944   3.036   6.488   9.480  0.9951  0.9429  2.2471
  114OSM    H8G11945   2.958   6.328   9.511  1.5420 -1.1812 -0.6037
  114OSM    C9F11946   3.171   6.313   9.466  0.2852 -0.0514  0.0964
  114OSM    H9F11947   3.228   6.248   9.534  1.4327  1.0868  0.2499
  114OSM   C10F11948   3.209   6.313   9.338 -0.1232  0.4609 -0.3688
  114OSM   H10F11949   3.305   6.263   9.315  0.1370  0.0897  1.3883
  114OSM   C11F11950   3.143   6.394   9.225 -0.2621  0.2072 -0.1526
  114OSM   H11F11951   3.211   6.467   9.176 -0.2583  1.2439  1.3115
  114OSM   H11G11952   3.063   6.459   9.269 -0.8462 -0.3575 -0.3715
  114OSM   C12F11953   3.092   6.305   9.113 -0.0608 -0.2860  0.5243
  114OSM   H12F11954   3.003   6.245   9.143 -0.0066 -0.8302 -0.3469
  114OSM   H12G11955   3.168   6.233   9.077 -0.3286 -0.1425 -0.3682
  114OSM   C13F11956   3.053   6.384   8.991  0.9936  1.1121 -0.4176
  114OSM   H13F11957   3.143   6.424   8.939  2.4127 -2.0304 -0.6102
  114OSM   H13G11958   3.013   6.479   9.034  0.9007  0.4047  1.1528
  114OSM   C14F11959   2.970   6.308   8.888  0.0720 -1.0130  0.2277
  114OSM   H14F11960   2.885   6.260   8.941 -1.1815 -1.3900 -1.9959
  114OSM   H14G11961   3.036   6.245   8.825  0.4284  0.3391 -0.7985
  114OSM   C15F11962   2.894   6.406   8.797 -0.1477 -0.1578  0.4605
  114OSM   H15F11963   2.955   6.492   8.762 -0.6127  0.3829  0.9545
  114OSM   H15G11964   2.808   6.447   8.856 -0.5239  0.5218 -0.5353
  114OSM   C16F11965   2.826   6.335   8.679  0.6789  0.3531 -0.3558
  114OSM   H16F11966   2.773   6.248   8.724  0.1900  0.3344 -0.9675
  114OSM   H16G11967   2.896   6.293   8.603 -1.4424 -0.7192 -1.8359
  114OSM   C17F11968   2.727   6.432   8.616 -0.1552 -0.9950 -0.2131
  114OSM   H17F11969   2.791   6.514   8.576 -0.1803  0.0318  1.6877
  114OSM   H17G11970   2.657   6.478   8.689  2.0455  0.7425  0.9414
  114OSM   C18F11971   2.656   6.385   8.485 -0.1404 -0.2296 -0.1429
  114OSM   H18F11972   2.582   6.305   8.509  0.4023 -1.2373 -1.7099
  114OSM   H18G11973   2.735   6.336   8.424 -0.9151 -1.6465 -0.0537
  114OSM   H18H11974   2.608   6.470   8.432  0.9187  1.2242  1.1509
  115OSM      N11975   6.615   5.088  11.048 -0.4841  0.2804 -0.1540
  115OSM    C1511976   6.634   4.955  10.979 -0.4545 -0.0628 -0.6021
  115OSM   H15A11977   6.702   4.951  10.895 -0.3514 -0.4587 -0.5027
  115OSM   H15B11978   6.542   4.923  10.932 -0.2198 -0.9016 -0.5138
  115OSM   H15C11979   6.654   4.884  11.058  0.5141  1.6568  0.7630
  115OSM    C1411980   6.559   5.184  10.949  0.2400 -0.1901 -0.6773
  115OSM   H14A11981   6.633   5.206  10.873  2.0863  0.4505  1.1898
  115OSM   H14B11982   6.542   5.281  10.994  2.5311  0.3528 -0.8601
  115OSM   H14C11983   6.467   5.156  10.901 -1.0994  0.8805  1.1287
  115OSM    C1311984   6.512   5.075  11.147  0.2921  0.3489 -0.0772
  115OSM   H13A11985   6.410   5.064  11.111 -0.4650  0.5675  1.8753
  115OSM   H13B11986   6.502   5.164  11.207  0.4259 -0.7942  1.7440
  115OSM   H13C11987   6.519   4.989  11.213  2.5135  0.0561 -0.6106
  115OSM    C1211988   6.744   5.144  11.102 -0.2293 -0.4270  0.1753
  115OSM   H12A11989   6.783   5.086  11.185  2.5757  0.5062 -0.3809
  115OSM   H12B11990   6.713   5.241  11.136 -0.7761  0.2966 -2.2182
  115OSM    C1111991   6.861   5.153  11.005  0.0990  0.4089 -0.6748
  115OSM   H11A11992   6.885   5.051  10.967 -0.4448 -0.0364  0.1346
  115OSM   H11B11993   6.954   5.192  11.050 -0.8268 -0.5386  2.2908
  115OSM      P11994   6.829   5.387  10.901 -0.1723  0.1048 -0.4001
  115OSM    O1311995   6.757   5.432  11.024  0.2191  1.0257 -0.5405
  115OSM    O1411996   6.958   5.455  10.877 -0.5629 -0.2301  0.0365
  115OSM    O1111997   6.726   5.423  10.780  0.0175 -0.0652 -0.3507
  115OSM    O1211998   6.833   5.228  10.888 -0.9160  0.2470  0.1036
  115OSM    C1S11999   6.766   5.392  10.644 -0.2824 -0.1651 -0.3337
  115OSM    H1S12000   6.830   5.301  10.642 -1.2823 -0.8894 -0.2677
  115OSM    H1T12001   6.829   5.478  10.613 -3.6816  2.4174 -0.6930
  115OSM     NF12002   6.709   5.326  10.428 -0.0185 -0.2136 -0.2689
  115OSM    HNF12003   6.756   5.386  10.364  1.0120  0.2161  0.8564
  115OSM    C2S12004   6.651   5.385  10.540 -0.8120 -0.3665 -0.8068
  115OSM    H2S12005   6.570   5.319  10.578  0.7592 -0.3097  3.0427
  115OSM    C3S12006   6.594   5.526  10.522  0.1985 -0.1832  0.0904
  115OSM    H3S12007   6.676   5.593  10.489 -0.2421  0.2388 -0.1667
  115OSM     O312008   6.548   5.590  10.644 -0.2540  0.3986  0.2062
  115OSM    HO312009   6.579   5.538  10.719 -1.3962  0.5393  0.7871
  115OSM    C4S12010   6.479   5.524  10.417 -0.5670 -0.4250 -0.1532
  115OSM    H4S12011   6.513   5.507  10.314 -1.3391 -0.4390 -0.4154
  115OSM    C5S12012   6.345   5.531  10.430  0.4327  0.3454  0.0966
  115OSM    H5S12013   6.299   5.533  10.530 -2.2347  1.2615 -1.0722
  115OSM    C6S12014   6.248   5.516  10.319  0.6896  0.2958 -0.0135
  115OSM    H6S12015   6.171   5.597  10.322 -1.1786 -1.4128 -0.0641
  115OSM    H6T12016   6.193   5.420  10.313  0.0483  0.7134 -0.9950
  115OSM    C7S12017   6.312   5.522  10.185  0.3512 -0.1482 -0.6391
  115OSM    H7S12018   6.372   5.430  10.172  0.8140 -0.2431  1.6403
  115OSM    H7T12019   6.382   5.608  10.176  1.8257 -1.3756 -1.4319
  115OSM    C8S12020   6.213   5.530  10.069  0.5821  0.1680 -0.0972
  115OSM    H8S12021   6.151   5.623  10.075 -2.3176 -1.5988 -0.6314
  115OSM    H8T12022   6.148   5.441  10.079  1.3231 -0.4327 -0.5740
  115OSM    C9S12023   6.299   5.538   9.941 -0.4728  1.0913  0.7498
  115OSM    H9S12024   6.381   5.467   9.922 -0.4214  1.8107 -2.2416
  115OSM    H9T12025   6.352   5.636   9.942 -0.2715  0.9810  0.7599
  115OSM   C10S12026   6.215   5.553   9.812 -0.7067  0.3726  0.3024
  115OSM   H10S12027   6.148   5.642   9.813  1.0719  1.8251 -1.2348
  115OSM   H10T12028   6.144   5.468   9.801 -1.4659  0.9653  0.4703
  115OSM   C11S12029   6.311   5.578   9.694 -0.9829  0.1062 -0.0825
  115OSM   H11S12030   6.377   5.488   9.689  0.9215  1.3618  1.0648
  115OSM   H11T12031   6.365   5.672   9.718  1.7291 -1.2722 -0.3324
  115OSM   C12S12032   6.235   5.584   9.564 -0.2790 -0.0675  0.3089
  115OSM   H12S12033   6.173   5.676   9.573 -1.9212 -1.1405  0.2643
  115OSM   H12T12034   6.177   5.492   9.545  0.1256 -0.5570  1.3339
  115OSM   C13S12035   6.326   5.618   9.445 -0.3035  0.0066 -0.1232
  115OSM   H13S12036   6.403   5.539   9.437 -0.8990 -0.8369  1.8666
  115OSM   H13T12037   6.386   5.711   9.460 -0.5543  0.2139 -0.4142
  115OSM   C14S12038   6.264   5.616   9.308 -0.7847 -0.4378  0.1352
  115OSM   H14S12039   6.162   5.661   9.309 -0.6646 -0.1703  0.3249
  115OSM   H14T12040   6.256   5.508   9.282  1.2465 -0.5876  0.0247
  115OSM   C15S12041   6.356   5.676   9.194 -0.5806 -0.0774 -0.8722
  115OSM   H15S12042   6.461   5.643   9.202  0.9347  2.6879 -5.3301
  115OSM   H15T12043   6.359   5.786   9.210  0.5972  0.3142 -3.3028
  115OSM   C16S12044   6.303   5.659   9.051  0.0837 -0.0350 -0.4433
  115OSM   H16S12045   6.212   5.721   9.043  1.3714  2.3737  2.0192
  115OSM   H16T12046   6.284   5.554   9.019 -0.3927  0.3009 -1.2859
  115OSM   C17S12047   6.393   5.707   8.944 -0.2115 -0.3320  0.3841
  115OSM   H17S12048   6.491   5.655   8.946 -0.3606 -0.6189  0.2444
  115OSM   H17T12049   6.405   5.817   8.946 -1.3927 -0.0598 -2.2850
  115OSM   C18S12050   6.337   5.682   8.805 -0.4338  0.0481 -0.4135
  115OSM   H18S12051   6.260   5.756   8.774 -1.0495 -1.3402 -2.3062
  115OSM   H18T12052   6.290   5.582   8.800 -0.7256 -0.2412  3.8122
  115OSM   H18U12053   6.422   5.670   8.735  0.0347 -0.7275  0.2756
  115OSM    C1F12054   6.728   5.191  10.419 -0.2366 -0.0220 -0.5795
  115OSM     OF12055   6.689   5.120  10.511 -0.6618  0.1090 -0.6581
  115OSM    C2F12056   6.805   5.135  10.299 -0.3306  0.1169  0.1572
  115OSM    H2F12057   6.906   5.175  10.318 -0.0481 -1.1157  1.3948
  115OSM    H2G12058   6.761   5.179  10.207  1.1229 -0.6292 -0.9300
  115OSM    C3F12059   6.796   4.980  10.294  0.5528 -0.0667 -0.8663
  115OSM    H3F12060   6.696   4.939  10.320  1.0198 -1.3706 -1.0474
  115OSM    H3G12061   6.864   4.938  10.371  3.7661  2.9272 -1.8137
  115OSM    C4F12062   6.829   4.927  10.159  0.1815 -0.2729  1.2828
  115OSM    H4F12063   6.761   4.951  10.075  1.4526 -0.7562  0.0812
  115OSM    H4G12064   6.838   4.817  10.163  0.5913 -0.3226 -0.4062
  115OSM    C5F12065   6.968   4.961  10.102 -0.5920 -0.2680  0.8211
  115OSM    H5F12066   7.000   4.875  10.039 -0.2432  0.8812 -0.6151
  115OSM    H5G12067   7.040   4.957  10.186 -0.6714 -2.3398  0.8386
  115OSM    C6F12068   6.981   5.087  10.018  0.3242  0.4160  0.0885
  115OSM    H6F12069   7.091   5.084  10.003  0.3227 -1.2615  0.1593
  115OSM    H6G12070   6.932   5.165  10.079 -1.9873 -1.0962  0.2998
  115OSM    C7F12071   6.927   5.100   9.873  0.0172 -0.5401  0.3225
  115OSM    H7F12072   6.960   5.197   9.829  0.9388 -0.2974  1.4851
  115OSM    H7G12073   6.818   5.114   9.888  0.1961  0.9798  0.4118
  115OSM    C8F12074   6.954   4.972   9.783  0.0244 -0.7514 -0.4352
  115OSM    H8F12075   6.884   4.993   9.699 -0.0339  1.0076  0.0084
  115OSM    H8G12076   6.922   4.881   9.838  1.4744 -0.3615  1.1287
  115OSM    C9F12077   7.097   4.948   9.744 -0.2776 -0.0566  0.4465
  115OSM    H9F12078   7.165   4.963   9.829  0.6667 -2.0295  0.0957
  115OSM   C10F12079   7.152   4.931   9.619  0.1363  0.0362 -0.0357
  115OSM   H10F12080   7.260   4.910   9.614 -0.0901 -1.2630  0.0696
  115OSM   C11F12081   7.070   4.932   9.493 -0.4535 -0.0037  0.4786
  115OSM   H11F12082   6.966   4.911   9.526 -0.3753  0.9703  1.4038
  115OSM   H11G12083   7.095   4.853   9.420  2.4153  0.3147  0.9906
  115OSM   C12F12084   7.068   5.061   9.419 -0.3655  0.0442  0.1236
  115OSM   H12F12085   7.170   5.085   9.380  0.3559  0.0792  1.8899
  115OSM   H12G12086   7.050   5.141   9.494 -0.5328 -0.2413  0.3900
  115OSM   C13F12087   6.955   5.067   9.317 -0.2025 -0.0267  0.4268
  115OSM   H13F12088   6.957   5.171   9.278 -0.5584  0.2784  1.2027
  115OSM   H13G12089   6.854   5.051   9.361 -0.6529  2.2372  0.3642
  115OSM   C14F12090   6.971   4.966   9.200 -0.5959  0.4563  0.4560
  115OSM   H14F12091   6.990   4.866   9.246  2.7158  0.9618  0.4431
  115OSM   H14G12092   7.061   4.980   9.137  0.3894 -2.0171  1.1703
  115OSM   C15F12093   6.853   4.974   9.102 -0.2014  0.5468  0.0443
  115OSM   H15F12094   6.824   5.080   9.087 -0.5638  0.7024  1.6589
  115OSM   H15G12095   6.765   4.924   9.147  0.2567 -1.8765 -1.5453
  115OSM   C16F12096   6.865   4.893   8.975  0.5297 -0.4786 -0.0212
  115OSM   H16F12097   6.903   4.791   8.997  0.2277 -0.5358  0.2338
  115OSM   H16G12098   6.947   4.929   8.909 -1.6877 -0.0628 -2.7133
  115OSM   C17F12099   6.732   4.883   8.891 -0.0013 -0.1062 -0.1272
  115OSM   H17F12100   6.731   4.960   8.811  1.8882  1.4284  1.2228
  115OSM   H17G12101   6.646   4.921   8.951  0.9019 -0.9060  1.7777
  115OSM   C18F12102   6.710   4.753   8.825 -1.1381  0.4504  0.9668
  115OSM   H18F12103   6.613   4.755   8.771 -1.5753  3.6151  1.6719
  115OSM   H18G12104   6.711   4.664   8.891 -1.4561  0.8711  1.5498
  115OSM   H18H12105   6.779   4.732   8.741 -2.4427 -1.1496  0.2279
  116OSM      N12106   3.705   2.735  10.958 -0.4935  0.5266  0.9515
  116OSM    C1512107   3.630   2.832  10.867 -0.1833 -0.1752 -0.1390
  116OSM   H15A12108   3.701   2.876  10.799 -1.2290  0.5718 -0.7944
  116OSM   H15B12109   3.589   2.918  10.919 -0.3730 -0.2803 -0.1150
  116OSM   H15C12110   3.555   2.785  10.804 -0.6258 -0.3488  0.5086
  116OSM    C1412111   3.608   2.650  11.030  0.7700  0.4276  0.5334
  116OSM   H14A12112   3.544   2.608  10.953  1.0231  0.0092  0.5513
  116OSM   H14B12113   3.548   2.714  11.093  0.0726  0.3834 -0.0585
  116OSM   H14C12114   3.661   2.576  11.086  0.9559  1.6611  2.0578
  116OSM    C1312115   3.792   2.649  10.869 -0.0351  0.3737 -0.1263
  116OSM   H13A12116   3.851   2.712  10.803  0.4182 -0.0552 -0.1410
  116OSM   H13B12117   3.741   2.577  10.807  1.9749 -1.1810 -0.0663
  116OSM   H13C12118   3.852   2.590  10.936  1.7723  2.9014  0.6387
  116OSM    C1212119   3.789   2.817  11.056  0.3308 -0.2103  0.4842
  116OSM   H12A12120   3.829   2.742  11.123 -2.1463 -0.2884  2.0033
  116OSM   H12B12121   3.732   2.897  11.102 -1.8105  0.0607 -2.3913
  116OSM    C1112122   3.916   2.888  10.998 -0.3964 -0.0932  0.0305
  116OSM   H11A12123   3.986   2.821  10.944  0.7211  1.6834 -0.8238
  116OSM   H11B12124   3.981   2.926  11.079  1.4615 -1.7657 -0.5986
  116OSM      P12125   3.827   3.133  10.939 -0.1603 -0.1752 -0.2296
  116OSM    O1312126   3.687   3.121  10.985 -0.5170 -0.1352 -0.5089
  116OSM    O1412127   3.925   3.207  11.026  0.2208 -0.3119 -0.5981
  116OSM    O1112128   3.820   3.204  10.798 -0.3612  0.1488  0.2083
  116OSM    O1212129   3.884   2.993  10.904  0.1529 -0.1752 -0.7476
  116OSM    C1S12130   3.796   3.144  10.676  0.5560  0.6756  0.4766
  116OSM    H1S12131   3.798   3.033  10.674 -0.8599  0.6419 -0.1327
  116OSM    H1T12132   3.880   3.169  10.607  1.2298  0.7333  1.2922
  116OSM     NF12133   3.646   3.136  10.482  0.5254 -0.3415  0.0764
  116OSM    HNF12134   3.655   3.208  10.414 -1.7732  0.2347  0.3131
  116OSM    C2S12135   3.664   3.194  10.610  0.1507 -0.2513 -0.1477
  116OSM    H2S12136   3.580   3.156  10.671  1.2618 -1.2852  0.7919
  116OSM    C3S12137   3.661   3.351  10.611  0.4491  0.1533 -0.2543
  116OSM    H3S12138   3.746   3.390  10.552  1.5661  1.6600  2.1500
  116OSM     O312139   3.662   3.416  10.736  0.5281  0.3919  0.1466
  116OSM    HO312140   3.678   3.343  10.796  0.8749  0.6856  0.4216
  116OSM    C4S12141   3.539   3.406  10.542  0.5312 -0.2081  0.2066
  116OSM    H4S12142   3.443   3.357  10.565 -0.7383  2.2841  0.5520
  116OSM    C5S12143   3.549   3.490  10.432  0.3075  0.1651 -0.0295
  116OSM    H5S12144   3.646   3.529  10.398 -0.4364  0.8047 -1.5019
  116OSM    C6S12145   3.443   3.535  10.340 -0.0523 -0.0609 -0.2708
  116OSM    H6S12146   3.483   3.586  10.250 -0.4380  0.9911  0.1367
  116OSM    H6T12147   3.386   3.613  10.394 -0.0308 -2.0291  2.7905
  116OSM    C7S12148   3.353   3.426  10.287 -0.4482  0.5599  0.2317
  116OSM    H7S12149   3.326   3.366  10.377  1.4064  0.3312  0.6700
  116OSM    H7T12150   3.405   3.357  10.217 -1.3988  1.8746 -1.8651
  116OSM    C8S12151   3.214   3.475  10.243  0.6980 -0.0487  0.5540
  116OSM    H8S12152   3.202   3.585  10.256 -1.8421 -0.4557  2.4943
  116OSM    H8T12153   3.133   3.431  10.306  0.4569  0.4368  0.5962
  116OSM    C9S12154   3.185   3.457  10.090 -0.1139  0.0269 -0.8399
  116OSM    H9S12155   3.085   3.499  10.070 -0.4977 -1.5836 -2.6298
  116OSM    H9T12156   3.188   3.349  10.065  2.5774 -0.2145  0.2002
  116OSM   C10S12157   3.296   3.521  10.005  0.4610 -0.3035 -0.1798
  116OSM   H10S12158   3.381   3.451  10.012  0.2029 -0.7802 -1.5637
  116OSM   H10T12159   3.325   3.622  10.042 -0.3910 -0.4140  0.8489
  116OSM   C11S12160   3.264   3.534   9.846 -0.3059  0.4796 -0.3541
  116OSM   H11S12161   3.271   3.644   9.830 -0.9656  0.2000 -3.1200
  116OSM   H11T12162   3.164   3.490   9.830 -0.2693  0.4257 -0.4398
  116OSM   C12S12163   3.367   3.478   9.742 -0.5107 -0.0366 -0.3789
  116OSM   H12S12164   3.350   3.368   9.743 -0.5860 -0.0227  0.8377
  116OSM   H12T12165   3.471   3.492   9.778  0.2306 -0.5345 -2.1711
  116OSM   C13S12166   3.348   3.534   9.602  0.3879 -0.6845  0.2670
  116OSM   H13S12167   3.374   3.642   9.604 -0.3529 -0.4877 -0.3279
  116OSM   H13T12168   3.242   3.533   9.572  0.4981 -1.0445 -0.1169
  116OSM   C14S12169   3.415   3.459   9.488  0.2561  0.7470 -0.1914
  116OSM   H14S12170   3.380   3.354   9.497 -0.0144  0.7907 -0.6973
  116OSM   H14T12171   3.525   3.456   9.509  0.5535 -1.2262 -1.6597
  116OSM   C15S12172   3.384   3.513   9.352  0.1103 -0.1188  1.3644
  116OSM   H15S12173   3.437   3.608   9.330 -2.6122  1.1872  0.0028
  116OSM   H15T12174   3.281   3.551   9.336  1.4838  3.9138  0.8119
  116OSM   C16S12175   3.407   3.413   9.238  0.4061 -0.6964 -0.4896
  116OSM   H16S12176   3.322   3.342   9.233  0.9954 -1.3790 -0.9375
  116OSM   H16T12177   3.503   3.358   9.245  1.3913  0.8672 -1.1184
  116OSM   C17S12178   3.405   3.490   9.103  0.0638 -0.4297  0.4796
  116OSM   H17S12179   3.440   3.423   9.022 -2.5057  1.3332 -2.2713
  116OSM   H17T12180   3.461   3.585   9.101 -1.7702  0.6809 -0.4972
  116OSM   C18S12181   3.264   3.536   9.052 -0.3330  0.0632  0.2265
  116OSM   H18S12182   3.191   3.453   9.039 -1.0496  0.8297 -0.7887
  116OSM   H18T12183   3.277   3.569   8.947  0.3370  0.4518  0.4256
  116OSM   H18U12184   3.219   3.621   9.107 -0.0077 -0.3364  1.1308
  116OSM    C1F12185   3.639   3.003  10.456 -0.4080 -0.5919  0.0182
  116OSM     OF12186   3.634   2.920  10.547 -0.3546 -0.2588  0.2348
  116OSM    C2F12187   3.631   2.971  10.311 -0.5419 -0.5426 -0.0478
  116OSM    H2F12188   3.702   3.027  10.247  0.2271 -1.4502 -0.0139
  116OSM    H2G12189   3.531   3.004  10.275  0.1838 -1.9309 -3.8817
  116OSM    C3F12190   3.658   2.826  10.293 -0.0088 -0.7151  0.7078
  116OSM    H3F12191   3.578   2.771  10.347 -0.3764  0.1301  1.0510
  116OSM    H3G12192   3.758   2.799  10.332  0.9845  1.7423  0.0653
  116OSM    C4F12193   3.652   2.796  10.139 -0.2474  0.1271  1.0192
  116OSM    H4F12194   3.727   2.853  10.080  0.4128 -2.8259 -1.2443
  116OSM    H4G12195   3.545   2.809  10.113  0.0579  0.3915 -0.1517
  116OSM    C5F12196   3.682   2.652  10.099 -1.1562 -0.2575  0.6199
  116OSM    H5F12197   3.599   2.591  10.142 -2.0033 -0.5889 -1.3737
  116OSM    H5G12198   3.781   2.630  10.145 -0.5548  3.9037  1.7244
  116OSM    C6F12199   3.698   2.646   9.945 -0.3227  0.0952 -0.5227
  116OSM    H6F12200   3.723   2.540   9.922 -2.0208 -0.7272  1.1241
  116OSM    H6G12201   3.791   2.699   9.915  1.0320 -1.8132  0.0830
  116OSM    C7F12202   3.582   2.711   9.865 -0.8115  0.8304 -0.1085
  116OSM    H7F12203   3.602   2.819   9.847 -2.3985  1.2434  0.4720
  116OSM    H7G12204   3.492   2.705   9.929 -0.3245  0.7959  0.5828
  116OSM    C8F12205   3.561   2.641   9.737  0.2445 -0.6532  0.6847
  116OSM    H8F12206   3.458   2.663   9.702  1.0579  1.9499 -0.2938
  116OSM    H8G12207   3.567   2.531   9.754 -0.5323 -1.0788 -1.4357
  116OSM    C9F12208   3.657   2.683   9.628 -0.1380  0.0041  0.3268
  116OSM    H9F12209   3.753   2.712   9.674 -0.4546  0.5569  0.6456
  116OSM   C10F12210   3.641   2.682   9.497 -0.0040  0.2301 -0.1189
  116OSM   H10F12211   3.729   2.690   9.432 -0.1252 -0.9463 -0.4539
  116OSM   C11F12212   3.520   2.634   9.419  0.3027 -0.7896 -0.3883
  116OSM   H11F12213   3.448   2.718   9.421 -0.3350 -1.1488 -3.3749
  116OSM   H11G12214   3.489   2.541   9.471  0.6989  1.1609  3.7688
  116OSM   C12F12215   3.563   2.603   9.277 -0.4859  0.1413 -0.4951
  116OSM   H12F12216   3.653   2.537   9.269 -1.3783 -1.5647  2.0436
  116OSM   H12G12217   3.582   2.695   9.219 -0.7868  1.3011  1.1649
  116OSM   C13F12218   3.440   2.549   9.204  0.0657  0.5351 -0.3606
  116OSM   H13F12219   3.347   2.600   9.237 -0.8808 -0.6591 -1.1221
  116OSM   H13G12220   3.420   2.447   9.243 -0.9362 -0.1137 -2.4404
  116OSM   C14F12221   3.464   2.562   9.057 -0.1730 -0.0172  0.5249
  116OSM   H14F12222   3.569   2.529   9.042  0.0679  1.7403 -2.4809
  116OSM   H14G12223   3.464   2.662   9.009  0.5992  0.4358  1.4445
  116OSM   C15F12224   3.370   2.460   8.979  0.2555 -0.2440 -0.6859
  116OSM   H15F12225   3.361   2.365   9.035  0.2932  0.4303  0.4819
  116OSM   H15G12226   3.422   2.420   8.889  0.3990 -0.8174 -0.3532
  116OSM   C16F12227   3.234   2.520   8.944 -0.5491  0.3743 -0.7136
  116OSM   H16F12228   3.233   2.572   8.846  1.5079  1.4738 -0.1953
  116OSM   H16G12229   3.216   2.603   9.016 -1.3521  0.3606 -0.8871
  116OSM   C17F12230   3.107   2.429   8.946 -0.1318  0.2814 -0.0232
  116OSM   H17F12231   3.023   2.501   8.952 -0.9587 -0.7023  0.4562
  116OSM   H17G12232   3.100   2.362   9.034  3.6637 -0.3149 -0.0103
  116OSM   C18F12233   3.100   2.347   8.814 -1.2504  0.3537 -0.0621
  116OSM   H18F12234   3.114   2.426   8.736  0.7815  2.2968  2.1348
  116OSM   H18G12235   3.002   2.295   8.818  0.3490 -2.8070  2.3408
  116OSM   H18H12236   3.179   2.269   8.808  0.2735  1.6141  2.3443
  117OSM      N12237   1.206   3.774  10.996 -0.1739  0.3685  0.0792
  117OSM    C1512238   1.126   3.767  11.124 -0.2005  0.0988  0.0874
  117OSM   H15A12239   1.067   3.677  11.120 -0.2398  0.1696 -1.4044
  117OSM   H15B12240   1.053   3.847  11.124  1.1291  1.4515 -2.5325
  117OSM   H15C12241   1.194   3.775  11.208 -1.0842  1.2178  0.7339
  117OSM    C1412242   1.286   3.886  11.007 -0.8963  0.1181 -0.1086
  117OSM   H14A12243   1.233   3.980  11.004 -1.4791 -0.2203 -0.9523
  117OSM   H14B12244   1.362   3.886  10.930 -1.3425 -1.9183 -0.5991
  117OSM   H14C12245   1.351   3.885  11.093 -1.9273  0.1883  0.6933
  117OSM    C1312246   1.293   3.657  10.970 -0.8965  0.3374 -0.8379
  117OSM   H13A12247   1.370   3.666  10.895  1.3433  1.1071  1.3606
  117OSM   H13B12248   1.240   3.567  10.944 -1.4680  0.7889 -1.2545
  117OSM   H13C12249   1.347   3.640  11.062 -2.3356  1.2015  0.2091
  117OSM    C1212250   1.104   3.785  10.884  0.3807 -0.1372 -0.4513
  117OSM   H12A12251   1.042   3.697  10.885 -0.6465  0.5635  0.8746
  117OSM   H12B12252   1.160   3.776  10.792  1.9421 -3.4721  0.6612
  117OSM    C1112253   1.014   3.914  10.882  0.3324  0.7352  0.3611
  117OSM   H11A12254   0.967   3.902  10.782  1.9806 -2.1999 -0.1864
  117OSM   H11B12255   1.089   3.996  10.886  0.7604  0.3541  0.2047
  117OSM      P12256   0.785   3.854  10.984  0.1970  0.0121  0.0117
  117OSM    O1312257   0.798   3.711  10.947  0.1247  0.4420 -0.3466
  117OSM    O1412258   0.713   3.889  11.108  0.0174 -0.5306 -0.3159
  117OSM    O1112259   0.722   3.920  10.852  0.2530 -0.5594 -0.2786
  117OSM    O1212260   0.922   3.923  10.992 -0.3403 -0.0471  0.3848
  117OSM    C1S12261   0.693   4.062  10.848 -0.1592 -0.3106  0.3974
  117OSM    H1S12262   0.789   4.118  10.851 -1.6584  2.5349 -1.0647
  117OSM    H1T12263   0.638   4.094  10.938  1.0190  0.1705  0.9696
  117OSM     NF12264   0.650   4.245  10.697 -0.3468 -0.5216 -0.2712
  117OSM    HNF12265   0.581   4.309  10.732  0.0129 -0.1300 -0.2757
  117OSM    C2S12266   0.617   4.106  10.720  0.1277  0.3156  0.6033
  117OSM    H2S12267   0.644   4.047  10.629 -0.2365  3.0463 -1.3908
  117OSM    C3S12268   0.468   4.083  10.746 -0.0672 -0.9526  0.0997
  117OSM    H3S12269   0.442   4.150  10.831  1.5196  0.4287 -0.4707
  117OSM     O312270   0.432   3.950  10.782 -0.5152 -0.6215  0.7108
  117OSM    HO312271   0.514   3.904  10.800  0.9823  1.7807  0.4453
  117OSM    C4S12272   0.388   4.122  10.626  0.0373 -0.3922  0.4218
  117OSM    H4S12273   0.312   4.201  10.639 -0.0479 -0.5032  0.5980
  117OSM    C5S12274   0.394   4.057  10.499  0.3237 -0.4704 -1.2871
  117OSM    H5S12275   0.456   3.968  10.480  2.0113  0.0777  1.1570
  117OSM    C6S12276   0.324   4.104  10.377 -0.6283  0.0689 -0.3683
  117OSM    H6S12277   0.341   4.019  10.307 -1.5613 -0.3743 -0.0799
  117OSM    H6T12278   0.377   4.188  10.328 -2.2637 -0.5646 -3.4800
  117OSM    C7S12279   0.169   4.121  10.378  0.5494 -0.8666 -0.0654
  117OSM    H7S12280   0.123   4.189  10.452  1.2251  0.8970 -1.2025
  117OSM    H7T12281   0.131   4.021  10.409  0.1516 -1.1849 -1.5008
  117OSM    C8S12282   0.118   4.161  10.240  0.2044 -0.0299 -0.0003
  117OSM    H8S12283   0.175   4.252  10.212  1.4236 -0.7436  0.0875
  117OSM    H8T12284   0.013   4.197  10.244 -0.7964 -2.5050 -1.4123
  117OSM    C9S12285   0.131   4.057  10.130  0.1956 -0.2118 -0.2459
  117OSM    H9S12286   0.071   3.967  10.152  0.7850 -0.2813  1.1404
  117OSM    H9T12287   0.235   4.023  10.110  0.0236 -1.2157  0.5459
  117OSM   C10S12288   0.079   4.115   9.995  0.0838 -0.1765 -0.0920
  117OSM   H10S12289  -0.012   4.170  10.024 -1.0756 -1.5815 -0.9017
  117OSM   H10T12290   0.056   4.028   9.929  0.3655  0.8735 -1.6265
  117OSM   C11S12291   0.180   4.214   9.920 -0.0481  0.0727 -0.1414
  117OSM   H11S12292   0.281   4.167   9.917  0.2973  0.7705  0.2174
  117OSM   H11T12293   0.188   4.296   9.995 -0.5741  0.0751 -0.0896
  117OSM   C12S12294   0.130   4.258   9.784 -0.4258  0.2974  0.3537
  117OSM   H12S12295   0.024   4.288   9.798 -0.7070  0.4421 -1.7968
  117OSM   H12T12296   0.141   4.171   9.716 -0.0130  0.3461  0.3522
  117OSM   C13S12297   0.219   4.364   9.720 -0.7794 -0.8865  0.9086
  117OSM   H13S12298   0.324   4.330   9.737 -0.2781  0.4782  0.6184
  117OSM   H13T12299   0.199   4.450   9.787 -1.3878 -1.5043  1.5399
  117OSM   C14S12300   0.200   4.396   9.572  0.6164 -0.6779 -0.6871
  117OSM   H14S12301   0.272   4.476   9.544  3.1413 -2.6565 -0.1795
  117OSM   H14T12302   0.095   4.421   9.549  0.8845  1.6766  0.3375
  117OSM   C15S12303   0.247   4.285   9.484  0.1189 -0.5076 -0.3084
  117OSM   H15S12304   0.239   4.183   9.529  0.3630  0.7763  2.9646
  117OSM   H15T12305   0.357   4.296   9.472 -0.1163  0.0006 -2.2495
  117OSM   C16S12306   0.191   4.317   9.349 -0.3659 -0.0515 -0.6926
  117OSM   H16S12307   0.227   4.419   9.327 -1.1318 -0.4536 -4.4439
  117OSM   H16T12308   0.080   4.319   9.354 -0.3158  2.0592  1.0646
  117OSM   C17S12309   0.243   4.229   9.229 -0.1568 -0.1280 -0.2498
  117OSM   H17S12310   0.194   4.130   9.240 -1.8101  0.6379 -0.4595
  117OSM   H17T12311   0.351   4.225   9.254 -0.1346  0.2943 -0.2783
  117OSM   C18S12312   0.225   4.287   9.091 -0.3584 -0.3109  0.0915
  117OSM   H18S12313   0.117   4.288   9.064 -0.1712 -0.4546 -0.6932
  117OSM   H18T12314   0.267   4.214   9.018 -0.9701 -1.8124  1.1968
  117OSM   H18U12315   0.277   4.384   9.078 -0.5124 -0.3978 -1.4075
  117OSM    C1F12316   0.773   4.291  10.661  0.6568  0.2668 -0.8643
  117OSM     OF12317   0.805   4.404  10.707 -0.1760 -0.3099 -0.1032
  117OSM    C2F12318   0.867   4.198  10.587  0.2923 -0.6207 -0.1134
  117OSM    H2F12319   0.841   4.093  10.563  2.3991 -1.3888  0.7309
  117OSM    H2G12320   0.957   4.197  10.653  1.2245  3.4790 -1.0173
  117OSM    C3F12321   0.923   4.271  10.455  0.1127 -0.2546  0.2073
  117OSM    H3F12322   0.992   4.194  10.414  0.5476  0.2698 -0.0445
  117OSM    H3G12323   0.991   4.351  10.489  1.9388 -2.4124  1.9672
  117OSM    C4F12324   0.823   4.320  10.340 -0.4242  0.0120  0.4493
  117OSM    H4F12325   0.882   4.344  10.249  1.9226 -0.8861  1.6570
  117OSM    H4G12326   0.787   4.417  10.379  0.7375 -0.0729  1.7987
  117OSM    C5F12327   0.709   4.225  10.318 -0.0605  0.3177 -0.6739
  117OSM    H5F12328   0.648   4.237  10.409  0.1287 -3.2377  0.0736
  117OSM    H5G12329   0.755   4.124  10.325 -1.9119 -0.4704  0.7015
  117OSM    C6F12330   0.631   4.236  10.188 -0.1679 -0.0978 -0.8281
  117OSM    H6F12331   0.591   4.335  10.158 -2.5139  0.2338  2.7167
  117OSM    H6G12332   0.537   4.177  10.199 -0.6913  0.7072 -0.9611
  117OSM    C7F12333   0.715   4.175  10.079  0.1181  0.1352  0.3414
  117OSM    H7F12334   0.701   4.065  10.081  2.6020 -0.2403  2.3234
  117OSM    H7G12335   0.819   4.196  10.112  0.6822 -2.1807  0.2013
  117OSM    C8F12336   0.700   4.245   9.942  0.6599  0.1740 -0.5228
  117OSM    H8F12337   0.711   4.355   9.953 -1.4200  0.3821 -0.1667
  117OSM    H8G12338   0.592   4.229   9.921  0.5281  0.2000  0.1150
  117OSM    C9F12339   0.805   4.201   9.843  0.0105 -0.4158  0.0758
  117OSM    H9F12340   0.891   4.269   9.841 -0.0254 -0.2480  2.0073
  117OSM   C10F12341   0.830   4.082   9.789  0.1368  0.2685 -0.5259
  117OSM   H10F12342   0.914   4.065   9.720  0.5392  0.6998 -0.1518
  117OSM   C11F12343   0.739   3.959   9.806 -0.9078 -0.1922  0.1061
  117OSM   H11F12344   0.633   3.973   9.775 -0.1657 -0.0764 -2.6448
  117OSM   H11G12345   0.756   3.924   9.910  3.3204  0.7622 -0.1074
  117OSM   C12F12346   0.794   3.852   9.707 -0.5883 -0.5900  0.0841
  117OSM   H12F12347   0.743   3.755   9.724 -1.3330 -0.2045  0.0496
  117OSM   H12G12348   0.903   3.833   9.724  0.4335  1.7942 -2.8188
  117OSM   C13F12349   0.780   3.888   9.562 -0.3829  0.0542 -0.1123
  117OSM   H13F12350   0.871   3.947   9.541  2.1053 -3.2345  0.5716
  117OSM   H13G12351   0.678   3.926   9.540 -0.2294 -0.0939 -1.1721
  117OSM   C14F12352   0.789   3.771   9.465  0.4620 -0.1070 -0.1312
  117OSM   H14F12353   0.895   3.738   9.466  0.5167  0.0763  0.2174
  117OSM   H14G12354   0.769   3.813   9.364  1.6811  1.5273  0.2662
  117OSM   C15F12355   0.687   3.656   9.489  0.2431 -0.2369  0.1338
  117OSM   H15F12356   0.581   3.690   9.489  0.3974  0.2754  0.8530
  117OSM   H15G12357   0.705   3.618   9.592 -0.9025  0.5884  0.6632
  117OSM   C16F12358   0.701   3.541   9.389  0.1971  0.0579  0.3219
  117OSM   H16F12359   0.670   3.570   9.287 -1.0281 -2.9494 -0.2846
  117OSM   H16G12360   0.626   3.463   9.416 -1.4666  1.7391  0.7572
  117OSM   C17F12361   0.840   3.481   9.380 -0.7940  1.1067  0.0771
  117OSM   H17F12362   0.891   3.458   9.476 -2.2364 -3.2663 -0.0080
  117OSM   H17G12363   0.907   3.551   9.325 -1.4735  1.9767  0.3345
  117OSM   C18F12364   0.836   3.352   9.293 -0.4731 -0.5445 -0.2592
  117OSM   H18F12365   0.741   3.295   9.304 -0.0945 -1.8100 -2.7912
  117OSM   H18G12366   0.933   3.298   9.307  0.6131  1.1677 -0.8504
  117OSM   H18H12367   0.828   3.379   9.186 -0.3217 -2.4337 -0.7911
  118OSM      N12368   0.519   5.507  11.111 -0.1574  0.5699  0.7316
  118OSM    C1512369   0.602   5.453  11.221  0.0706  0.3299 -0.4038
  118OSM   H15A12370   0.641   5.532  11.284  1.2719 -0.0247 -0.6657
  118OSM   H15B12371   0.685   5.393  11.186  0.1803  0.0391  0.3548
  118OSM   H15C12372   0.548   5.391  11.291  1.8816 -0.6274  0.2167
  118OSM    C1412373   0.450   5.403  11.031  0.4020 -0.1251 -0.1701
  118OSM   H14A12374   0.359   5.441  10.985  0.2507 -1.8159 -1.3355
  118OSM   H14B12375   0.415   5.322  11.093 -2.6816  1.3689  0.2710
  118OSM   H14C12376   0.512   5.358  10.955  1.4100  0.0869  0.5030
  118OSM    C1312377   0.414   5.590  11.174 -0.0207 -0.1103  0.0300
  118OSM   H13A12378   0.452   5.665  11.241 -1.8002  1.3191 -0.4610
  118OSM   H13B12379   0.345   5.536  11.238  0.3562  1.8757  2.2501
  118OSM   H13C12380   0.364   5.639  11.092 -0.9423 -4.0272 -2.0219
  118OSM    C1212381   0.608   5.600  11.027  0.4550  0.7794 -0.1433
  118OSM   H12A12382   0.647   5.677  11.091  1.5068  1.6501 -1.7582
  118OSM   H12B12383   0.546   5.653  10.956 -1.7860  0.5528  1.5350
  118OSM    C1112384   0.726   5.536  10.959  0.5856  0.5291 -0.1042
  118OSM   H11A12385   0.748   5.578  10.858  1.0599 -1.7050 -0.9740
  118OSM   H11B12386   0.700   5.430  10.941 -1.0560  0.5729  1.6374
  118OSM      P12387   0.938   5.664  11.039  0.1761  0.1867 -0.5268
  118OSM    O1312388   0.859   5.786  11.069  0.6560  0.0044 -0.0655
  118OSM    O1412389   1.059   5.633  11.125 -0.2447  0.0916 -0.2616
  118OSM    O1112390   0.995   5.682  10.890  0.3710  0.0418 -0.1025
  118OSM    O1212391   0.844   5.537  11.038 -0.2174 -0.0205 -0.0761
  118OSM    C1S12392   1.055   5.574  10.815 -0.4022  0.9337  0.0238
  118OSM    H1S12393   0.981   5.491  10.806 -1.3833  1.4652  2.3316
  118OSM    H1T12394   1.148   5.547  10.869 -0.8536  1.1896  0.9402
  118OSM     NF12395   1.147   5.522  10.592 -0.6351 -0.4944  0.2755
  118OSM    HNF12396   1.238   5.484  10.607 -0.6457 -0.6960 -0.1363
  118OSM    C2S12397   1.101   5.630  10.672 -0.6005 -0.0077 -0.5958
  118OSM    H2S12398   1.006   5.669  10.629 -0.8316  0.7003  0.5122
  118OSM    C3S12399   1.198   5.752  10.701 -0.2309  0.3593  0.6855
  118OSM    H3S12400   1.282   5.713  10.763  0.7225  0.4076 -0.5234
  118OSM     O312401   1.144   5.856  10.773  0.2669  0.1283 -0.5255
  118OSM    HO312402   1.078   5.813  10.828  1.2093 -3.3107 -1.8739
  118OSM    C4S12403   1.266   5.803  10.570  0.2253 -0.6189 -0.7770
  118OSM    H4S12404   1.367   5.763  10.553 -0.4000 -2.4628 -0.4448
  118OSM    C5S12405   1.200   5.883  10.484 -0.0689  0.5007  0.5997
  118OSM    H5S12406   1.103   5.931  10.503 -0.8898 -0.4693 -0.8475
  118OSM    C6S12407   1.261   5.933  10.354 -0.2312  0.2340 -0.2096
  118OSM    H6S12408   1.372   5.921  10.358 -0.3493 -0.6257  1.0973
  118OSM    H6T12409   1.240   6.041  10.344  1.8138  0.5158 -2.3943
  118OSM    C7S12410   1.201   5.864  10.234 -0.4125 -0.5620  0.1877
  118OSM    H7S12411   1.240   5.913  10.142  0.7078  4.4757  2.9534
  118OSM    H7T12412   1.090   5.867  10.232 -0.3888  0.4487 -1.1355
  118OSM    C8S12413   1.231   5.707  10.241  0.0273 -1.1648 -0.5351
  118OSM    H8S12414   1.203   5.670  10.342  2.4841 -1.9882 -0.0891
  118OSM    H8T12415   1.340   5.689  10.239  0.7764  1.9935  2.2878
  118OSM    C9S12416   1.147   5.617  10.148  0.6588  0.1793  0.1239
  118OSM    H9S12417   1.055   5.668  10.112  2.3901  1.8588 -2.3407
  118OSM    H9T12418   1.126   5.524  10.205  1.0690  0.3473  0.5545
  118OSM   C10S12419   1.231   5.596  10.022 -0.1158 -0.1302 -0.0085
  118OSM   H10S12420   1.330   5.546  10.034 -0.6423 -1.5427 -1.1851
  118OSM   H10T12421   1.246   5.695   9.975  3.2237 -1.0877 -1.2148
  118OSM   C11S12422   1.161   5.522   9.909  0.1378 -0.3352 -0.2581
  118OSM   H11S12423   1.060   5.564   9.898  0.7026  0.6891 -1.7931
  118OSM   H11T12424   1.168   5.414   9.935  0.8884 -0.4518 -0.8896
  118OSM   C12S12425   1.236   5.545   9.774 -0.5933  0.0542  0.3366
  118OSM   H12S12426   1.343   5.539   9.804 -0.5079 -0.0257  0.0209
  118OSM   H12T12427   1.223   5.647   9.731  1.2903  0.3977  0.4849
  118OSM   C13S12428   1.206   5.429   9.669  0.0252  0.8188 -0.2412
  118OSM   H13S12429   1.098   5.426   9.640 -0.7156 -1.8525  2.3560
  118OSM   H13T12430   1.217   5.330   9.719 -1.1342  1.4045  1.2365
  118OSM   C14S12431   1.304   5.453   9.551  0.8459  0.4664 -0.0026
  118OSM   H14S12432   1.301   5.360   9.491  0.7275 -0.0436  0.7817
  118OSM   H14T12433   1.409   5.468   9.586  1.4908  0.1916 -1.7541
  118OSM   C15S12434   1.281   5.573   9.469 -0.2884 -0.4366 -0.3975
  118OSM   H15S12435   1.347   5.577   9.380 -2.5773 -1.9645 -2.3252
  118OSM   H15T12436   1.300   5.657   9.538 -0.2595 -0.3674 -0.4912
  118OSM   C16S12437   1.132   5.596   9.424  0.0044 -0.0831  0.1001
  118OSM   H16S12438   1.134   5.700   9.385 -0.0061  0.3186  1.1512
  118OSM   H16T12439   1.064   5.595   9.511 -0.6286  2.0132 -0.3212
  118OSM   C17S12440   1.087   5.504   9.307  0.1274 -0.4329  1.0120
  118OSM   H17S12441   1.083   5.396   9.333  1.5533 -0.6450  0.4566
  118OSM   H17T12442   1.158   5.500   9.221 -0.4896 -0.7513  0.5143
  118OSM   C18S12443   0.958   5.535   9.245  0.4271 -0.0999  0.2939
  118OSM   H18S12444   0.879   5.478   9.299  0.9874 -1.4263 -0.2262
  118OSM   H18T12445   0.959   5.488   9.144  2.1647  1.4298 -0.4481
  118OSM   H18U12446   0.919   5.638   9.232 -0.2947 -0.5296 -1.1779
  118OSM    C1F12447   1.064   5.434  10.541  0.1045 -0.3855  0.2042
  118OSM     OF12448   0.942   5.443  10.559  0.0886 -0.3500  0.9081
  118OSM    C2F12449   1.123   5.334  10.449 -0.3391 -0.4847  0.4038
  118OSM    H2F12450   1.196   5.270  10.504  1.4289  1.4830  0.5052
  118OSM    H2G12451   1.178   5.395  10.375  0.6984 -0.7823  0.8992
  118OSM    C3F12452   1.013   5.251  10.379  0.1615 -0.7911 -0.0530
  118OSM    H3F12453   0.940   5.306  10.317 -0.0921 -0.3188  0.6520
  118OSM    H3G12454   0.959   5.211  10.468 -1.9173  1.8866 -0.0133
  118OSM    C4F12455   1.067   5.126  10.302 -0.5948  0.2714  0.5978
  118OSM    H4F12456   0.986   5.052  10.287 -1.0774  1.2243 -2.1680
  118OSM    H4G12457   1.155   5.076  10.347  0.0174 -0.2585 -1.0983
  118OSM    C5F12458   1.097   5.186  10.158 -0.0253  0.0964 -0.0291
  118OSM    H5F12459   1.167   5.272  10.161 -0.8011  0.7952 -1.0930
  118OSM    H5G12460   1.011   5.237  10.110  1.1286  2.8352  0.6089
  118OSM    C6F12461   1.150   5.074  10.064  0.4537 -0.6418  0.4286
  118OSM    H6F12462   1.064   5.004  10.056  0.4227 -0.5900  0.3009
  118OSM    H6G12463   1.230   5.030  10.126 -0.1780 -1.4159  0.7087
  118OSM    C7F12464   1.199   5.130   9.927  0.0513  0.0022  1.1124
  118OSM    H7F12465   1.291   5.190   9.945 -1.8976  2.8760  2.1918
  118OSM    H7G12466   1.123   5.197   9.882 -0.1009 -0.2917  0.9341
  118OSM    C8F12467   1.232   5.018   9.822  0.5407  0.6363 -0.1051
  118OSM    H8F12468   1.243   5.061   9.720  2.7246  0.8022  0.1379
  118OSM    H8G12469   1.140   4.956   9.818  0.8357 -0.1770  2.9449
  118OSM    C9F12470   1.339   4.924   9.860  0.3008  0.5524 -0.3234
  118OSM    H9F12471   1.326   4.877   9.958 -2.9225 -0.3948 -1.0844
  118OSM   C10F12472   1.454   4.911   9.801 -0.5264 -0.0193  0.5394
  118OSM   H10F12473   1.535   4.850   9.842  0.0775  0.2481 -0.2295
  118OSM   C11F12474   1.488   4.979   9.669  0.6036 -0.4665 -0.6414
  118OSM   H11F12475   1.595   5.002   9.685  0.5214  2.2925 -3.1823
  118OSM   H11G12476   1.439   5.079   9.665 -0.0087 -0.7911 -1.5400
  118OSM   C12F12477   1.472   4.904   9.533 -0.0967  0.2522  0.2667
  118OSM   H12F12478   1.481   4.796   9.555 -1.3823 -0.2976 -1.6256
  118OSM   H12G12479   1.562   4.926   9.472  0.6965 -1.2123  0.8809
  118OSM   C13F12480   1.350   4.936   9.451  1.5348 -0.5893  0.3931
  118OSM   H13F12481   1.259   4.916   9.510  1.4074 -0.4089  0.2600
  118OSM   H13G12482   1.330   4.882   9.356 -0.5378  2.6971 -1.2143
  118OSM   C14F12483   1.355   5.079   9.393  0.1141 -0.1552  0.3144
  118OSM   H14F12484   1.436   5.091   9.318  1.7767 -0.4223  1.9922
  118OSM   H14G12485   1.367   5.153   9.475 -0.3564  0.5266 -0.2147
  118OSM   C15F12486   1.222   5.124   9.324 -0.0916 -0.6058  0.2545
  118OSM   H15F12487   1.216   5.233   9.348 -0.5693 -0.7244  0.6801
  118OSM   H15G12488   1.129   5.073   9.358 -2.1940  1.4128 -2.1099
  118OSM   C16F12489   1.228   5.110   9.174  0.9013 -0.2579 -0.2669
  118OSM   H16F12490   1.263   5.008   9.148 -1.5257 -1.1996 -0.1664
  118OSM   H16G12491   1.303   5.183   9.139 -2.7688  3.8107 -0.4864
  118OSM   C17F12492   1.101   5.131   9.096 -0.0700  0.0080 -0.0243
  118OSM   H17F12493   1.018   5.120   9.170  1.1050 -1.1274  1.1842
  118OSM   H17G12494   1.107   5.051   9.019  1.5582  0.6687 -0.6172
  118OSM   C18F12495   1.117   5.259   9.013  0.9395 -0.3570 -0.2982
  118OSM   H18F12496   1.186   5.229   8.931  0.7796 -2.5213  0.2967
  118OSM   H18G12497   1.147   5.350   9.069  0.3298 -0.9366  1.0138
  118OSM   H18H12498   1.015   5.281   8.973  0.0923  2.1473  2.8702
  119OSM      N12499   1.859   3.441  11.359  0.8204 -0.0224 -0.1707
  119OSM    C1512500   1.728   3.522  11.382  0.1978 -0.1807 -0.5649
  119OSM   H15A12501   1.738   3.599  11.457  1.6534  4.1324 -4.7332
  119OSM   H15B12502   1.641   3.465  11.412 -0.7280  1.8928  0.9482
  119OSM   H15C12503   1.715   3.556  11.281  1.1717 -0.1917 -0.7090
  119OSM    C1412504   1.968   3.541  11.320  0.4216 -0.1045 -0.0802
  119OSM   H14A12505   1.941   3.602  11.235 -2.0888  0.2889  0.9109
  119OSM   H14B12506   2.065   3.494  11.313  0.1218 -0.5474 -1.3921
  119OSM   H14C12507   1.972   3.615  11.399 -4.0264 -0.4571  0.7537
  119OSM    C1312508   1.898   3.366  11.486  0.4189  0.2655  0.3118
  119OSM   H13A12509   1.929   3.428  11.569  1.4738 -0.7046  0.6607
  119OSM   H13B12510   1.988   3.307  11.480  0.9826  1.2596 -2.4122
  119OSM   H13C12511   1.818   3.306  11.528  0.3729 -0.8850 -1.3269
  119OSM    C1212512   1.832   3.352  11.238 -0.1205  0.2015 -0.2542
  119OSM   H12A12513   1.740   3.298  11.255 -0.6093  0.1912 -2.5574
  119OSM   H12B12514   1.914   3.282  11.226  0.2741  0.9110 -2.0431
  119OSM    C1112515   1.824   3.419  11.096  0.4335  0.3957 -0.3838
  119OSM   H11A12516   1.799   3.335  11.028  0.4056 -0.0643  0.1889
  119OSM   H11B12517   1.925   3.456  11.068  2.3005 -2.3139  2.1854
  119OSM      P12518   1.742   3.664  11.037 -0.2159 -0.0424  0.1591
  119OSM    O1312519   1.620   3.739  11.034  0.4957 -0.1907  0.2258
  119OSM    O1412520   1.850   3.721  11.123  0.3489  0.3853 -0.1096
  119OSM    O1112521   1.786   3.651  10.885 -0.7235  0.3508  0.0263
  119OSM    O1212522   1.723   3.518  11.091  0.6875 -0.5042  0.9524
  119OSM    C1S12523   1.692   3.577  10.808 -0.3219 -0.2562 -0.3281
  119OSM    H1S12524   1.589   3.613  10.828 -0.0795  1.0141 -1.2388
  119OSM    H1T12525   1.700   3.469  10.830  0.8233  0.0488  0.9122
  119OSM     NF12526   1.582   3.567  10.581 -0.1337  0.1851  0.1064
  119OSM    HNF12527   1.591   3.475  10.544  2.4155  0.3173  0.2002
  119OSM    C2S12528   1.700   3.605  10.658 -0.0591 -0.0995  0.4916
  119OSM    H2S12529   1.711   3.714  10.637  2.6958 -0.4772 -0.4141
  119OSM    C3S12530   1.830   3.534  10.613 -0.2561  0.3465 -0.9814
  119OSM    H3S12531   1.826   3.427  10.642 -0.2442  0.9519  1.4617
  119OSM     O312532   1.942   3.587  10.687 -0.4871  0.7318  0.4588
  119OSM    HO312533   1.898   3.650  10.744  0.4612  3.1052 -1.2989
  119OSM    C4S12534   1.854   3.548  10.473 -0.4837 -1.0500 -0.1128
  119OSM    H4S12535   1.882   3.649  10.438 -2.5461 -0.6160 -0.6538
  119OSM    C5S12536   1.851   3.455  10.382  0.8958 -0.2977  0.3923
  119OSM    H5S12537   1.805   3.359  10.407 -0.9271  0.1750 -0.9116
  119OSM    C6S12538   1.885   3.480  10.235 -0.4319 -0.1315  0.9084
  119OSM    H6S12539   1.974   3.417  10.212 -0.7051  0.2590 -1.4257
  119OSM    H6T12540   1.922   3.582  10.213 -0.2143 -1.0648 -4.3392
  119OSM    C7S12541   1.776   3.430  10.134  0.1007  0.9513 -0.7918
  119OSM    H7S12542   1.677   3.480  10.147  0.4179  1.3989 -0.0167
  119OSM    H7T12543   1.749   3.324  10.151  0.1854  1.0698  0.1320
  119OSM    C8S12544   1.804   3.472   9.993 -0.2670  0.1654  0.0531
  119OSM    H8S12545   1.914   3.456   9.981 -0.3703 -0.5165 -0.0571
  119OSM    H8T12546   1.785   3.580   9.977  1.1644  0.1963 -1.8128
  119OSM    C9S12547   1.728   3.385   9.897 -0.4662 -0.4272  0.0528
  119OSM    H9S12548   1.621   3.411   9.906 -0.3140  0.1664  0.2039
  119OSM    H9T12549   1.747   3.280   9.927 -0.1964 -0.1000  1.0752
  119OSM   C10S12550   1.774   3.419   9.753  0.2644  0.1243  0.6176
  119OSM   H10S12551   1.884   3.427   9.740  0.3678  0.2211  1.4813
  119OSM   H10T12552   1.729   3.517   9.726  0.2877  0.0607  0.3511
  119OSM   C11S12553   1.720   3.305   9.660 -0.2681 -0.0086  0.0156
  119OSM   H11S12554   1.616   3.284   9.691 -0.7323  0.2191 -1.3294
  119OSM   H11T12555   1.772   3.212   9.692  0.5230  0.9514  1.6679
  119OSM   C12S12556   1.721   3.331   9.512 -0.3415 -0.0285  0.4796
  119OSM   H12S12557   1.813   3.388   9.485  1.2998 -0.7133  4.0663
  119OSM   H12T12558   1.641   3.402   9.481 -1.4019 -0.7500  1.4566
  119OSM   C13S12559   1.711   3.205   9.422  0.4259  0.4903  0.1272
  119OSM   H13S12560   1.692   3.225   9.315  0.8694  0.1896 -0.0101
  119OSM   H13T12561   1.613   3.161   9.451 -0.0697  3.2892  3.2756
  119OSM   C14S12562   1.821   3.095   9.439 -0.5390  0.8476 -0.0507
  119OSM   H14S12563   1.824   3.066   9.546  0.4463  0.5171 -0.1605
  119OSM   H14T12564   1.926   3.125   9.422 -0.1272 -0.7821 -0.5270
  119OSM   C15S12565   1.791   2.972   9.351  0.5835  0.4971  0.1298
  119OSM   H15S12566   1.692   2.934   9.382  0.5763  0.7188  0.3842
  119OSM   H15T12567   1.864   2.890   9.371  2.8249  1.9595 -1.5467
  119OSM   C16S12568   1.792   2.987   9.204  0.0269 -0.1159  0.2532
  119OSM   H16S12569   1.878   3.051   9.176  0.4772  0.3498  2.4955
  119OSM   H16T12570   1.702   3.043   9.172 -1.1709 -1.5693  0.9658
  119OSM   C17S12571   1.809   2.847   9.140  0.0188  0.0865  0.4441
  119OSM   H17S12572   1.715   2.792   9.163  0.3634 -1.6704 -2.0147
  119OSM   H17T12573   1.891   2.795   9.194  0.9088  0.3527 -0.6298
  119OSM   C18S12574   1.849   2.851   8.992 -0.0058 -0.0185 -0.2104
  119OSM   H18S12575   1.756   2.880   8.937 -0.3565  2.5471  1.5500
  119OSM   H18T12576   1.871   2.749   8.953  0.6249  0.8387 -2.2653
  119OSM   H18U12577   1.931   2.923   8.971 -0.0900  0.8304  2.1216
  119OSM    C1F12578   1.465   3.627  10.598  0.1167  0.4608 -0.9350
  119OSM     OF12579   1.459   3.738  10.650  0.2576  0.3072  0.2022
  119OSM    C2F12580   1.343   3.552  10.567  0.3076  0.1782 -0.2973
  119OSM    H2F12581   1.284   3.564  10.660 -0.6623 -0.2359 -0.8434
  119OSM    H2G12582   1.371   3.448  10.540 -1.3137  0.0330 -1.5675
  119OSM    C3F12583   1.243   3.603  10.451 -0.4011  0.5108 -1.1849
  119OSM    H3F12584   1.214   3.709  10.467  0.5756  0.9697 -2.3100
  119OSM    H3G12585   1.150   3.542  10.451 -0.7960  0.9840  1.7749
  119OSM    C4F12586   1.319   3.599  10.320 -0.0996 -0.0462 -0.1655
  119OSM    H4F12587   1.361   3.497  10.321  0.2272  0.0501  2.5570
  119OSM    H4G12588   1.405   3.668  10.333  0.4476 -0.7623  0.0342
  119OSM    C5F12589   1.220   3.620  10.198 -0.2618 -0.1636 -0.2417
  119OSM    H5F12590   1.168   3.718  10.210 -0.2373 -0.1001 -0.6552
  119OSM    H5G12591   1.145   3.538  10.194  0.3696 -0.7042 -2.0017
  119OSM    C6F12592   1.300   3.622  10.066 -0.3002 -0.3896  0.6691
  119OSM    H6F12593   1.359   3.529  10.051  0.7361  0.3156  0.2206
  119OSM    H6G12594   1.370   3.706  10.083 -1.4161  0.7897 -0.3306
  119OSM    C7F12595   1.205   3.645   9.947 -0.4042  0.2924 -0.4223
  119OSM    H7F12596   1.152   3.742   9.953 -1.7750 -0.4249 -0.3950
  119OSM    H7G12597   1.135   3.559   9.952 -0.0378  0.0615  2.2334
  119OSM    C8F12598   1.286   3.649   9.819  0.5240  0.2696  0.3947
  119OSM    H8F12599   1.351   3.560   9.805 -0.8647 -0.5188 -1.3759
  119OSM    H8G12600   1.368   3.725   9.818  0.1417  0.7016 -1.3336
  119OSM    C9F12601   1.205   3.685   9.697  0.4849  0.4925  0.0976
  119OSM    H9F12602   1.146   3.777   9.698 -0.1334  0.1057  1.3874
  119OSM   C10F12603   1.167   3.602   9.598  0.1790 -0.2300 -0.3209
  119OSM   H10F12604   1.094   3.639   9.525 -0.5985 -0.9451  0.0767
  119OSM   C11F12605   1.194   3.446   9.592  0.6487 -0.1108 -0.8661
  119OSM   H11F12606   1.105   3.385   9.565  0.1376  0.3120 -0.1542
  119OSM   H11G12607   1.210   3.408   9.695  0.0484 -0.4393 -0.8897
  119OSM   C12F12608   1.318   3.399   9.505  0.5756 -0.0430  0.4024
  119OSM   H12F12609   1.330   3.290   9.520  1.4766 -0.2635 -1.5633
  119OSM   H12G12610   1.410   3.455   9.534  0.5580  0.4108 -0.3790
  119OSM   C13F12611   1.283   3.428   9.352 -0.0258 -0.8090 -0.1981
  119OSM   H13F12612   1.307   3.535   9.336 -0.3266 -0.6586  0.3409
  119OSM   H13G12613   1.174   3.405   9.346 -0.5701  0.3395  3.0980
  119OSM   C14F12614   1.350   3.322   9.262  0.5256 -0.0010 -0.2516
  119OSM   H14F12615   1.326   3.224   9.309  1.8283 -0.8096 -1.2079
  119OSM   H14G12616   1.459   3.329   9.284  0.5956 -1.8854  0.2503
  119OSM   C15F12617   1.335   3.321   9.113  0.1530  0.5327  0.1528
  119OSM   H15F12618   1.411   3.253   9.069 -0.8217 -0.4380 -0.0924
  119OSM   H15G12619   1.332   3.427   9.081 -1.1974  0.4427 -0.0547
  119OSM   C16F12620   1.199   3.260   9.058  0.0960 -0.3013 -0.2974
  119OSM   H16F12621   1.116   3.322   9.099 -0.2453 -0.5213 -0.6507
  119OSM   H16G12622   1.185   3.158   9.100 -0.1868  0.0113  0.3908
  119OSM   C17F12623   1.198   3.252   8.908 -0.7037  0.1177 -0.2991
  119OSM   H17F12624   1.291   3.201   8.878  0.0409  2.8974 -3.2525
  119OSM   H17G12625   1.210   3.355   8.868  0.3850  0.4199  0.7555
  119OSM   C18F12626   1.080   3.191   8.841 -0.0295  0.1804  0.1879
  119OSM   H18F12627   1.083   3.085   8.874  1.0869  0.4064  0.8609
  119OSM   H18G12628   1.095   3.208   8.733  0.9647 -0.0230  0.2900
  119OSM   H18H12629   0.979   3.236   8.857  0.0508  0.6338 -0.5575
  120OSM      N12630   1.090   1.715  10.652  0.0965 -0.0451 -0.6949
  120OSM    C1512631   0.982   1.716  10.754  0.0675 -0.4349  0.2177
  120OSM   H15A12632   0.913   1.634  10.741  0.7878 -0.7213 -2.3930
  120OSM   H15B12633   0.910   1.796  10.754 -0.5037 -0.9346 -0.6647
  120OSM   H15C12634   1.026   1.719  10.852 -2.9840 -0.4796  1.7210
  120OSM    C1412635   1.042   1.768  10.519  0.5687  0.0188 -0.4151
  120OSM   H14A12636   0.986   1.860  10.531 -1.0319 -0.6923 -1.9509
  120OSM   H14B12637   0.967   1.700  10.482  1.2853  0.4411 -2.8073
  120OSM   H14C12638   1.128   1.786  10.456  0.9087  0.6446  0.2191
  120OSM    C1312639   1.187   1.821  10.701  0.4115  0.3203  0.4294
  120OSM   H13A12640   1.225   1.802  10.801  0.2549 -0.9419  0.2671
  120OSM   H13B12641   1.143   1.919  10.689  0.5017  0.3725  0.5263
  120OSM   H13C12642   1.276   1.820  10.640 -0.3390 -1.1546 -0.7199
  120OSM    C1212643   1.151   1.573  10.634 -0.3623 -0.1619 -0.5233
  120OSM   H12A12644   1.143   1.526  10.731  0.4505  0.3094 -0.2225
  120OSM   H12B12645   1.254   1.580  10.602  0.2921  2.1349  1.7676
  120OSM    C1112646   1.078   1.463  10.542 -0.3146  0.0057  0.0981
  120OSM   H11A12647   1.158   1.388  10.523 -0.4633 -0.6260  1.8130
  120OSM   H11B12648   1.048   1.509  10.446 -1.1890 -2.0976 -0.7114
  120OSM      P12649   0.819   1.407  10.545  0.1628  0.3782  0.3384
  120OSM    O1312650   0.732   1.295  10.589 -0.0341  0.0620  0.0105
  120OSM    O1412651   0.775   1.541  10.575  0.1718  0.0518  0.1818
  120OSM    O1112652   0.851   1.390  10.391 -0.4738 -0.1928 -0.8082
  120OSM    O1212653   0.968   1.386  10.600 -0.1167 -0.3929  0.4198
  120OSM    C1S12654   0.902   1.265  10.342 -0.2186 -1.0736 -0.0983
  120OSM    H1S12655   0.867   1.178  10.401  1.3189  0.0320  2.6343
  120OSM    H1T12656   1.012   1.256  10.355 -0.3237 -2.8303 -0.2110
  120OSM     NF12657   0.884   1.104  10.149  0.7180  0.0910  0.1920
  120OSM    HNF12658   0.964   1.077  10.096 -0.8929 -0.8726 -1.8914
  120OSM    C2S12659   0.875   1.243  10.189  0.0277  0.5156 -0.5694
  120OSM    H2S12660   0.768   1.271  10.171 -0.0255  0.0683 -0.9602
  120OSM    C3S12661   0.976   1.329  10.109 -0.0705 -0.0569  0.2953
  120OSM    H3S12662   1.082   1.304  10.132 -1.1916 -3.9888  2.0498
  120OSM     O312663   0.965   1.468  10.155 -0.3838  0.1407  0.1718
  120OSM    HO312664   0.892   1.461  10.216 -0.1341 -3.2776  0.2553
  120OSM    C4S12665   0.947   1.321   9.963  0.1834  0.1866 -0.1534
  120OSM    H4S12666   0.845   1.353   9.937 -0.0171  0.0695  0.4603
  120OSM    C5S12667   1.026   1.257   9.868  0.8516 -0.1448 -0.0665
  120OSM    H5S12668   1.109   1.193   9.902 -0.8730 -2.7213 -0.4011
  120OSM    C6S12669   1.007   1.262   9.719 -0.3714 -0.2670 -0.3414
  120OSM    H6S12670   0.989   1.157   9.688 -0.9388 -0.9794  2.2356
  120OSM    H6T12671   1.099   1.306   9.673 -1.1512  2.8668  0.9015
  120OSM    C7S12672   0.891   1.352   9.666  0.2207  0.2563 -0.0303
  120OSM    H7S12673   0.893   1.455   9.708 -1.5872 -0.7647  2.8697
  120OSM    H7T12674   0.793   1.316   9.704 -1.5105  2.2801 -2.2429
  120OSM    C8S12675   0.876   1.354   9.512  0.1634 -0.3606 -0.7268
  120OSM    H8S12676   0.858   1.249   9.479  3.2936 -1.7295  1.4394
  120OSM    H8T12677   0.972   1.385   9.465  1.2820  0.5418  1.9530
  120OSM    C9S12678   0.755   1.440   9.459 -0.2165  0.2062 -0.1788
  120OSM    H9S12679   0.780   1.548   9.468  1.1220  0.0002 -1.0448
  120OSM    H9T12680   0.667   1.416   9.521  0.2319 -1.8046 -0.2637
  120OSM   C10S12681   0.734   1.413   9.307  0.0122  0.3430  0.0153
  120OSM   H10S12682   0.632   1.452   9.285 -0.6839 -1.2007  0.3743
  120OSM   H10T12683   0.721   1.303   9.298  3.9116 -0.2415 -0.0500
  120OSM   C11S12684   0.846   1.456   9.206  0.4072 -0.2566 -0.7350
  120OSM   H11S12685   0.935   1.394   9.233  0.2871 -1.5125 -2.9936
  120OSM   H11T12686   0.869   1.564   9.213 -5.4632  1.2592  0.6865
  120OSM   C12S12687   0.814   1.414   9.063 -0.0396  0.4224 -0.1038
  120OSM   H12S12688   0.728   1.472   9.023 -0.4222 -0.6997 -0.9704
  120OSM   H12T12689   0.797   1.304   9.061  0.5144  0.3327 -0.3333
  120OSM   C13S12690   0.918   1.452   8.954  0.1513 -0.0058 -0.4422
  120OSM   H13S12691   1.012   1.399   8.979 -0.1705  0.1379  1.2230
  120OSM   H13T12692   0.945   1.560   8.960  0.6035 -0.1799  3.3511
  120OSM   C14S12693   0.862   1.418   8.811  0.0036  0.0686 -0.0776
  120OSM   H14S12694   0.831   1.312   8.806 -0.7399  0.3186 -1.4836
  120OSM   H14T12695   0.956   1.422   8.753  0.9566 -1.6494  1.2659
  120OSM   C15S12696   0.755   1.514   8.751  0.8952  0.5437 -0.4031
  120OSM   H15S12697   0.779   1.621   8.763 -1.3560  0.8862  1.7360
  120OSM   H15T12698   0.666   1.491   8.813  2.6031 -2.6903  1.1273
  120OSM   C16S12699   0.733   1.486   8.604  0.3743 -0.0809  0.1744
  120OSM   H16S12700   0.706   1.379   8.592  0.1981  0.1412 -1.6175
  120OSM   H16T12701   0.829   1.510   8.554 -0.1290 -0.4692 -0.9979
  120OSM   C17S12702   0.638   1.586   8.527  0.4123  0.0228 -0.3984
  120OSM   H17S12703   0.684   1.684   8.551  0.3140 -0.4878  2.1854
  120OSM   H17T12704   0.530   1.587   8.556  0.3989  0.2460 -0.4564
  120OSM   C18S12705   0.638   1.569   8.376 -0.0304 -0.7007  0.1062
  120OSM   H18S12706   0.576   1.646   8.325  0.8269 -0.8380 -1.1965
  120OSM   H18T12707   0.596   1.468   8.355 -1.8577 -0.1138  0.7480
  120OSM   H18U12708   0.746   1.572   8.353 -0.1218  1.5292 -0.2472
  120OSM    C1F12709   0.790   1.019  10.194 -0.3585 -0.2686  0.0027
  120OSM     OF12710   0.688   1.058  10.257  0.6232 -0.2008  0.1183
  120OSM    C2F12711   0.822   0.874  10.185  1.1749  0.5113 -0.6818
  120OSM    H2F12712   0.809   0.829  10.286  0.7528  3.2777  0.5711
  120OSM    H2G12713   0.930   0.872  10.161  1.0331  0.7908 -1.3438
  120OSM    C3F12714   0.752   0.795  10.065 -0.5334 -0.4536  0.0886
  120OSM    H3F12715   0.644   0.781  10.083  0.0449 -3.5041  1.9613
  120OSM    H3G12716   0.802   0.696  10.061  0.6596  0.1755 -3.3755
  120OSM    C4F12717   0.766   0.860   9.924 -1.2062  0.1623  0.3034
  120OSM    H4F12718   0.757   0.780   9.848  2.1418  1.1735 -1.3761
  120OSM    H4G12719   0.867   0.903   9.902 -1.7457  1.0192 -0.5732
  120OSM    C5F12720   0.668   0.961   9.887  0.5174 -0.0447  0.4496
  120OSM    H5F12721   0.670   1.053   9.950 -1.4720  1.1189 -1.0941
  120OSM    H5G12722   0.565   0.922   9.902  0.7244 -0.1219  1.8161
  120OSM    C6F12723   0.683   0.997   9.737  0.0253 -0.5554  0.1153
  120OSM    H6F12724   0.657   0.905   9.681 -4.0625  1.1263 -1.1098
  120OSM    H6G12725   0.779   1.051   9.722 -0.4997  0.2872 -0.2888
  120OSM    C7F12726   0.575   1.094   9.687 -0.6604 -0.1836  0.0125
  120OSM    H7F12727   0.597   1.199   9.718 -0.9998 -0.5468  1.5444
  120OSM    H7G12728   0.479   1.079   9.739 -1.0740 -1.3300 -1.0500
  120OSM    C8F12729   0.570   1.085   9.530  0.2838 -0.9631  0.7244
  120OSM    H8F12730   0.673   1.097   9.491 -0.0864 -0.7138 -0.1914
  120OSM    H8G12731   0.519   1.179   9.503  0.1650 -0.5117  2.4278
  120OSM    C9F12732   0.497   0.959   9.486  0.0822 -0.1658 -0.9014
  120OSM    H9F12733   0.463   0.905   9.576  2.0442  0.8230  0.5162
  120OSM   C10F12734   0.472   0.922   9.364  0.5626  0.6350  0.5738
  120OSM   H10F12735   0.426   0.822   9.361  2.5282 -0.3127  0.1887
  120OSM   C11F12736   0.520   0.982   9.230  0.1790 -0.3169  0.3592
  120OSM   H11F12737   0.622   0.950   9.199  0.1182 -0.2848  0.1299
  120OSM   H11G12738   0.521   1.091   9.251 -3.3180 -0.4161  1.6240
  120OSM   C12F12739   0.420   0.946   9.116 -0.5207  0.3777  0.3243
  120OSM   H12F12740   0.336   1.010   9.151 -1.2326 -0.5231  0.2938
  120OSM   H12G12741   0.385   0.840   9.118 -0.8653  0.4744 -0.3154
  120OSM   C13F12742   0.466   0.984   8.974  0.8050 -0.3275 -0.0755
  120OSM   H13F12743   0.383   0.955   8.906  1.2394 -0.4281 -0.5662
  120OSM   H13G12744   0.555   0.926   8.941 -0.1351 -1.2636 -1.0474
  120OSM   C14F12745   0.505   1.135   8.953  0.6614  0.3480 -0.4531
  120OSM   H14F12746   0.573   1.171   9.034  0.6706 -2.0672  0.7153
  120OSM   H14G12747   0.409   1.188   8.964 -0.3000 -1.2225 -0.9801
  120OSM   C15F12748   0.537   1.172   8.803 -0.5636 -0.1069 -0.5533
  120OSM   H15F12749   0.645   1.146   8.806  0.0478  1.6583 -3.2961
  120OSM   H15G12750   0.539   1.282   8.793  1.1474  0.1792  2.0450
  120OSM   C16F12751   0.457   1.098   8.696 -0.3145  0.2340 -0.5636
  120OSM   H16F12752   0.353   1.132   8.678 -0.2409 -0.3874 -2.3622
  120OSM   H16G12753   0.463   0.990   8.721 -0.4803  0.0590 -1.2407
  120OSM   C17F12754   0.533   1.110   8.567 -0.1297 -0.7073  0.1501
  120OSM   H17F12755   0.637   1.077   8.590 -0.2905 -1.6104 -0.3615
  120OSM   H17G12756   0.530   1.211   8.521  0.8679 -0.3144  0.9000
  120OSM   C18F12757   0.478   1.017   8.458 -0.4950 -0.5908 -0.1255
  120OSM   H18F12758   0.552   1.005   8.377 -1.2884 -1.9587 -0.6759
  120OSM   H18G12759   0.389   1.066   8.411  0.2716  1.1750  0.1656
  120OSM   H18H12760   0.448   0.917   8.495  0.9005 -0.6526  0.9204
  121OSM      N12761   5.946   4.021  11.291  0.0129 -0.3810 -0.1768
  121OSM    C1512762   5.831   4.113  11.249 -0.6385  0.8338  0.6700
  121OSM   H15A12763   5.762   4.070  11.178  0.1853 -1.2503  1.0501
  121OSM   H15B12764   5.868   4.205  11.207  1.7861 -0.8898 -1.2941
  121OSM   H15C12765   5.776   4.150  11.334 -0.1993  0.3785  1.1575
  121OSM    C1412766   6.012   4.090  11.407  0.1823  0.3545 -0.2418
  121OSM   H14A12767   6.092   4.034  11.452 -0.1611 -0.3499 -0.4998
  121OSM   H14B12768   5.941   4.114  11.485 -0.4826 -0.7829 -0.4768
  121OSM   H14C12769   6.054   4.184  11.373  1.1415  0.1499  0.3431
  121OSM    C1312770   5.889   3.896  11.352  0.6707  0.0203  0.6031
  121OSM   H13A12771   5.816   3.931  11.423  0.1827  1.2358 -0.4462
  121OSM   H13B12772   5.967   3.833  11.392  1.6375  1.4688  1.0600
  121OSM   H13C12773   5.835   3.850  11.269 -0.3236  0.7253  0.8479
  121OSM    C1212774   6.037   3.997  11.172  0.2325  0.2242  0.0320
  121OSM   H12A12775   5.983   3.969  11.082  1.3139  0.3556 -0.6757
  121OSM   H12B12776   6.110   3.923  11.201 -0.2376  0.4387  1.8630
  121OSM    C1112777   6.125   4.122  11.139  0.5877  0.1867 -0.1322
  121OSM   H11A12778   6.061   4.211  11.155  0.5227  0.4055 -1.5067
  121OSM   H11B12779   6.147   4.108  11.031 -0.9542  0.1981 -0.4740
  121OSM      P12780   6.366   4.048  11.205 -0.1258 -0.0682  0.2981
  121OSM    O1312781   6.484   4.114  11.261 -0.5487 -0.3825  0.1124
  121OSM    O1412782   6.346   3.913  11.266  0.1687  0.6750 -0.5894
  121OSM    O1112783   6.383   4.020  11.049 -0.5738  0.4672 -0.3134
  121OSM    O1212784   6.241   4.137  11.223  0.0746 -0.2862 -0.2749
  121OSM    C1S12785   6.514   4.053  10.994  0.1407 -0.2612 -0.0723
  121OSM    H1S12786   6.585   3.970  11.016 -0.6959 -0.5283  1.8322
  121OSM    H1T12787   6.550   4.150  11.031 -0.1033  0.6846 -2.1658
  121OSM     NF12788   6.641   4.065  10.784  0.5086 -0.1232  0.2798
  121OSM    HNF12789   6.685   4.152  10.762 -0.2482  0.1912 -0.0110
  121OSM    C2S12790   6.509   4.075  10.836  0.2257  0.2028 -0.1450
  121OSM    H2S12791   6.453   3.990  10.792 -0.7736 -0.8252  2.8137
  121OSM    C3S12792   6.432   4.206  10.799 -0.5083 -0.1516 -0.2062
  121OSM    H3S12793   6.479   4.295  10.847 -0.6181 -0.2402  0.0671
  121OSM     O312794   6.303   4.210  10.863  0.4729  0.1902 -0.2430
  121OSM    HO312795   6.302   4.140  10.929  1.4185 -0.7125 -1.1584
  121OSM    C4S12796   6.422   4.219  10.644 -0.5613  0.0964 -0.3430
  121OSM    H4S12797   6.520   4.253  10.608  0.4810  0.3292  2.4399
  121OSM    C5S12798   6.319   4.182  10.567  0.2865 -0.0841  0.7518
  121OSM    H5S12799   6.232   4.138  10.616 -0.3414  0.2695 -0.0196
  121OSM    C6S12800   6.314   4.186  10.416 -0.4555 -0.4491 -0.4950
  121OSM    H6S12801   6.250   4.273  10.388 -0.3841 -0.9133 -2.2008
  121OSM    H6T12802   6.260   4.094  10.384 -2.9906  0.3106  1.2455
  121OSM    C7S12803   6.450   4.216  10.361 -0.1377  0.9609  0.6867
  121OSM    H7S12804   6.528   4.147  10.399  0.4615  0.1934 -1.7851
  121OSM    H7T12805   6.493   4.316  10.381 -0.6894  1.2130  0.6397
  121OSM    C8S12806   6.454   4.206  10.211 -0.1771  0.1303  0.0040
  121OSM    H8S12807   6.546   4.255  10.173  0.0297 -0.2431  0.0267
  121OSM    H8T12808   6.371   4.270  10.172  1.1913  1.2154 -1.2461
  121OSM    C9S12809   6.459   4.063  10.145  0.1565 -0.9545 -0.5424
  121OSM    H9S12810   6.370   3.997  10.155  0.2647 -0.9297  0.7517
  121OSM    H9T12811   6.543   4.020  10.203  1.4945  1.5782 -0.4487
  121OSM   C10S12812   6.499   4.081   9.992  1.2940 -0.6634  0.9556
  121OSM   H10S12813   6.556   3.995   9.950  1.4103  0.3223 -1.0455
  121OSM   H10T12814   6.563   4.172   9.991  3.5746 -2.1614 -0.5618
  121OSM   C11S12815   6.378   4.108   9.901 -0.0810 -0.2610  0.1098
  121OSM   H11S12816   6.325   4.198   9.941 -0.6541 -0.0017 -1.1894
  121OSM   H11T12817   6.303   4.026   9.910 -0.8052  0.2344 -1.1590
  121OSM   C12S12818   6.410   4.127   9.750  0.3349 -0.1847 -0.0907
  121OSM   H12S12819   6.318   4.132   9.688 -0.4610 -4.2113  0.5422
  121OSM   H12T12820   6.464   4.035   9.720  0.8691 -0.0832  0.5306
  121OSM   C13S12821   6.493   4.256   9.723 -0.3353  0.5249  0.5679
  121OSM   H13S12822   6.574   4.262   9.799  0.8545 -0.0848 -0.6185
  121OSM   H13T12823   6.429   4.347   9.719  1.6068  2.0001  1.3568
  121OSM   C14S12824   6.558   4.255   9.581 -0.1477 -0.3050  0.0281
  121OSM   H14S12825   6.653   4.197   9.581  1.3919  2.0402  0.8835
  121OSM   H14T12826   6.591   4.360   9.562 -0.4033 -0.2040  0.1480
  121OSM   C15S12827   6.468   4.212   9.463  0.2828 -0.1622  0.7598
  121OSM   H15S12828   6.387   4.288   9.459  0.4682  0.2851  3.4805
  121OSM   H15T12829   6.416   4.114   9.470  1.7221 -0.9898  0.2438
  121OSM   C16S12830   6.548   4.211   9.323  0.9247  0.7295 -0.2911
  121OSM   H16S12831   6.617   4.298   9.311 -2.0776  3.6723  2.0586
  121OSM   H16T12832   6.475   4.216   9.240  0.7448 -0.0044 -0.1835
  121OSM   C17S12833   6.625   4.081   9.310 -0.1189  0.6812 -0.0008
  121OSM   H17S12834   6.570   3.995   9.353 -0.3313  0.4455 -0.7283
  121OSM   H17T12835   6.717   4.087   9.372 -0.5059 -3.0807  1.1425
  121OSM   C18S12836   6.664   4.053   9.166 -0.0466  0.2415 -0.2432
  121OSM   H18S12837   6.575   4.073   9.103 -0.8111 -0.2929  0.6480
  121OSM   H18T12838   6.711   3.958   9.134  1.5320  1.6805 -2.4553
  121OSM   H18U12839   6.737   4.130   9.132  0.6737 -1.3471 -2.5351
  121OSM    C1F12840   6.712   3.951  10.786 -0.2160  0.5607  0.0102
  121OSM     OF12841   6.680   3.857  10.851 -0.4231 -0.0300  0.1402
  121OSM    C2F12842   6.853   3.962  10.719 -0.2108  0.2320  0.4153
  121OSM    H2F12843   6.932   3.975  10.796  0.1166 -0.5148  0.2152
  121OSM    H2G12844   6.855   4.054  10.657  1.2272 -0.7811 -1.0941
  121OSM    C3F12845   6.870   3.844  10.619  0.0918  0.0022  1.0621
  121OSM    H3F12846   6.901   3.751  10.670 -1.2004 -1.0191  0.0680
  121OSM    H3G12847   6.959   3.877  10.562 -1.5950  2.1691 -0.4773
  121OSM    C4F12848   6.748   3.813  10.531  0.3946 -0.2766 -0.5716
  121OSM    H4F12849   6.720   3.913  10.493 -2.1169  1.6218  5.1850
  121OSM    H4G12850   6.673   3.770  10.601  0.0363 -1.8435 -1.8531
  121OSM    C5F12851   6.779   3.713  10.417 -0.6340 -0.4027 -0.6902
  121OSM    H5F12852   6.868   3.649  10.437 -1.2916 -0.5052  2.4070
  121OSM    H5G12853   6.802   3.770  10.325 -2.2669  0.8304 -0.3851
  121OSM    C6F12854   6.654   3.624  10.389 -0.6898 -0.0692 -0.2974
  121OSM    H6F12855   6.549   3.661  10.389 -1.9042 -3.1342 -2.5952
  121OSM    H6G12856   6.662   3.538  10.458 -0.1625 -2.0188 -2.6528
  121OSM    C7F12857   6.653   3.554  10.249  1.2567 -0.3210  1.1039
  121OSM    H7F12858   6.580   3.471  10.257 -0.2510  0.8178 -0.1883
  121OSM    H7G12859   6.756   3.514  10.233  0.8188 -1.9136  2.0227
  121OSM    C8F12860   6.610   3.646  10.133  0.3832 -0.3257  0.5648
  121OSM    H8F12861   6.688   3.718  10.098 -1.9656  1.4283 -1.4316
  121OSM    H8G12862   6.530   3.719  10.159  0.7434  0.1658  0.3270
  121OSM    C9F12863   6.571   3.562  10.014  0.3301 -0.1896 -0.3140
  121OSM    H9F12864   6.617   3.462  10.016  0.5481 -0.0948 -0.5680
  121OSM   C10F12865   6.486   3.587   9.910 -0.1221 -0.1346 -0.5103
  121OSM   H10F12866   6.493   3.514   9.828  1.2966 -0.7953  0.1527
  121OSM   C11F12867   6.402   3.707   9.883  0.1202  0.0664 -0.5407
  121OSM   H11F12868   6.426   3.797   9.944 -2.0786 -0.0500  0.5864
  121OSM   H11G12869   6.296   3.685   9.904 -0.1697  1.8115 -0.0438
  121OSM   C12F12870   6.401   3.773   9.742  0.5067  0.5345 -0.2585
  121OSM   H12F12871   6.495   3.825   9.713  0.2597  0.4027 -1.3465
  121OSM   H12G12872   6.315   3.844   9.742  0.1196  0.0746  0.2499
  121OSM   C13F12873   6.350   3.687   9.629  1.4923 -0.3381  0.3831
  121OSM   H13F12874   6.251   3.641   9.650  2.0340 -2.0352 -0.5282
  121OSM   H13G12875   6.427   3.610   9.606 -1.2247 -2.1531 -3.7435
  121OSM   C14F12876   6.332   3.769   9.505 -0.3095 -0.7451 -0.2708
  121OSM   H14F12877   6.402   3.854   9.513 -0.4260 -0.7358  0.7182
  121OSM   H14G12878   6.232   3.816   9.506  0.6604  1.3933 -0.0961
  121OSM   C15F12879   6.338   3.691   9.368  0.2732 -0.1345 -0.0567
  121OSM   H15F12880   6.240   3.639   9.369 -0.1751  0.6748  1.1961
  121OSM   H15G12881   6.430   3.628   9.369 -0.0537 -0.6731  2.4490
  121OSM   C16F12882   6.335   3.780   9.250  0.3966  0.9202 -0.4522
  121OSM   H16F12883   6.399   3.871   9.241  1.0738  0.6367  1.0962
  121OSM   H16G12884   6.231   3.817   9.240 -1.1974 -2.8017  0.7718
  121OSM   C17F12885   6.353   3.705   9.116 -0.2986  0.1742 -0.5957
  121OSM   H17F12886   6.280   3.623   9.097  0.7879 -0.6121 -1.5309
  121OSM   H17G12887   6.447   3.647   9.122  0.4247  0.8812 -3.5454
  121OSM   C18F12888   6.362   3.805   9.001 -0.1631 -0.1711  0.2627
  121OSM   H18F12889   6.265   3.850   8.973  0.0201  1.6031  2.2109
  121OSM   H18G12890   6.402   3.761   8.907 -2.5393 -0.5157 -0.6553
  121OSM   H18H12891   6.424   3.893   9.031  0.0327  0.2012 -1.1746
  122OSM      N12892   0.864   0.569  10.651  0.5090  0.2788 -0.8390
  122OSM    C1512893   0.928   0.435  10.628  0.6827 -0.1269 -0.6620
  122OSM   H15A12894   0.880   0.387  10.543 -0.9103  1.3677 -0.6623
  122OSM   H15B12895   0.921   0.367  10.711  0.6064  0.8607  0.1522
  122OSM   H15C12896   1.031   0.456  10.603  0.7575 -0.8368 -0.9745
  122OSM    C1412897   0.721   0.559  10.686 -0.1870 -0.8171  0.3038
  122OSM   H14A12898   0.664   0.519  10.604 -1.6128  0.3031  0.7083
  122OSM   H14B12899   0.677   0.657  10.686 -0.2462 -0.8166 -1.3365
  122OSM   H14C12900   0.703   0.509  10.781  1.1609 -0.1655  0.9264
  122OSM    C1312901   0.929   0.631  10.773 -0.1778 -0.9276 -0.1756
  122OSM   H13A12902   0.919   0.567  10.859 -0.0849 -1.1809 -0.3519
  122OSM   H13B12903   0.868   0.716  10.801  0.0995 -0.6913 -0.2766
  122OSM   H13C12904   1.028   0.668  10.749  0.5860 -1.7074  1.6544
  122OSM    C1212905   0.883   0.657  10.528  0.6438  0.3225  0.4412
  122OSM   H12A12906   0.825   0.745  10.551  2.8025  1.8736  0.3161
  122OSM   H12B12907   0.834   0.601  10.450  0.7662  0.2320  0.4299
  122OSM    C1112908   1.022   0.708  10.489  0.1721  0.2733  0.4418
  122OSM   H11A12909   1.012   0.747  10.385 -0.5496 -1.2979 -0.1137
  122OSM   H11B12910   1.090   0.620  10.481 -1.6410 -1.1584  0.2009
  122OSM      P12911   1.041   0.947  10.588  0.2027 -0.0691 -0.3955
  122OSM    O1312912   0.896   0.946  10.548 -1.0345 -0.2631 -0.2283
  122OSM    O1412913   1.065   0.996  10.726  0.1631  0.4630  0.4080
  122OSM    O1112914   1.134   1.022  10.483  0.1913  0.3246 -0.4719
  122OSM    O1212915   1.081   0.796  10.581 -0.4931  0.4437 -0.1799
  122OSM    C1S12916   1.184   0.968  10.362 -0.5094  0.3006 -0.1239
  122OSM    H1S12917   1.097   0.933  10.302 -1.2753 -1.0200  1.6426
  122OSM    H1T12918   1.238   0.872  10.378 -0.5946  0.1566 -0.6673
  122OSM     NF12919   1.335   1.009  10.163 -0.1230  0.0064 -0.3385
  122OSM    HNF12920   1.428   0.974  10.160 -0.1948 -0.3523  0.9707
  122OSM    C2S12921   1.279   1.069  10.284  0.1283 -0.5806 -0.3326
  122OSM    H2S12922   1.214   1.155  10.259  0.0910 -0.2866  0.7465
  122OSM    C3S12923   1.383   1.123  10.382 -0.2822  0.0563  0.3313
  122OSM    H3S12924   1.426   1.032  10.427 -1.2542  0.0073  1.2002
  122OSM     O312925   1.336   1.184  10.499  0.7613 -0.0370 -0.0757
  122OSM    HO312926   1.258   1.132  10.519  3.0918 -3.6599  0.4798
  122OSM    C4S12927   1.479   1.220  10.320  0.8913  0.7137 -0.2931
  122OSM    H4S12928   1.444   1.304  10.258 -0.0966 -0.7899 -1.8729
  122OSM    C5S12929   1.616   1.192  10.324  0.4605 -0.4862 -0.0660
  122OSM    H5S12930   1.649   1.093  10.357 -0.2209 -0.1931  1.6181
  122OSM    C6S12931   1.723   1.283  10.274 -0.9593  0.4228 -0.6614
  122OSM    H6S12932   1.811   1.292  10.342  0.6721 -0.7186 -2.5081
  122OSM    H6T12933   1.687   1.386  10.250  0.6711  1.0383 -0.5885
  122OSM    C7S12934   1.775   1.232  10.139  0.6542 -0.2171 -0.1993
  122OSM    H7S12935   1.805   1.126  10.156  1.0996 -0.1096 -0.3016
  122OSM    H7T12936   1.861   1.293  10.104  0.8297  1.4098  2.7358
  122OSM    C8S12937   1.663   1.254  10.033  0.8739 -0.3772 -0.3119
  122OSM    H8S12938   1.631   1.359  10.047  0.2877 -0.4792 -0.8163
  122OSM    H8T12939   1.567   1.197  10.043 -1.2789  3.0245  0.0156
  122OSM    C9S12940   1.718   1.220   9.901 -0.4287  0.0333  0.2006
  122OSM    H9S12941   1.746   1.112   9.899 -0.2585  0.0492  1.1867
  122OSM    H9T12942   1.815   1.273   9.894 -0.9831  1.6919  3.2877
  122OSM   C10S12943   1.627   1.263   9.786 -0.3610  0.2271  0.1425
  122OSM   H10S12944   1.605   1.372   9.781  2.1626  0.8717  1.5423
  122OSM   H10T12945   1.532   1.213   9.816 -0.6225  0.3729 -0.4220
  122OSM   C11S12946   1.675   1.221   9.650 -0.3837  1.1561  0.6086
  122OSM   H11S12947   1.770   1.276   9.628  1.1519 -0.5659  2.5742
  122OSM   H11T12948   1.593   1.255   9.583 -0.0403  2.5089  0.8309
  122OSM   C12S12949   1.690   1.065   9.638  0.5360 -0.1905 -0.3193
  122OSM   H12S12950   1.607   1.013   9.690  0.9683  1.4648  2.1731
  122OSM   H12T12951   1.779   1.027   9.691  0.6273  1.5022  0.8095
  122OSM   C13S12952   1.680   1.024   9.492  0.3254 -0.7599 -0.5225
  122OSM   H13S12953   1.770   1.059   9.436 -0.5638 -0.0464 -1.5346
  122OSM   H13T12954   1.603   1.096   9.456  2.3029  1.6544 -0.2802
  122OSM   C14S12955   1.640   0.879   9.461  0.5488  0.1920 -0.3163
  122OSM   H14S12956   1.566   0.833   9.530  1.1669 -0.0691  0.1910
  122OSM   H14T12957   1.735   0.822   9.464  0.0144 -0.6816  0.4305
  122OSM   C15S12958   1.568   0.875   9.325  0.4685  0.4472  0.4645
  122OSM   H15S12959   1.495   0.959   9.329 -1.5833 -1.2471  0.6203
  122OSM   H15T12960   1.510   0.780   9.316  0.8890  0.3737 -2.4467
  122OSM   C16S12961   1.666   0.861   9.201  0.3897 -0.1675 -0.0369
  122OSM   H16S12962   1.742   0.786   9.230  2.6748  0.8159 -3.0304
  122OSM   H16T12963   1.729   0.952   9.190  1.9529 -1.3055 -0.8494
  122OSM   C17S12964   1.604   0.806   9.068 -0.5578 -0.2029 -0.1796
  122OSM   H17S12965   1.518   0.873   9.045 -0.4327 -0.1053 -0.3615
  122OSM   H17T12966   1.569   0.702   9.087  1.0051 -0.5133  1.2194
  122OSM   C18S12967   1.707   0.792   8.960 -0.0891  0.1386 -0.4146
  122OSM   H18S12968   1.666   0.744   8.868 -0.0123  0.3586 -0.5641
  122OSM   H18T12969   1.797   0.735   8.991 -0.7693 -0.4395  0.5807
  122OSM   H18U12970   1.740   0.892   8.925 -1.7372 -0.1071 -2.9803
  122OSM    C1F12971   1.257   0.986  10.063  0.4410  0.6161 -0.3156
  122OSM     OF12972   1.140   1.024  10.064 -0.2075 -0.1389 -0.4433
  122OSM    C2F12973   1.315   0.908   9.946  0.1375 -0.4921  1.1550
  122OSM    H2F12974   1.323   0.802   9.980  1.0243 -0.0289  2.4452
  122OSM    H2G12975   1.418   0.942   9.920 -0.5153 -0.7115 -2.2429
  122OSM    C3F12976   1.227   0.928   9.822  0.1949  0.9398 -0.0820
  122OSM    H3F12977   1.203   1.031   9.789  0.4395  1.2288  0.6194
  122OSM    H3G12978   1.130   0.878   9.843  1.0503  0.0582  2.0895
  122OSM    C4F12979   1.283   0.860   9.692  0.2230  0.3959 -0.6874
  122OSM    H4F12980   1.313   0.758   9.724 -0.3430 -0.1695 -1.9052
  122OSM    H4G12981   1.364   0.926   9.654  0.3102  0.9968  0.4862
  122OSM    C5F12982   1.175   0.852   9.582 -1.1245 -0.1672  0.6327
  122OSM    H5F12983   1.072   0.823   9.611 -1.2725  0.2965  0.5655
  122OSM    H5G12984   1.208   0.774   9.509 -2.7234 -0.6613  0.4095
  122OSM    C6F12985   1.180   0.980   9.499 -0.4594  0.0428 -0.3372
  122OSM    H6F12986   1.285   1.000   9.467  0.2531  0.1954  1.9283
  122OSM    H6G12987   1.153   1.066   9.564  0.6222  0.4057 -0.3458
  122OSM    C7F12988   1.070   0.975   9.390  0.4430 -0.2724 -0.2813
  122OSM    H7F12989   0.975   0.997   9.444  0.0420  1.1515 -1.5126
  122OSM    H7G12990   1.049   0.873   9.351 -1.9928 -0.2920  0.8904
  122OSM    C8F12991   1.092   1.082   9.281 -0.4068  0.0186  0.1772
  122OSM    H8F12992   1.190   1.064   9.233  0.5715  0.2227  1.9901
  122OSM    H8G12993   1.098   1.181   9.332 -0.0938 -0.7652  1.7301
  122OSM    C9F12994   0.973   1.062   9.192 -0.7970 -0.4625 -0.0803
  122OSM    H9F12995   0.880   1.111   9.226  0.2723  1.6498 -0.0541
  122OSM   C10F12996   0.963   0.992   9.077 -0.4773  0.2781 -0.1371
  122OSM   H10F12997   0.870   1.004   9.019 -0.5939 -0.5225 -0.1322
  122OSM   C11F12998   1.076   0.914   9.006  0.3480  0.2521 -0.3732
  122OSM   H11F12999   1.031   0.817   8.976 -2.8415  1.2050  0.9223
  122OSM   H11G13000   1.164   0.890   9.070  0.8941 -1.2820 -1.6435
  122OSM   C12F13001   1.133   0.997   8.895  0.6596 -0.1006  1.2598
  122OSM   H12F13002   1.225   0.947   8.857  1.2951  1.0676  1.1954
  122OSM   H12G13003   1.174   1.088   8.944  0.9492 -0.4663  1.7032
  122OSM   C13F13004   1.030   1.032   8.785 -0.1844 -0.0492  0.6514
  122OSM   H13F13005   0.948   1.099   8.819  0.5550  0.2415  1.9073
  122OSM   H13G13006   0.977   0.938   8.756 -0.6482 -0.1221  1.6928
  122OSM   C14F13007   1.099   1.085   8.660 -0.2403 -0.4329 -0.1701
  122OSM   H14F13008   1.154   0.993   8.631 -1.2193 -0.9507 -0.4248
  122OSM   H14G13009   1.179   1.157   8.689 -0.9271  0.7407 -1.1110
  122OSM   C15F13010   1.018   1.137   8.549 -0.3452  0.4764  0.1669
  122OSM   H15F13011   0.950   1.222   8.571 -1.7533 -0.1648 -1.4948
  122OSM   H15G13012   0.959   1.054   8.504 -0.2746  0.2660  0.4620
  122OSM   C16F13013   1.112   1.189   8.437 -0.3705 -0.7407 -0.6259
  122OSM   H16F13014   1.197   1.116   8.442  1.5747  1.4774  1.6216
  122OSM   H16G13015   1.151   1.286   8.475 -0.4870 -0.1497 -1.9483
  122OSM   C17F13016   1.050   1.202   8.299 -0.3220 -0.2734  0.3569
  122OSM   H17F13017   1.007   1.102   8.277 -0.7724 -0.4827  2.0466
  122OSM   H17G13018   1.124   1.230   8.221  0.9096  2.5651  2.3728
  122OSM   C18F13019   0.938   1.305   8.298  0.3055  0.1451 -0.7100
  122OSM   H18F13020   0.879   1.290   8.205 -1.3059  0.9225  0.1320
  122OSM   H18G13021   0.985   1.404   8.315  0.2953  0.2657 -1.3573
  122OSM   H18H13022   0.861   1.296   8.377  0.3687  2.9706 -0.2427
  123OSM      N13023   6.490   0.434   5.558  0.1175  0.2429  0.4085
  123OSM    C1513024   6.510   0.309   5.473 -0.2830  0.0922 -0.4747
  123OSM   H15A13025   6.454   0.225   5.511 -1.3678 -0.2399 -2.6301
  123OSM   H15B13026   6.617   0.294   5.470 -0.1901  0.5682  0.2980
  123OSM   H15C13027   6.471   0.321   5.373 -2.1088 -2.0614 -0.0906
  123OSM    C1413028   6.543   0.558   5.483  0.4532  0.3947 -0.1620
  123OSM   H14A13029   6.490   0.573   5.390 -0.7561  1.1924  0.6238
  123OSM   H14B13030   6.646   0.534   5.464  0.3163 -0.6320  0.3016
  123OSM   H14C13031   6.538   0.648   5.542 -1.5861  1.0581 -1.2512
  123OSM    C1313032   6.334   0.440   5.587 -1.0128 -0.7972 -0.9842
  123OSM   H13A13033   6.300   0.351   5.639 -3.0859  1.4746  1.8973
  123OSM   H13B13034   6.272   0.456   5.500  0.4152 -1.1618 -2.1102
  123OSM   H13C13035   6.322   0.518   5.661  0.7336 -1.8748  0.5356
  123OSM    C1213036   6.567   0.407   5.690 -0.1561  0.4021  0.0742
  123OSM   H12A13037   6.543   0.486   5.760 -0.2323  1.0449 -0.6538
  123OSM   H12B13038   6.674   0.419   5.676 -0.0788  0.2541  0.5162
  123OSM    C1113039   6.554   0.267   5.759  0.5315 -0.9050  0.3245
  123OSM   H11A13040   6.615   0.260   5.852 -2.4501  2.1920  2.7619
  123OSM   H11B13041   6.587   0.192   5.684  0.0862  0.6346 -1.4791
  123OSM      P13042   6.365   0.244   5.947  0.4294  0.2124  0.1387
  123OSM    O1313043   6.219   0.278   5.939  0.1063  0.2026  0.5082
  123OSM    O1413044   6.401   0.111   6.002  0.2969  0.3237 -0.3909
  123OSM    O1113045   6.450   0.355   6.024  0.1717 -0.0670 -0.7188
  123OSM    O1213046   6.417   0.267   5.796  0.1199  0.5145 -0.3748
  123OSM    C1S13047   6.411   0.402   6.154 -0.4183 -0.6945  0.3071
  123OSM    H1S13048   6.304   0.375   6.172  0.0028 -0.9107  2.7395
  123OSM    H1T13049   6.422   0.512   6.158  3.2628 -0.8910 -0.7407
  123OSM     NF13050   6.443   0.388   6.400 -0.6156 -0.2597  0.1807
  123OSM    HNF13051   6.486   0.459   6.456 -1.4913  0.7260 -0.3519
  123OSM    C2S13052   6.502   0.357   6.272  0.5803  0.6513  0.3020
  123OSM    H2S13053   6.502   0.246   6.268 -1.0374  0.6178  0.4029
  123OSM    C3S13054   6.650   0.416   6.248  0.1154  0.1729  0.3856
  123OSM    H3S13055   6.645   0.527   6.250  0.8429  0.2280 -0.1814
  123OSM     O313056   6.707   0.396   6.113  0.3891 -0.7562 -0.3430
  123OSM    HO313057   6.623   0.378   6.071  0.0404 -2.2099  0.8822
  123OSM    C4S13058   6.741   0.368   6.355  0.6825  0.6082 -0.5394
  123OSM    H4S13059   6.733   0.426   6.448  1.0213 -0.0978 -0.0641
  123OSM    C5S13060   6.813   0.250   6.362 -0.0247 -0.2649 -0.4725
  123OSM    H5S13061   6.805   0.171   6.285 -1.6612  1.4838 -2.2063
  123OSM    C6S13062   6.892   0.215   6.484  0.3787 -0.5328  0.5916
  123OSM    H6S13063   6.907   0.304   6.549 -2.7155 -1.1141  2.3069
  123OSM    H6T13064   6.988   0.170   6.452  0.2458 -0.8381  0.6197
  123OSM    C7S13065   6.829   0.117   6.581  0.2323 -0.7677  0.3910
  123OSM    H7S13066   6.807   0.019   6.531 -3.1231 -0.6583  1.4250
  123OSM    H7T13067   6.729   0.150   6.617  0.1182  1.7444 -1.8955
  123OSM    C8S13068   6.907   0.105   6.717 -0.6522  0.1141  0.0244
  123OSM    H8S13069   7.015   0.081   6.713 -0.8218 -0.5447 -0.8916
  123OSM    H8T13070   6.866   0.021   6.777  0.3887 -1.1275 -0.9580
  123OSM    C9S13071   6.913   0.234   6.810  0.3962  0.2189 -0.4078
  123OSM    H9S13072   6.835   0.303   6.772 -1.9235 -2.7531 -1.4369
  123OSM    H9T13073   7.016   0.273   6.801  1.9349 -2.9688  1.7372
  123OSM   C10S13074   6.898   0.187   6.957  0.3818  0.0462  0.3708
  123OSM   H10S13075   6.934   0.083   6.966  1.2281  0.2533 -0.4219
  123OSM   H10T13076   6.789   0.189   6.978  0.7098  1.6155  2.1699
  123OSM   C11S13077   6.956   0.291   7.055  0.3424 -0.4007  0.0749
  123OSM   H11S13078   6.904   0.388   7.042  2.1014  0.7784  1.2735
  123OSM   H11T13079   7.067   0.298   7.044  0.5207 -1.6416  0.7811
  123OSM   C12S13080   6.933   0.232   7.191 -0.5765 -0.9794  0.0455
  123OSM   H12S13081   6.993   0.138   7.201 -1.9664 -1.7615  1.4423
  123OSM   H12T13082   6.825   0.215   7.206 -0.7565  0.2150  0.1339
  123OSM   C13S13083   6.969   0.324   7.307 -0.2401 -0.0612 -1.0896
  123OSM   H13S13084   6.901   0.412   7.303  1.4861  1.4782  0.9051
  123OSM   H13T13085   7.068   0.374   7.292 -1.1458  2.7392  1.3924
  123OSM   C14S13086   6.961   0.253   7.438 -0.2423 -0.4755  0.0418
  123OSM   H14S13087   7.033   0.168   7.434  0.5079  0.1940 -1.7709
  123OSM   H14T13088   6.868   0.205   7.477 -0.2106  1.3214  2.5449
  123OSM   C15S13089   7.007   0.342   7.556 -0.2451 -0.1022 -0.3098
  123OSM   H15S13090   7.097   0.402   7.529 -1.0560  0.6839 -1.3461
  123OSM   H15T13091   7.045   0.280   7.641  0.7260  2.2099  1.0690
  123OSM   C16S13092   6.902   0.426   7.624  0.3831 -0.2323  0.0968
  123OSM   H16S13093   6.818   0.369   7.669  0.3328  1.0012  1.6623
  123OSM   H16T13094   6.865   0.485   7.538  2.2439  0.3727 -0.3461
  123OSM   C17S13095   6.945   0.521   7.736  0.3169  1.3847  0.7200
  123OSM   H17S13096   7.047   0.562   7.719  1.1862 -0.3298  1.5334
  123OSM   H17T13097   6.941   0.470   7.835  0.3935 -0.6512 -0.2768
  123OSM   C18S13098   6.848   0.638   7.752  0.0059 -0.3489 -0.7936
  123OSM   H18S13099   6.753   0.607   7.703 -0.9243  1.2358 -0.0946
  123OSM   H18T13100   6.880   0.730   7.700  2.0049 -1.3478 -1.4054
  123OSM   H18U13101   6.839   0.659   7.861 -1.1318  1.4565 -1.1906
  123OSM    C1F13102   6.334   0.330   6.443  0.8297  0.0536  0.8456
  123OSM     OF13103   6.288   0.230   6.384  0.2237  0.0094 -0.4983
  123OSM    C2F13104   6.279   0.382   6.567  0.2264 -0.2263 -0.2199
  123OSM    H2F13105   6.224   0.300   6.618 -0.9744  0.7897  0.1714
  123OSM    H2G13106   6.220   0.474   6.546 -0.1268 -0.6756 -1.2519
  123OSM    C3F13107   6.390   0.429   6.672 -0.3764  0.1508 -0.4447
  123OSM    H3F13108   6.345   0.483   6.758  1.3517 -0.3744  0.8565
  123OSM    H3G13109   6.460   0.500   6.623 -0.3298  0.0693 -0.4969
  123OSM    C4F13110   6.472   0.306   6.730  0.4215  0.3549  0.5108
  123OSM    H4F13111   6.522   0.258   6.643  0.2373  0.4478  0.3539
  123OSM    H4G13112   6.393   0.236   6.763 -1.5820  0.6872 -3.0688
  123OSM    C5F13113   6.570   0.334   6.843 -0.3045 -0.1593  0.4469
  123OSM    H5F13114   6.650   0.394   6.795 -1.0665  1.0763  0.6653
  123OSM    H5G13115   6.615   0.235   6.865  0.0610  0.1507  1.1463
  123OSM    C6F13116   6.509   0.402   6.967 -0.3809  0.4205  0.1965
  123OSM    H6F13117   6.428   0.335   7.002  1.5493 -1.2505  1.7213
  123OSM    H6G13118   6.465   0.500   6.941 -2.4632 -0.8715 -1.5478
  123OSM    C7F13119   6.603   0.416   7.081 -0.4187 -0.5580  0.5039
  123OSM    H7F13120   6.696   0.468   7.048 -0.6933 -0.3431  0.0548
  123OSM    H7G13121   6.637   0.321   7.126  1.0397  0.0415  0.7389
  123OSM    C8F13122   6.540   0.492   7.203 -0.0134 -0.0062 -0.1241
  123OSM    H8F13123   6.457   0.427   7.238 -0.2035  0.0960 -0.3844
  123OSM    H8G13124   6.482   0.576   7.160  0.3089 -0.3885 -1.3484
  123OSM    C9F13125   6.622   0.531   7.318  0.5221 -0.3313  0.4619
  123OSM    H9F13126   6.707   0.467   7.346  0.2303 -1.3652 -0.8840
  123OSM   C10F13127   6.604   0.652   7.388 -0.6925  0.0127 -0.2018
  123OSM   H10F13128   6.675   0.690   7.462 -0.2580  0.7156 -0.9611
  123OSM   C11F13129   6.487   0.747   7.367 -0.1838 -0.0636 -0.0180
  123OSM   H11F13130   6.403   0.721   7.435 -0.6943 -0.3438 -0.7440
  123OSM   H11G13131   6.442   0.734   7.266 -0.0652  0.1562 -0.0972
  123OSM   C12F13132   6.513   0.898   7.382 -0.8943 -0.6157 -0.2423
  123OSM   H12F13133   6.415   0.944   7.355 -0.7948  0.3926  1.0218
  123OSM   H12G13134   6.597   0.936   7.321 -0.3738  0.6314  1.2007
  123OSM   C13F13135   6.540   0.941   7.531 -0.3392  0.4076 -0.5263
  123OSM   H13F13136   6.637   0.888   7.548 -1.8873 -2.7139 -0.5977
  123OSM   H13G13137   6.471   0.904   7.610 -0.2455  0.2069 -0.5370
  123OSM   C14F13138   6.568   1.092   7.546 -0.1676 -0.2568 -1.1735
  123OSM   H14F13139   6.472   1.143   7.525 -2.6022 -2.2336  3.6485
  123OSM   H14G13140   6.637   1.139   7.473  1.3359  1.7359  1.3586
  123OSM   C15F13141   6.619   1.132   7.686 -0.2188 -0.1202  0.3555
  123OSM   H15F13142   6.538   1.102   7.756  1.5448 -1.0090  2.1185
  123OSM   H15G13143   6.639   1.241   7.693  0.8514 -0.3298  0.9326
  123OSM   C16F13144   6.755   1.067   7.724 -0.2801 -0.0328 -0.0253
  123OSM   H16F13145   6.820   1.080   7.635 -0.8660 -2.1055 -0.7947
  123OSM   H16G13146   6.740   0.960   7.747  0.2105  0.1071  1.0362
  123OSM   C17F13147   6.826   1.118   7.855 -0.4627  0.3919 -0.1812
  123OSM   H17F13148   6.767   1.103   7.948 -0.6784 -0.1986 -0.4039
  123OSM   H17G13149   6.837   1.228   7.847  1.5003  0.1335 -1.6130
  123OSM   C18F13150   6.970   1.065   7.877  0.5882  0.4451 -0.6676
  123OSM   H18F13151   6.963   0.959   7.911  0.1802  0.5609 -0.3838
  123OSM   H18G13152   7.032   1.124   7.947  0.8170 -0.7827  0.2078
  123OSM   H18H13153   7.027   1.051   7.783 -0.8739  0.0790 -1.5215
  124OSM      N13154   2.889   4.460   6.157 -0.4519  0.0343  0.1708
  124OSM    C1513155   2.832   4.401   6.039  0.5334 -0.6455 -0.2672
  124OSM   H15A13156   2.850   4.455   5.947  2.2442 -1.3869 -0.4174
  124OSM   H15B13157   2.727   4.378   6.036  0.3951 -0.0639  0.0085
  124OSM   H15C13158   2.871   4.302   6.019  1.8964 -0.2165  0.1467
  124OSM    C1413159   3.044   4.437   6.159 -0.2368  1.1231 -0.3818
  124OSM   H14A13160   3.057   4.330   6.156 -0.7484  0.6909  4.4492
  124OSM   H14B13161   3.084   4.479   6.250  2.3615 -1.0320 -0.3995
  124OSM   H14C13162   3.083   4.490   6.073 -0.2818  0.7668 -0.6251
  124OSM    C1313163   2.863   4.609   6.155 -0.0211 -0.1370  0.0141
  124OSM   H13A13164   2.757   4.617   6.136 -0.2900 -1.1830  0.9772
  124OSM   H13B13165   2.919   4.661   6.078 -0.1666 -0.8546 -0.5952
  124OSM   H13C13166   2.890   4.655   6.249 -0.3681  0.6335 -0.2621
  124OSM    C1213167   2.839   4.396   6.283  0.5186  0.2185  0.1635
  124OSM   H12A13168   2.860   4.291   6.270 -0.4763  0.2720 -2.5371
  124OSM   H12B13169   2.732   4.400   6.280  0.5329  0.4612 -0.0693
  124OSM    C1113170   2.878   4.452   6.422 -0.0853  0.3639  0.1740
  124OSM   H11A13171   2.989   4.457   6.420 -0.1338  1.7179  0.2269
  124OSM   H11B13172   2.832   4.387   6.499  0.4412  2.8226  2.7490
  124OSM      P13173   2.664   4.609   6.435  0.5676  0.4153  0.3181
  124OSM    O1313174   2.653   4.735   6.366 -0.4280 -0.1649  0.6921
  124OSM    O1413175   2.592   4.492   6.376  0.2913  0.5028 -0.9783
  124OSM    O1113176   2.614   4.637   6.579 -0.5906 -0.7157 -0.0429
  124OSM    O1213177   2.820   4.580   6.442 -0.0715 -0.1439 -0.2469
  124OSM    C1S13178   2.697   4.579   6.685 -0.0613 -0.3143  0.1007
  124OSM    H1S13179   2.800   4.620   6.675 -0.7862  1.1611 -1.8058
  124OSM    H1T13180   2.703   4.468   6.676 -1.9902 -0.2616 -4.0007
  124OSM     NF13181   2.743   4.536   6.928 -0.4820  0.1226  0.0743
  124OSM    HNF13182   2.709   4.446   6.956 -0.9675  0.8780  2.0697
  124OSM    C2S13183   2.652   4.613   6.837 -0.3380  0.5002 -0.2561
  124OSM    H2S13184   2.660   4.722   6.860  0.1092 -0.1447  3.1334
  124OSM    C3S13185   2.508   4.583   6.866 -0.1972 -0.7032 -0.4237
  124OSM    H3S13186   2.486   4.474   6.857 -1.9522 -0.6465  1.9122
  124OSM     O313187   2.423   4.655   6.778 -0.0379 -0.3189  0.9118
  124OSM    HO313188   2.478   4.684   6.706  1.0512  0.1841  1.9169
  124OSM    C4S13189   2.477   4.620   7.011 -0.5863  0.1394  0.6645
  124OSM    H4S13190   2.479   4.537   7.082  2.4777  0.9910  1.7475
  124OSM    C5S13191   2.451   4.739   7.062  0.0315  0.4637  0.0290
  124OSM    H5S13192   2.446   4.824   6.993 -0.1268  0.0392 -0.4883
  124OSM    C6S13193   2.414   4.765   7.205  0.0332 -0.0436 -0.1978
  124OSM    H6S13194   2.314   4.813   7.212  0.2392  0.2310  0.9722
  124OSM    H6T13195   2.477   4.845   7.250 -0.8624  0.8150 -0.4355
  124OSM    C7S13196   2.414   4.638   7.298  0.0675 -0.3078 -0.3523
  124OSM    H7S13197   2.514   4.592   7.284  0.4305  0.7823 -1.6441
  124OSM    H7T13198   2.332   4.575   7.256 -0.5686  0.6050 -0.5294
  124OSM    C8S13199   2.382   4.678   7.442 -0.0461 -0.7988  0.3601
  124OSM    H8S13200   2.277   4.712   7.442  0.5389  1.1505 -0.2530
  124OSM    H8T13201   2.448   4.763   7.470 -2.3127  0.9944  0.5142
  124OSM    C9S13202   2.400   4.564   7.544 -0.0895  0.0326 -0.7431
  124OSM    H9S13203   2.503   4.522   7.545 -0.5821 -1.2088  0.4253
  124OSM    H9T13204   2.322   4.491   7.512  0.1604  0.5750 -2.7103
  124OSM   C10S13205   2.357   4.596   7.691  0.6090  0.2963 -0.2658
  124OSM   H10S13206   2.248   4.618   7.693  0.5244  0.1540  3.6092
  124OSM   H10T13207   2.419   4.681   7.727 -0.3466  0.9488 -0.1196
  124OSM   C11S13208   2.371   4.481   7.790  0.5857 -0.1996 -0.3693
  124OSM   H11S13209   2.460   4.423   7.759  0.3577 -1.3913  1.0769
  124OSM   H11T13210   2.288   4.407   7.788 -0.9042  1.4196 -1.4484
  124OSM   C12S13211   2.380   4.516   7.939  0.3394  0.0327  0.1837
  124OSM   H12S13212   2.374   4.430   8.009 -0.4502  0.5754  0.7902
  124OSM   H12T13213   2.306   4.595   7.965  0.2947  0.4052 -0.9742
  124OSM   C13S13214   2.517   4.585   7.959  0.7527  0.2033 -0.6953
  124OSM   H13S13215   2.502   4.691   7.930 -2.0528  0.2811  0.7160
  124OSM   H13T13216   2.601   4.533   7.908  1.2477 -1.4721  1.6188
  124OSM   C14S13217   2.548   4.585   8.111 -0.9194 -0.0268 -0.1190
  124OSM   H14S13218   2.553   4.478   8.140  0.2632 -0.2093 -0.9213
  124OSM   H14T13219   2.479   4.641   8.178 -2.8110 -0.3446 -1.7063
  124OSM   C15S13220   2.687   4.639   8.141 -0.6870 -0.7406  0.0406
  124OSM   H15S13221   2.670   4.728   8.206  0.9366  0.7948 -1.5379
  124OSM   H15T13222   2.729   4.675   8.045  1.2050 -3.6434 -0.3475
  124OSM   C16S13223   2.771   4.541   8.224 -0.8171 -0.0325 -0.2385
  124OSM   H16S13224   2.786   4.447   8.167  1.1368  0.3858 -0.4618
  124OSM   H16T13225   2.729   4.512   8.323 -0.7250 -0.0823 -0.2138
  124OSM   C17S13226   2.914   4.588   8.247 -0.4290  0.5961 -0.5942
  124OSM   H17S13227   2.919   4.661   8.330  0.2999  0.4994 -0.5452
  124OSM   H17T13228   2.956   4.632   8.154  1.0144 -0.6708 -0.5809
  124OSM   C18S13229   3.016   4.482   8.299 -0.5554 -0.3499  0.2890
  124OSM   H18S13230   3.112   4.538   8.310 -1.8935  2.1165  0.1526
  124OSM   H18T13231   3.024   4.401   8.223  0.2108 -0.5011  0.5211
  124OSM   H18U13232   2.990   4.439   8.398  0.7244  2.2236  1.8727
  124OSM    C1F13233   2.871   4.565   6.938 -0.6132  0.3482  0.1298
  124OSM     OF13234   2.920   4.669   6.904  0.2202 -0.3540  0.4300
  124OSM    C2F13235   2.953   4.452   6.982  0.5611 -1.3915  1.2202
  124OSM    H2F13236   3.042   4.441   6.916 -1.5714 -2.6529 -1.7014
  124OSM    H2G13237   2.892   4.362   6.960 -1.9317  0.6386 -0.7739
  124OSM    C3F13238   2.996   4.459   7.128  0.0132 -0.0202  0.1327
  124OSM    H3F13239   3.044   4.558   7.143  1.9105 -1.0671  1.3793
  124OSM    H3G13240   3.077   4.385   7.147  0.2479  0.3571  0.6214
  124OSM    C4F13241   2.881   4.422   7.220 -0.0965  0.0909  0.4992
  124OSM    H4F13242   2.852   4.319   7.193 -1.1637  0.4880  0.0963
  124OSM    H4G13243   2.793   4.489   7.209  1.2084  1.5883 -1.6022
  124OSM    C5F13244   2.920   4.417   7.372  0.4826  0.0539 -0.2251
  124OSM    H5F13245   3.012   4.357   7.388 -1.0345 -2.2314  0.6085
  124OSM    H5G13246   2.842   4.362   7.429  2.7258 -1.3444  1.6682
  124OSM    C6F13247   2.926   4.549   7.444  0.0642  0.3749  0.0114
  124OSM    H6F13248   2.828   4.600   7.429  0.7900  1.2883 -1.9352
  124OSM    H6G13249   3.005   4.602   7.388 -1.3847  2.5703 -0.0844
  124OSM    C7F13250   2.966   4.521   7.590 -0.3992 -0.5263  0.8660
  124OSM    H7F13251   3.063   4.468   7.599  1.2270  1.2427 -3.6744
  124OSM    H7G13252   2.891   4.455   7.639 -0.2186 -0.8865  0.6590
  124OSM    C8F13253   2.990   4.646   7.679 -0.0541  0.1131 -0.0350
  124OSM    H8F13254   2.901   4.713   7.683 -0.5223 -0.5365  2.7958
  124OSM    H8G13255   3.082   4.700   7.648  0.3607 -0.1048  0.7947
  124OSM    C9F13256   3.008   4.615   7.824 -0.5844 -0.3736  0.3531
  124OSM    H9F13257   2.929   4.545   7.858 -1.9770  1.2516  0.6092
  124OSM   C10F13258   3.108   4.648   7.906 -0.4530 -0.6315 -0.9634
  124OSM   H10F13259   3.102   4.614   8.011 -1.3926  1.4482 -0.2985
  124OSM   C11F13260   3.229   4.723   7.864 -0.3248 -0.0046  0.0251
  124OSM   H11F13261   3.201   4.826   7.834 -0.1758 -0.1420 -0.6089
  124OSM   H11G13262   3.292   4.685   7.781  1.0736  0.1179  0.9942
  124OSM   C12F13263   3.328   4.742   7.978  0.3699 -0.0813 -0.3953
  124OSM   H12F13264   3.409   4.815   7.957  0.3855 -0.1741 -0.6546
  124OSM   H12G13265   3.387   4.651   8.000  1.1539  0.8045  1.4003
  124OSM   C13F13266   3.261   4.775   8.118 -0.0676 -0.0821 -0.1985
  124OSM   H13F13267   3.221   4.687   8.172  0.7514  1.3710  3.0670
  124OSM   H13G13268   3.172   4.840   8.108 -0.4361 -0.4821  0.4396
  124OSM   C14F13269   3.361   4.834   8.223  0.0382  0.4110 -0.7372
  124OSM   H14F13270   3.408   4.919   8.169  2.0396 -0.7975 -1.0088
  124OSM   H14G13271   3.443   4.760   8.238 -1.0084 -1.0412 -1.8655
  124OSM   C15F13272   3.299   4.885   8.353  1.0931  0.0444  0.0999
  124OSM   H15F13273   3.243   4.979   8.334 -0.8666 -1.4643 -2.3522
  124OSM   H15G13274   3.379   4.908   8.426  0.0915  1.1223  0.8954
  124OSM   C16F13275   3.203   4.780   8.435 -0.1742  0.2124 -0.4962
  124OSM   H16F13276   3.255   4.682   8.439 -1.8888 -0.7294 -0.1765
  124OSM   H16G13277   3.107   4.775   8.379 -1.1101 -1.9581  1.1525
  124OSM   C17F13278   3.182   4.836   8.576 -0.2165  0.3576  0.3712
  124OSM   H17F13279   3.126   4.930   8.553 -1.6001 -0.9737 -2.0879
  124OSM   H17G13280   3.280   4.853   8.626  0.7687 -0.7769 -1.1172
  124OSM   C18F13281   3.090   4.747   8.657  0.7203  0.8879  0.0530
  124OSM   H18F13282   3.156   4.693   8.729  0.3885 -1.9817 -1.6647
  124OSM   H18G13283   3.026   4.686   8.589  0.0019  2.4429 -0.7302
  124OSM   H18H13284   3.025   4.806   8.726 -1.0679 -0.0227 -0.7775
  125OSM      N13285   2.645   5.794   6.425 -0.1443  0.0056  0.0824
  125OSM    C1513286   2.655   5.873   6.562 -0.2072  0.1858  0.3277
  125OSM   H15A13287   2.562   5.920   6.590 -2.0891 -1.9682 -1.8923
  125OSM   H15B13288   2.721   5.959   6.555  1.7005 -1.2055  0.5903
  125OSM   H15C13289   2.696   5.809   6.638  0.8790  0.2600 -0.1786
  125OSM    C1413290   2.639   5.883   6.301 -0.0707 -0.5363 -0.3102
  125OSM   H14A13291   2.540   5.915   6.272  0.1588 -0.0073 -0.5181
  125OSM   H14B13292   2.691   5.830   6.223 -0.5988 -2.4562  0.5874
  125OSM   H14C13293   2.687   5.977   6.324  0.0528 -1.1320  2.1500
  125OSM    C1313294   2.772   5.705   6.427 -0.3576 -0.7546  0.3979
  125OSM   H13A13295   2.791   5.661   6.523  0.0217 -2.2446 -0.3286
  125OSM   H13B13296   2.847   5.781   6.412  0.0886 -1.2034  0.3502
  125OSM   H13C13297   2.778   5.626   6.354  1.7955  0.2029 -0.5525
  125OSM    C1213298   2.530   5.698   6.427 -0.4628 -0.2787 -0.1103
  125OSM   H12A13299   2.530   5.625   6.507 -3.7324 -0.4795 -0.1663
  125OSM   H12B13300   2.541   5.632   6.342  0.1473  1.2253 -1.2286
  125OSM    C1113301   2.392   5.766   6.425 -0.5471  0.6414 -0.6922
  125OSM   H11A13302   2.377   5.820   6.520  0.1259 -0.6358  0.1626
  125OSM   H11B13303   2.322   5.679   6.421  0.4962 -0.2639  0.0830
  125OSM      P13304   2.231   5.942   6.319 -0.2318 -0.0861 -0.0498
  125OSM    O1313305   2.195   5.989   6.178 -0.4840  0.0109 -0.0896
  125OSM    O1413306   2.121   5.885   6.399 -0.3098 -0.0579  0.1530
  125OSM    O1113307   2.288   6.066   6.401  0.5060 -0.0246  0.0077
  125OSM    O1213308   2.355   5.842   6.307 -0.0854 -0.8294  0.0427
  125OSM    C1S13309   2.200   6.175   6.453 -0.0771  0.2592 -0.3018
  125OSM    H1S13310   2.093   6.145   6.452  0.0861 -0.4256  0.8831
  125OSM    H1T13311   2.215   6.263   6.386  0.7430  0.8639  0.6519
  125OSM     NF13312   2.121   6.264   6.676  0.2051 -0.7232  0.3247
  125OSM    HNF13313   2.128   6.362   6.691  1.1438 -0.6422 -0.5726
  125OSM    C2S13314   2.226   6.201   6.604  0.0747  0.0960 -0.4829
  125OSM    H2S13315   2.235   6.099   6.646  2.2295  0.1066 -0.8059
  125OSM    C3S13316   2.363   6.268   6.612 -0.2798 -0.6238 -0.1550
  125OSM    H3S13317   2.355   6.374   6.579  0.6372  0.0632  1.7232
  125OSM     O313318   2.457   6.219   6.515 -0.7692  0.3669 -0.0432
  125OSM    HO313319   2.400   6.162   6.463  1.4324 -0.7199 -1.3825
  125OSM    C4S13320   2.430   6.263   6.745 -0.0995  0.5841  0.0826
  125OSM    H4S13321   2.435   6.166   6.799  0.7721  1.1926  1.1499
  125OSM    C5S13322   2.490   6.367   6.806  0.5758 -0.4990 -0.8759
  125OSM    H5S13323   2.518   6.452   6.742  0.6283 -0.3315 -0.6291
  125OSM    C6S13324   2.551   6.372   6.943  0.2933  0.3477 -0.2516
  125OSM    H6S13325   2.579   6.478   6.963  1.4645  0.3382 -1.6604
  125OSM    H6T13326   2.645   6.316   6.926 -0.0892 -0.5283  0.4154
  125OSM    C7S13327   2.471   6.319   7.062  0.6107  0.3125 -0.4304
  125OSM    H7S13328   2.494   6.210   7.070  0.0721  0.0926 -1.6889
  125OSM    H7T13329   2.365   6.339   7.036  0.8840  0.4342 -1.4788
  125OSM    C8S13330   2.517   6.388   7.198  0.5980  0.4273  0.1380
  125OSM    H8S13331   2.449   6.366   7.283 -0.8433  1.4756 -0.6959
  125OSM    H8T13332   2.500   6.496   7.180  1.2881  0.2539 -1.8287
  125OSM    C9S13333   2.671   6.372   7.231 -0.6112  0.4207  0.4563
  125OSM    H9S13334   2.729   6.409   7.144 -1.4915  0.6874 -0.0355
  125OSM    H9T13335   2.690   6.264   7.245 -1.9923 -0.0256 -0.8588
  125OSM   C10S13336   2.721   6.443   7.364 -0.0848  0.1349  0.3917
  125OSM   H10S13337   2.715   6.554   7.358  1.7187  0.1972 -0.9127
  125OSM   H10T13338   2.821   6.404   7.391 -0.6645 -0.6634  1.4555
  125OSM   C11S13339   2.653   6.405   7.492 -0.5818 -0.3857 -0.0154
  125OSM   H11S13340   2.544   6.429   7.484 -0.2125  1.5906  0.4920
  125OSM   H11T13341   2.692   6.476   7.567  3.2808 -2.5604  0.3117
  125OSM   C12S13342   2.672   6.259   7.536 -0.1682 -0.0462 -0.8381
  125OSM   H12S13343   2.771   6.246   7.584 -1.2379 -4.6970  0.6423
  125OSM   H12T13344   2.683   6.183   7.456 -3.0697 -0.2205 -1.1917
  125OSM   C13S13345   2.570   6.204   7.642 -0.2840  1.0752  0.1271
  125OSM   H13S13346   2.473   6.200   7.586 -0.2115 -1.3204  0.0698
  125OSM   H13T13347   2.547   6.275   7.724  1.8495  1.7384  0.2003
  125OSM   C14S13348   2.610   6.066   7.701 -0.3111 -0.5638 -0.2122
  125OSM   H14S13349   2.717   6.071   7.733 -0.2990 -0.1713 -0.3088
  125OSM   H14T13350   2.606   5.991   7.619  0.6213 -0.1029 -0.6984
  125OSM   C15S13351   2.536   6.046   7.834 -0.2655 -0.1874 -0.6290
  125OSM   H15S13352   2.432   6.024   7.803 -0.0520 -1.2296 -0.6422
  125OSM   H15T13353   2.532   6.140   7.893 -0.3865  0.6241 -1.8924
  125OSM   C16S13354   2.602   5.938   7.923 -0.0920 -0.1833 -0.7409
  125OSM   H16S13355   2.701   5.978   7.952 -0.5619  0.7718 -0.4292
  125OSM   H16T13356   2.599   5.835   7.880 -1.9343 -0.2275 -0.5782
  125OSM   C17S13357   2.538   5.927   8.062 -0.5561  0.3825  0.0761
  125OSM   H17S13358   2.601   5.854   8.118 -2.2103 -1.3532 -0.2232
  125OSM   H17T13359   2.431   5.900   8.052 -1.0177  2.3787 -0.6895
  125OSM   C18S13360   2.542   6.045   8.161  0.0673  0.2554  0.1926
  125OSM   H18S13361   2.644   6.084   8.180 -0.2541  1.4553 -0.4286
  125OSM   H18T13362   2.489   6.011   8.252 -2.3353 -0.3040 -1.3408
  125OSM   H18U13363   2.488   6.132   8.118 -3.2024 -1.2357  0.9656
  125OSM    C1F13364   2.013   6.200   6.714  0.9196  0.2497 -0.2504
  125OSM     OF13365   1.996   6.077   6.713 -0.2734 -0.3963  0.1126
  125OSM    C2F13366   1.907   6.281   6.772 -0.3299  0.0396  0.1051
  125OSM    H2F13367   1.816   6.281   6.709 -1.4446 -0.7958  1.6357
  125OSM    H2G13368   1.953   6.380   6.795  1.2122 -0.8589  1.0229
  125OSM    C3F13369   1.865   6.219   6.906  0.3608  0.3605 -0.1699
  125OSM    H3F13370   1.827   6.115   6.896  0.3253  0.1460  1.8129
  125OSM    H3G13371   1.780   6.284   6.935  0.3322  0.1767  0.1592
  125OSM    C4F13372   1.960   6.233   7.024 -0.0858 -0.5040 -0.0685
  125OSM    H4F13373   1.993   6.336   7.050 -1.1072 -0.0397 -0.5632
  125OSM    H4G13374   2.053   6.176   7.001  0.4753 -0.5073  2.0264
  125OSM    C5F13375   1.891   6.180   7.153 -0.2357 -0.3434  0.0672
  125OSM    H5F13376   1.889   6.071   7.129 -0.2943 -0.3880  0.2732
  125OSM    H5G13377   1.789   6.219   7.169 -1.3981 -3.5719  1.3141
  125OSM    C6F13378   1.968   6.214   7.284  0.1005 -0.4823  0.0852
  125OSM    H6F13379   1.964   6.325   7.282 -0.7087 -0.5100 -1.2654
  125OSM    H6G13380   2.072   6.178   7.269  0.4981  0.3061  0.8905
  125OSM    C7F13381   1.895   6.152   7.403  0.7846 -0.9729 -0.6249
  125OSM    H7F13382   1.971   6.146   7.484  0.7446 -0.6864 -0.5646
  125OSM    H7G13383   1.872   6.048   7.370  2.5442 -1.3018 -0.9114
  125OSM    C8F13384   1.764   6.222   7.462 -0.2367  0.4217  0.0363
  125OSM    H8F13385   1.714   6.152   7.533 -1.6319  2.1901  0.8790
  125OSM    H8G13386   1.699   6.244   7.375 -0.8140  0.2687  0.4210
  125OSM    C9F13387   1.791   6.346   7.539 -0.7804 -0.9582  0.7344
  125OSM    H9F13388   1.823   6.424   7.469 -1.9977  0.1160  1.3360
  125OSM   C10F13389   1.778   6.380   7.667 -0.1032  0.1242  0.7030
  125OSM   H10F13390   1.810   6.477   7.709 -2.0527  0.5014  1.4094
  125OSM   C11F13391   1.729   6.297   7.782  0.6707 -0.0760  0.1006
  125OSM   H11F13392   1.799   6.306   7.868  0.7533 -1.2000  0.1634
  125OSM   H11G13393   1.731   6.190   7.752  0.6156  0.1506 -0.7299
  125OSM   C12F13394   1.594   6.342   7.834 -0.0460  0.3371  0.4845
  125OSM   H12F13395   1.514   6.348   7.757 -2.0739 -1.3906  2.3108
  125OSM   H12G13396   1.609   6.449   7.861  1.1514  0.6581 -1.2789
  125OSM   C13F13397   1.547   6.267   7.967  0.9364  0.4132  0.3206
  125OSM   H13F13398   1.602   6.306   8.055  2.8233 -3.2096  0.9188
  125OSM   H13G13399   1.576   6.162   7.946  0.5866  0.6944 -1.8044
  125OSM   C14F13400   1.394   6.288   7.991 -0.1463  0.3474  0.3392
  125OSM   H14F13401   1.339   6.195   7.964 -0.4616  0.4052  0.7734
  125OSM   H14G13402   1.353   6.368   7.926 -0.0565 -1.0980 -1.5716
  125OSM   C15F13403   1.363   6.323   8.137  0.1984 -0.4088 -0.4709
  125OSM   H15F13404   1.417   6.415   8.166  0.3033 -1.0693  1.5975
  125OSM   H15G13405   1.401   6.250   8.212  0.6685  1.9369  1.6914
  125OSM   C16F13406   1.217   6.345   8.169 -0.5770 -0.7057 -0.0322
  125OSM   H16F13407   1.166   6.246   8.178  1.4237 -1.7132  1.0640
  125OSM   H16G13408   1.152   6.391   8.092 -0.7088 -2.2148 -0.8736
  125OSM   C17F13409   1.193   6.424   8.298  0.1533  0.2666  0.4067
  125OSM   H17F13410   1.216   6.525   8.259  0.8120 -0.9364 -2.6260
  125OSM   H17G13411   1.266   6.396   8.377 -1.9450 -1.6638  1.7622
  125OSM   C18F13412   1.056   6.401   8.346 -0.4676  0.4888 -0.0436
  125OSM   H18F13413   1.033   6.456   8.440 -1.3659 -0.3828  0.2618
  125OSM   H18G13414   1.028   6.294   8.352 -1.7129  0.7918 -0.1749
  125OSM   H18H13415   0.988   6.447   8.270 -4.6437 -0.1339  2.9718
  126OSM      N13416   6.425   4.887   6.401  0.2799  1.0810 -0.7584
  126OSM    C1513417   6.382   4.840   6.267  0.3280  0.0220 -0.0016
  126OSM   H15A13418   6.470   4.811   6.211  0.6600 -1.9017  1.4003
  126OSM   H15B13419   6.321   4.912   6.214  0.7235 -0.7524 -1.5596
  126OSM   H15C13420   6.323   4.753   6.292 -0.1761  0.6701  1.1909
  126OSM    C1413421   6.296   4.894   6.486  0.2608  0.0100 -0.8363
  126OSM   H14A13422   6.216   4.963   6.467 -0.8948 -0.5707  1.4621
  126OSM   H14B13423   6.331   4.906   6.588  0.1793  0.7657 -0.8957
  126OSM   H14C13424   6.251   4.796   6.479  0.0329  0.0372  0.0666
  126OSM    C1313425   6.509   4.779   6.461 -1.1406 -0.1183  0.2811
  126OSM   H13A13426   6.452   4.687   6.461 -1.8840  0.2422 -2.6026
  126OSM   H13B13427   6.553   4.801   6.557  2.2638  0.9866 -1.3481
  126OSM   H13C13428   6.599   4.768   6.402  0.0221  2.6894  1.3517
  126OSM    C1213429   6.505   5.018   6.410  0.8660 -0.1962 -0.2097
  126OSM   H12A13430   6.438   5.090   6.363  0.6243 -0.8442 -0.8782
  126OSM   H12B13431   6.597   5.010   6.354  0.2426  1.9259 -1.6854
  126OSM    C1113432   6.532   5.081   6.546  0.1256  0.0072 -0.0523
  126OSM   H11A13433   6.595   5.011   6.605 -1.8033  0.0276  2.1802
  126OSM   H11B13434   6.441   5.093   6.609  0.3346 -2.6698  0.9216
  126OSM      P13435   6.544   5.336   6.559 -0.3864 -0.0665  0.0324
  126OSM    O1313436   6.648   5.440   6.566  0.2881 -0.0531 -0.5826
  126OSM    O1413437   6.430   5.359   6.469 -0.2438  0.1374  0.3710
  126OSM    O1113438   6.487   5.305   6.706  0.0379  0.5517 -0.0462
  126OSM    O1213439   6.611   5.200   6.523  1.0897 -0.7018 -0.0506
  126OSM    C1S13440   6.579   5.343   6.816  0.6674  0.6559 -0.1554
  126OSM    H1S13441   6.610   5.448   6.801  2.2567  0.3616  0.8327
  126OSM    H1T13442   6.669   5.278   6.817  0.9771  1.0343  2.2215
  126OSM     NF13443   6.603   5.393   7.065  0.6552 -0.1976 -0.2555
  126OSM    HNF13444   6.654   5.322   7.112 -0.8504  0.3165  2.3668
  126OSM    C2S13445   6.516   5.341   6.957  0.1275 -0.8177  0.3134
  126OSM    H2S13446   6.423   5.402   6.954 -0.5635 -1.8356  0.4648
  126OSM    C3S13447   6.471   5.194   6.980  0.1151  0.6287  0.0068
  126OSM    H3S13448   6.565   5.135   6.979 -0.8046 -0.9217 -1.2810
  126OSM     O313449   6.404   5.133   6.866  0.5041  0.1668  0.0295
  126OSM    HO313450   6.427   5.196   6.797 -1.8004  2.6764  1.3405
  126OSM    C4S13451   6.399   5.175   7.111  0.3359  0.7833 -0.6627
  126OSM    H4S13452   6.468   5.192   7.195  0.3566 -1.5507 -0.1270
  126OSM    C5S13453   6.269   5.159   7.142 -0.1002 -0.2038 -0.0948
  126OSM    H5S13454   6.187   5.165   7.069 -0.1814  1.5747  0.1023
  126OSM    C6S13455   6.221   5.134   7.281  0.2126  0.2258 -0.3267
  126OSM    H6S13456   6.167   5.037   7.278  2.6738 -1.2085 -2.2781
  126OSM    H6T13457   6.148   5.211   7.314 -0.1615 -0.5723  0.7688
  126OSM    C7S13458   6.327   5.121   7.398 -0.2032  0.0205  0.6211
  126OSM    H7S13459   6.389   5.211   7.380 -0.4490 -0.4002 -3.1929
  126OSM    H7T13460   6.387   5.028   7.382 -0.8548  0.0248 -2.3660
  126OSM    C8S13461   6.266   5.116   7.535 -0.1700  0.8161 -0.3854
  126OSM    H8S13462   6.197   5.029   7.543 -0.0770  0.5882 -1.9295
  126OSM    H8T13463   6.204   5.208   7.542 -1.7803 -0.2260 -0.3637
  126OSM    C9S13464   6.362   5.134   7.659 -0.8641  0.6173  0.2031
  126OSM    H9S13465   6.412   5.234   7.657  0.9816 -0.2483  0.4001
  126OSM    H9T13466   6.444   5.059   7.653 -0.4685  1.0435  0.2168
  126OSM   C10S13467   6.292   5.102   7.793 -0.2276  0.6213  0.1550
  126OSM   H10S13468   6.242   5.003   7.791 -0.7373  0.8731  0.1986
  126OSM   H10T13469   6.225   5.189   7.811  1.3285  1.8248  0.4249
  126OSM   C11S13470   6.384   5.081   7.909  0.4261 -0.6162 -0.7262
  126OSM   H11S13471   6.446   5.172   7.927  1.4343 -1.5211  0.5884
  126OSM   H11T13472   6.464   5.008   7.884  1.9042  1.2070 -1.6262
  126OSM   C12S13473   6.300   5.041   8.029 -0.2195  0.0076  0.0135
  126OSM   H12S13474   6.247   4.944   8.015 -1.2235  0.6246 -0.5722
  126OSM   H12T13475   6.225   5.123   8.031 -0.1945  0.0290  1.7379
  126OSM   C13S13476   6.379   5.046   8.166  0.3465  0.2197 -0.1937
  126OSM   H13S13477   6.425   5.145   8.183  0.4811  0.2519 -0.7173
  126OSM   H13T13478   6.461   4.973   8.181 -0.1661  0.1908  3.3304
  126OSM   C14S13479   6.284   5.005   8.279 -0.0576 -0.3149 -0.0533
  126OSM   H14S13480   6.260   4.897   8.282 -0.8361 -0.1442  0.4895
  126OSM   H14T13481   6.191   5.066   8.269  0.4738  0.2532 -2.0153
  126OSM   C15S13482   6.357   5.026   8.409 -0.0862 -0.1488  0.0801
  126OSM   H15S13483   6.343   5.132   8.440  1.0410 -0.1158  0.5097
  126OSM   H15T13484   6.462   4.992   8.411  0.0301 -0.0707 -2.2345
  126OSM   C16S13485   6.288   4.960   8.528 -0.0675 -0.1235  0.3937
  126OSM   H16S13486   6.179   4.975   8.513 -0.2432 -0.1062  1.5971
  126OSM   H16T13487   6.324   4.999   8.625  0.3644 -3.0092  1.5035
  126OSM   C17S13488   6.315   4.804   8.530  0.0175 -0.3594 -0.2768
  126OSM   H17S13489   6.314   4.745   8.436  1.8345 -1.9041  0.6082
  126OSM   H17T13490   6.235   4.757   8.591 -0.2429  1.8900  1.2513
  126OSM   C18S13491   6.447   4.774   8.598 -0.2226 -0.3915  0.3294
  126OSM   H18S13492   6.448   4.668   8.632  0.2808 -0.6247 -0.3956
  126OSM   H18T13493   6.450   4.824   8.697  0.9320 -0.0410  0.1365
  126OSM   H18U13494   6.534   4.798   8.534  1.1987 -0.9495  1.9928
  126OSM    C1F13495   6.637   5.521   7.084  0.4925  0.1619 -0.2452
  126OSM     OF13496   6.591   5.607   7.022  0.4582  0.1392 -0.0233
  126OSM    C2F13497   6.746   5.558   7.186  0.3706  0.0122 -0.4140
  126OSM    H2F13498   6.813   5.625   7.128 -2.1485  1.1538 -2.2143
  126OSM    H2G13499   6.805   5.469   7.218  0.8086  1.2344  2.4541
  126OSM    C3F13500   6.698   5.634   7.316  0.2728 -0.5551 -0.7328
  126OSM    H3F13501   6.636   5.718   7.281  1.5384  1.0909  0.7979
  126OSM    H3G13502   6.786   5.675   7.371 -1.5963  0.8571  1.3463
  126OSM    C4F13503   6.605   5.551   7.405  0.0169 -0.1351 -0.2256
  126OSM    H4F13504   6.658   5.459   7.437 -1.0395 -0.2218  1.4180
  126OSM    H4G13505   6.518   5.508   7.353 -0.1585 -0.5212  0.3726
  126OSM    C5F13506   6.558   5.622   7.535  0.2446  0.6220  0.2806
  126OSM    H5F13507   6.512   5.720   7.510 -1.6098 -0.3288 -0.2089
  126OSM    H5G13508   6.638   5.633   7.611  1.4288  1.7710 -1.0697
  126OSM    C6F13509   6.446   5.538   7.602  0.4447  0.1693 -0.3930
  126OSM    H6F13510   6.475   5.434   7.576  2.5042  0.4529  0.5747
  126OSM    H6G13511   6.358   5.559   7.538  0.8430  2.7565 -0.2015
  126OSM    C7F13512   6.419   5.564   7.751 -0.5574  0.1049  0.3169
  126OSM    H7F13513   6.322   5.516   7.775 -1.1428  2.0727  2.1015
  126OSM    H7G13514   6.402   5.672   7.764 -0.4823  0.0681  0.7368
  126OSM    C8F13515   6.523   5.505   7.850 -0.2938 -0.1739  0.1338
  126OSM    H8F13516   6.624   5.547   7.830 -0.1540 -0.4718  0.2057
  126OSM    H8G13517   6.524   5.394   7.848 -0.7524 -0.2050  0.9953
  126OSM    C9F13518   6.479   5.544   7.990 -0.2911  0.0712 -0.0016
  126OSM    H9F13519   6.376   5.585   7.996  0.1417  1.0620  1.2703
  126OSM   C10F13520   6.554   5.549   8.099  0.1662 -0.1993  0.0577
  126OSM   H10F13521   6.497   5.592   8.183 -1.2933  0.3086 -1.1387
  126OSM   C11F13522   6.703   5.522   8.107  0.3835  0.3404 -0.7511
  126OSM   H11F13523   6.722   5.449   8.026 -0.5720 -1.2153  0.3605
  126OSM   H11G13524   6.730   5.465   8.198  0.7860  0.6362 -0.6847
  126OSM   C12F13525   6.769   5.661   8.090  0.2020  0.4708 -0.1294
  126OSM   H12F13526   6.724   5.714   8.003 -0.8722 -1.5285 -0.8733
  126OSM   H12G13527   6.878   5.650   8.071 -0.0162 -0.0550 -1.1900
  126OSM   C13F13528   6.768   5.738   8.225 -0.2058 -0.0820  0.1201
  126OSM   H13F13529   6.809   5.675   8.307  1.7160 -0.6042 -1.1833
  126OSM   H13G13530   6.661   5.762   8.244  0.3555  1.4983  1.5551
  126OSM   C14F13531   6.849   5.868   8.221 -0.1497 -0.7975  0.4151
  126OSM   H14F13532   6.821   5.918   8.126 -2.4239  2.8535  2.7696
  126OSM   H14G13533   6.955   5.839   8.208 -0.1530 -0.0881 -1.4327
  126OSM   C15F13534   6.852   5.962   8.337  0.5915 -0.3715  0.3023
  126OSM   H15F13535   6.869   5.903   8.430  3.2843 -0.9265 -0.4770
  126OSM   H15G13536   6.756   6.019   8.344  0.3320 -0.5691 -1.3347
  126OSM   C16F13537   6.954   6.075   8.328 -0.5992  0.6106  0.6943
  126OSM   H16F13538   6.978   6.097   8.222  0.2133 -0.3127  0.6629
  126OSM   H16G13539   7.046   6.031   8.372 -1.0954 -2.2790 -0.8789
  126OSM   C17F13540   6.919   6.200   8.400  0.7239 -0.2910 -0.0073
  126OSM   H17F13541   6.818   6.232   8.368  0.5358 -1.6455 -0.8417
  126OSM   H17G13542   6.997   6.279   8.390  0.3067  0.6033  2.9013
  126OSM   C18F13543   6.904   6.184   8.550  0.0614 -0.3121 -0.9599
  126OSM   H18F13544   6.865   6.275   8.600  0.6214 -1.3674  1.6060
  126OSM   H18G13545   6.993   6.144   8.604 -0.0518  0.2381 -0.3521
  126OSM   H18H13546   6.823   6.113   8.579  1.6784 -1.9416 -0.1480
  127OSM      N13547   0.035   4.285   6.081  0.6327  0.0871 -0.8848
  127OSM    C1513548   0.072   4.286   5.939 -0.2651 -0.0362  0.1300
  127OSM   H15A13549   0.175   4.259   5.925  0.9243  3.3850  1.2558
  127OSM   H15B13550   0.074   4.387   5.901 -0.3274 -0.0758  0.0227
  127OSM   H15C13551   0.008   4.232   5.871  0.1248  0.9722 -1.0804
  127OSM    C1413552  -0.110   4.319   6.094 -0.1722  0.0605  0.1399
  127OSM   H14A13553  -0.143   4.320   6.197  0.2631  1.5603  0.2745
  127OSM   H14B13554  -0.175   4.247   6.046 -0.2009  0.3545 -0.2692
  127OSM   H14C13555  -0.137   4.413   6.049 -2.3649 -0.3914  0.4071
  127OSM    C1313556   0.046   4.140   6.135  0.2519 -0.7970  0.8657
  127OSM   H13A13557   0.144   4.097   6.118 -0.3820 -1.9142 -0.0506
  127OSM   H13B13558  -0.019   4.076   6.077  2.3475 -2.4149  0.1770
  127OSM   H13C13559   0.021   4.128   6.240  0.5616  0.0847  1.0452
  127OSM    C1213560   0.117   4.389   6.157 -0.7584  0.0157  0.1066
  127OSM   H12A13561   0.105   4.487   6.112  1.7311  0.4393  0.2019
  127OSM   H12B13562   0.223   4.372   6.143  0.0049  4.1994 -0.6736
  127OSM    C1113563   0.104   4.408   6.306  0.0958 -0.2872 -0.7865
  127OSM   H11A13564   0.182   4.471   6.353 -0.6080 -0.5580  0.8051
  127OSM   H11B13565   0.114   4.315   6.366  0.0137 -0.5602 -1.1820
  127OSM      P13566  -0.126   4.399   6.435  0.1780  0.1269 -0.1755
  127OSM    O1313567  -0.249   4.480   6.441  1.1476 -0.1809 -0.0442
  127OSM    O1413568  -0.142   4.255   6.396  0.0830 -0.0559 -0.0754
  127OSM    O1113569  -0.046   4.402   6.574  0.0089 -0.0090  0.4897
  127OSM    O1213570  -0.028   4.460   6.335 -0.5159 -0.7094  0.5682
  127OSM    C1S13571   0.011   4.524   6.617 -1.0480  0.3774 -0.8646
  127OSM    H1S13572  -0.051   4.613   6.594 -1.5032  1.0187  2.3533
  127OSM    H1T13573   0.109   4.552   6.574 -0.6047 -0.6003 -0.5039
  127OSM     NF13574   0.101   4.627   6.829  0.0566  0.1605 -0.8283
  127OSM    HNF13575   0.185   4.606   6.877 -0.8016  2.0134  1.7282
  127OSM    C2S13576   0.021   4.515   6.779 -0.0676  0.0668  0.5431
  127OSM    H2S13577  -0.078   4.520   6.827  0.3165  1.2321  1.2760
  127OSM    C3S13578   0.092   4.380   6.813  0.3203  0.0466 -0.7699
  127OSM    H3S13579   0.198   4.386   6.778  1.1515 -3.6082  0.6560
  127OSM     O313580   0.056   4.257   6.743 -0.2310  0.0097 -0.4498
  127OSM    HO313581   0.005   4.295   6.672  0.8729  0.4239 -1.0286
  127OSM    C4S13582   0.097   4.354   6.961 -0.1730  0.0580  0.6088
  127OSM    H4S13583   0.143   4.430   7.026 -2.7670  1.1867  1.2684
  127OSM    C5S13584   0.038   4.253   7.023 -0.5987 -0.5435  0.0856
  127OSM    H5S13585  -0.021   4.183   6.961  1.4780 -1.8970 -0.4646
  127OSM    C6S13586   0.032   4.227   7.169 -0.3703 -0.2600 -0.9630
  127OSM    H6S13587   0.112   4.275   7.230 -0.9662 -0.5556  0.0822
  127OSM    H6T13588   0.053   4.118   7.181  1.7946  0.3035  1.0196
  127OSM    C7S13589  -0.100   4.260   7.243  0.0341  0.8327 -0.2551
  127OSM    H7S13590  -0.179   4.186   7.219  0.5273  0.5018 -0.8783
  127OSM    H7T13591  -0.140   4.359   7.210 -3.1551  0.3241  1.6595
  127OSM    C8S13592  -0.091   4.267   7.397 -0.0211  1.0060  0.4338
  127OSM    H8S13593  -0.037   4.362   7.420  0.6206  0.6733  0.3076
  127OSM    H8T13594  -0.032   4.187   7.446 -2.0620 -1.4122 -0.8322
  127OSM    C9S13595  -0.226   4.258   7.463  0.3236 -0.3783 -0.7836
  127OSM    H9S13596  -0.262   4.153   7.450  1.2335 -0.6636 -1.0970
  127OSM    H9T13597  -0.303   4.324   7.419 -0.3756 -1.2645 -0.9240
  127OSM   C10S13598  -0.233   4.303   7.619 -0.5531 -0.7099  0.0608
  127OSM   H10S13599  -0.339   4.319   7.650 -0.3883 -0.5411  0.5587
  127OSM   H10T13600  -0.185   4.402   7.630  0.3664 -1.4250  3.9711
  127OSM   C11S13601  -0.161   4.207   7.714 -0.1858 -0.4794 -0.5675
  127OSM   H11S13602  -0.065   4.177   7.666  0.6980 -2.1031  2.0156
  127OSM   H11T13603  -0.227   4.118   7.723 -1.0222  0.1703 -0.1849
  127OSM   C12S13604  -0.128   4.271   7.852 -0.8357  0.4993 -0.2651
  127OSM   H12S13605  -0.108   4.188   7.923  1.1426  0.7898 -0.4234
  127OSM   H12T13606  -0.221   4.320   7.889 -1.6008 -0.9600 -0.1911
  127OSM   C13S13607  -0.005   4.362   7.837  0.4015 -0.0118 -0.1422
  127OSM   H13S13608  -0.027   4.437   7.758  2.3302  0.2657 -0.4553
  127OSM   H13T13609   0.070   4.296   7.790 -0.3349 -1.5421  0.7654
  127OSM   C14S13610   0.027   4.435   7.967  0.9311  0.1761  0.6512
  127OSM   H14S13611  -0.069   4.433   8.022  0.9298  1.6807  0.7269
  127OSM   H14T13612   0.053   4.542   7.953  1.2995 -0.0706 -0.7087
  127OSM   C15S13613   0.134   4.368   8.052  0.0285  0.8022  0.0282
  127OSM   H15S13614   0.224   4.354   7.989  0.9538 -1.0391  1.6657
  127OSM   H15T13615   0.097   4.265   8.070 -2.1768  1.6023  0.3691
  127OSM   C16S13616   0.161   4.448   8.179 -0.6191  0.3121  0.0850
  127OSM   H16S13617   0.067   4.447   8.237 -0.1575  1.2198  0.8686
  127OSM   H16T13618   0.179   4.556   8.159 -1.3936  0.6231  1.0177
  127OSM   C17S13619   0.273   4.380   8.261 -0.4426  0.3094  0.0967
  127OSM   H17S13620   0.249   4.272   8.256 -2.4633  0.6990  0.4253
  127OSM   H17T13621   0.277   4.407   8.369  1.6837 -1.5630  0.5520
  127OSM   C18S13622   0.418   4.404   8.207  0.1912  0.0221 -1.1732
  127OSM   H18S13623   0.434   4.514   8.206 -2.1744  0.6515  3.2963
  127OSM   H18T13624   0.426   4.348   8.111  0.9744 -3.3125  0.6737
  127OSM   H18U13625   0.489   4.352   8.274 -2.3855 -0.7039  1.2137
  127OSM    C1F13626   0.046   4.750   6.833  0.1045 -0.6595  0.1777
  127OSM     OF13627  -0.044   4.794   6.755 -0.2041  0.1582 -0.1827
  127OSM    C2F13628   0.108   4.840   6.940  0.0189 -0.3005  0.7258
  127OSM    H2F13629   0.075   4.941   6.911 -0.8197 -0.9447 -0.6531
  127OSM    H2G13630   0.218   4.849   6.924  0.0567 -2.3694 -0.5565
  127OSM    C3F13631   0.070   4.812   7.089 -0.2829  0.1509  0.7709
  127OSM    H3F13632  -0.038   4.790   7.097 -0.3014  0.7215  2.4839
  127OSM    H3G13633   0.083   4.907   7.146 -1.5525  1.2680 -0.7264
  127OSM    C4F13634   0.147   4.697   7.156 -0.1901 -0.3308 -0.6836
  127OSM    H4F13635   0.252   4.709   7.121  0.9543  1.4337  2.8785
  127OSM    H4G13636   0.111   4.601   7.114  1.6081 -0.0267 -3.1368
  127OSM    C5F13637   0.150   4.708   7.314  0.9268 -0.0679 -0.0185
  127OSM    H5F13638   0.064   4.646   7.348 -0.0204  1.6531  0.8399
  127OSM    H5G13639   0.134   4.814   7.343  0.4132  0.0819 -0.8256
  127OSM    C6F13640   0.270   4.644   7.384  0.3910  0.5690 -0.1747
  127OSM    H6F13641   0.369   4.686   7.358  1.0862  0.3257  1.8733
  127OSM    H6G13642   0.283   4.537   7.357  0.3602 -0.3286  2.9082
  127OSM    C7F13643   0.252   4.643   7.540  0.3215 -0.4088 -0.6190
  127OSM    H7F13644   0.171   4.569   7.561  0.8914 -0.0760  3.6992
  127OSM    H7G13645   0.222   4.743   7.577 -0.5598 -1.2755  1.1442
  127OSM    C8F13646   0.384   4.602   7.618  0.4011  0.2448 -0.0559
  127OSM    H8F13647   0.452   4.687   7.594 -0.3016  0.5131 -1.1573
  127OSM    H8G13648   0.429   4.512   7.572  2.8236  1.3325  0.0320
  127OSM    C9F13649   0.343   4.583   7.764  0.5716 -0.5131  0.4324
  127OSM    H9F13650   0.270   4.505   7.791 -0.5518  0.4634  0.3311
  127OSM   C10F13651   0.389   4.649   7.871  0.2332  0.0467  0.4101
  127OSM   H10F13652   0.351   4.640   7.974 -0.8363 -1.3929 -0.0730
  127OSM   C11F13653   0.500   4.756   7.853  0.6688  0.3913 -0.1611
  127OSM   H11F13654   0.458   4.856   7.876 -3.3359 -1.6692  2.8179
  127OSM   H11G13655   0.538   4.764   7.749  0.0625  1.1740 -0.3316
  127OSM   C12F13656   0.625   4.728   7.945 -0.5426 -0.1675 -0.0455
  127OSM   H12F13657   0.708   4.775   7.888 -0.3781 -0.2502  0.1289
  127OSM   H12G13658   0.650   4.622   7.969 -0.2636 -0.0426  0.2063
  127OSM   C13F13659   0.618   4.806   8.074 -0.6498  0.3470 -0.0151
  127OSM   H13F13660   0.525   4.790   8.132 -0.8158 -1.7854 -0.7919
  127OSM   H13G13661   0.620   4.916   8.061  0.7212  0.2174 -1.1847
  127OSM   C14F13662   0.732   4.773   8.174  0.4609 -0.0977  0.8061
  127OSM   H14F13663   0.715   4.671   8.214  0.3668  0.2526  1.6767
  127OSM   H14G13664   0.710   4.843   8.258 -0.1015 -0.1638  0.7160
  127OSM   C15F13665   0.875   4.774   8.118 -0.1461  0.5540  0.0653
  127OSM   H15F13666   0.902   4.881   8.106 -0.6865  0.8091  1.0532
  127OSM   H15G13667   0.865   4.725   8.018  1.2633 -1.6820  0.9533
  127OSM   C16F13668   0.981   4.698   8.189  0.6605  0.5510 -0.5048
  127OSM   H16F13669   0.975   4.595   8.148  2.7564 -0.0485  0.5177
  127OSM   H16G13670   0.948   4.702   8.295  0.5936 -4.4526 -0.1063
  127OSM   C17F13671   1.124   4.746   8.179 -0.0671 -0.0306  0.2051
  127OSM   H17F13672   1.156   4.753   8.073 -0.2713  0.5566  0.1796
  127OSM   H17G13673   1.188   4.670   8.229  0.1290  1.3093  2.0916
  127OSM   C18F13674   1.160   4.894   8.221  0.3792 -1.2583  0.3253
  127OSM   H18F13675   1.251   4.937   8.174 -0.9931  2.2936  0.5651
  127OSM   H18G13676   1.163   4.922   8.329  1.9868  1.4445 -0.3315
  127OSM   H18H13677   1.081   4.958   8.176  1.5153 -0.5571 -0.7233
  128OSM      N13678   3.906   0.557   5.922  0.0928  0.0203  0.4497
  128OSM    C1513679   4.002   0.459   5.880  0.2929 -0.7212  0.7966
  128OSM   H15A13680   3.948   0.380   5.830 -1.4714  0.6482  0.4305
  128OSM   H15B13681   4.053   0.415   5.964 -1.5792 -0.5498  2.0636
  128OSM   H15C13682   4.074   0.497   5.809  1.1041 -0.6118  1.6706
  128OSM    C1413683   3.862   0.626   5.794  0.2801  0.1966 -0.2552
  128OSM   H14A13684   3.952   0.659   5.745  0.2242 -0.4565 -0.8272
  128OSM   H14B13685   3.811   0.718   5.818 -0.1920 -0.5847  1.9951
  128OSM   H14C13686   3.798   0.573   5.724 -1.2680  2.6849 -0.8287
  128OSM    C1313687   3.792   0.491   5.987  0.1662  0.0339  0.1850
  128OSM   H13A13688   3.721   0.568   6.011  0.2921 -0.4678  2.3026
  128OSM   H13B13689   3.815   0.435   6.077  0.5218  2.2978  1.5610
  128OSM   H13C13690   3.752   0.411   5.926  0.3026 -0.5921  0.8966
  128OSM    C1213691   3.975   0.665   6.007 -0.2202  0.3393  0.2602
  128OSM   H12A13692   3.905   0.746   6.017 -1.3539 -0.3019 -1.7878
  128OSM   H12B13693   4.065   0.700   5.960  1.1583 -1.1193  1.7005
  128OSM    C1113694   4.018   0.634   6.156  0.7085 -0.4823 -0.3212
  128OSM   H11A13695   3.935   0.593   6.217  3.4220 -1.1859  3.2252
  128OSM   H11B13696   4.037   0.732   6.206  1.3046 -0.3081 -0.8897
  128OSM      P13697   4.266   0.571   6.134  0.0653  0.5211 -0.3176
  128OSM    O1313698   4.352   0.452   6.162 -0.5188 -0.2072 -0.2315
  128OSM    O1413699   4.281   0.629   6.003  0.0550  0.2387 -0.8203
  128OSM    O1113700   4.285   0.683   6.244 -0.1987 -0.1859 -0.0239
  128OSM    O1213701   4.117   0.541   6.166  0.5614  0.0408  0.0625
  128OSM    C1S13702   4.272   0.658   6.386 -0.2061 -0.3909  0.1785
  128OSM    H1S13703   4.331   0.572   6.423  0.0932 -0.1287  0.3115
  128OSM    H1T13704   4.165   0.633   6.404 -0.6919  0.3923 -1.3962
  128OSM     NF13705   4.311   0.743   6.612  0.2826  0.4336  0.0774
  128OSM    HNF13706   4.228   0.749   6.667  0.2005  2.4353 -0.1790
  128OSM    C2S13707   4.298   0.783   6.468 -0.0768  0.5130  0.2838
  128OSM    H2S13708   4.395   0.832   6.447 -0.2719  0.1105 -1.7044
  128OSM    C3S13709   4.192   0.887   6.444 -0.3589 -0.3573 -0.8356
  128OSM    H3S13710   4.092   0.850   6.472 -1.2594  0.9909 -2.0995
  128OSM     O313711   4.180   0.918   6.308 -0.1669 -0.0558  0.6961
  128OSM    HO313712   4.212   0.839   6.263 -1.2085 -2.0413  3.1677
  128OSM    C4S13713   4.210   1.012   6.527 -0.1870  0.2089  0.7393
  128OSM    H4S13714   4.194   0.995   6.635 -1.8554  1.4330  0.7406
  128OSM    C5S13715   4.239   1.139   6.495  0.4593  0.1549 -0.6850
  128OSM    H5S13716   4.256   1.175   6.393  2.1951 -0.5999 -0.6983
  128OSM    C6S13717   4.263   1.251   6.594  0.1628 -0.2111 -0.2932
  128OSM    H6S13718   4.213   1.346   6.567 -0.4600  0.0124  1.4748
  128OSM    H6T13719   4.373   1.271   6.597  0.3531 -0.8990 -1.8713
  128OSM    C7S13720   4.225   1.227   6.741  0.0418 -0.5831 -0.1320
  128OSM    H7S13721   4.277   1.136   6.778 -1.3103 -2.0993 -1.7522
  128OSM    H7T13722   4.114   1.221   6.743 -0.1184  1.7621  0.1132
  128OSM    C8S13723   4.252   1.357   6.822  0.8230  1.5814 -0.0703
  128OSM    H8S13724   4.195   1.444   6.784  0.8114  0.7640 -2.0442
  128OSM    H8T13725   4.355   1.391   6.801  0.3902  2.1446 -1.4241
  128OSM    C9S13726   4.226   1.337   6.977  0.6900  0.6924 -0.0812
  128OSM    H9S13727   4.288   1.253   7.013  2.3579  1.1386 -1.7470
  128OSM    H9T13728   4.117   1.329   7.000  0.2982  1.4199 -1.5131
  128OSM   C10S13729   4.290   1.455   7.052 -0.0155 -1.4709 -0.4571
  128OSM   H10S13730   4.239   1.547   7.016  0.8277 -1.0789 -0.6707
  128OSM   H10T13731   4.390   1.452   7.005  0.1602  1.1288 -0.3785
  128OSM   C11S13732   4.284   1.432   7.202 -0.5757  0.1368 -0.6352
  128OSM   H11S13733   4.330   1.333   7.223  1.1578  1.3411  1.6444
  128OSM   H11T13734   4.181   1.421   7.243  0.4282 -0.3790  1.9023
  128OSM   C12S13735   4.351   1.560   7.264 -0.4562  0.6947  0.8105
  128OSM   H12S13736   4.292   1.654   7.271  1.1309  1.6353  2.0207
  128OSM   H12T13737   4.438   1.586   7.200 -0.1404  1.2264  1.4441
  128OSM   C13S13738   4.418   1.529   7.402 -0.7399  0.0857 -0.1686
  128OSM   H13S13739   4.471   1.621   7.434 -0.9819 -0.2862  1.3764
  128OSM   H13T13740   4.492   1.446   7.395 -0.1034  0.5814  0.5388
  128OSM   C14S13741   4.313   1.502   7.514 -1.2067  0.5178 -0.9497
  128OSM   H14S13742   4.259   1.407   7.495 -1.3401  0.8574 -2.4296
  128OSM   H14T13743   4.233   1.580   7.512 -0.2163  1.7689  1.9245
  128OSM   C15S13744   4.370   1.508   7.660  0.3601 -0.3815 -0.3135
  128OSM   H15S13745   4.418   1.411   7.683 -1.6885 -0.9150  2.1576
  128OSM   H15T13746   4.288   1.499   7.734  1.2622 -1.9144  0.5430
  128OSM   C16S13747   4.457   1.637   7.687  0.2777 -0.0038  0.1445
  128OSM   H16S13748   4.401   1.720   7.639 -1.1874 -0.4660  0.9972
  128OSM   H16T13749   4.552   1.631   7.630 -0.5159 -0.2042 -1.1977
  128OSM   C17S13750   4.467   1.667   7.838 -0.1563 -0.4966  0.2899
  128OSM   H17S13751   4.370   1.716   7.863  0.1262 -0.0143  0.4608
  128OSM   H17T13752   4.546   1.743   7.858 -0.5612  0.0879 -0.2948
  128OSM   C18S13753   4.491   1.552   7.942 -0.3949 -0.9287  0.2208
  128OSM   H18S13754   4.596   1.520   7.928  0.6353  2.1388  0.1142
  128OSM   H18T13755   4.417   1.472   7.920 -1.8179  0.2624  0.4848
  128OSM   H18U13756   4.469   1.588   8.045 -0.3821 -0.3615  0.0339
  128OSM    C1F13757   4.418   0.675   6.659  0.7119  0.2082  0.2887
  128OSM     OF13758   4.520   0.660   6.590  0.2961  0.1561 -0.3952
  128OSM    C2F13759   4.394   0.597   6.780 -0.9318 -0.5381  0.0092
  128OSM    H2F13760   4.299   0.539   6.770 -1.2308 -0.3532  1.6026
  128OSM    H2G13761   4.385   0.662   6.869 -2.0797  1.0705 -1.2170
  128OSM    C3F13762   4.506   0.492   6.805 -0.6667  0.0205  0.4820
  128OSM    H3F13763   4.597   0.555   6.814 -0.8641  0.4280 -0.2510
  128OSM    H3G13764   4.521   0.423   6.720  0.3115  1.2367 -0.3690
  128OSM    C4F13765   4.491   0.402   6.930 -0.0480  0.0214  0.4865
  128OSM    H4F13766   4.581   0.337   6.934  1.5046  2.0634  0.3990
  128OSM    H4G13767   4.397   0.344   6.922  0.5987 -1.0211  0.2038
  128OSM    C5F13768   4.477   0.473   7.064 -0.3868 -0.0525  0.4996
  128OSM    H5F13769   4.390   0.542   7.072 -1.1942 -0.7852 -1.4074
  128OSM    H5G13770   4.571   0.526   7.090  0.1388  0.2772 -1.8587
  128OSM    C6F13771   4.449   0.368   7.178  0.2505 -0.4686  0.7321
  128OSM    H6F13772   4.501   0.272   7.160  1.5020  0.3474 -0.1067
  128OSM    H6G13773   4.339   0.356   7.164  0.0063  1.2077  1.0642
  128OSM    C7F13774   4.468   0.438   7.313 -0.5109  0.2034 -0.3538
  128OSM    H7F13775   4.422   0.539   7.306  2.0260  1.6117  1.4662
  128OSM    H7G13776   4.575   0.454   7.337 -0.1540 -0.8848 -1.1571
  128OSM    C8F13777   4.391   0.378   7.437  0.1383  0.0813 -0.5046
  128OSM    H8F13778   4.286   0.359   7.408 -0.3572 -1.8294  2.2394
  128OSM    H8G13779   4.391   0.455   7.516  0.7960  1.8011 -2.0858
  128OSM    C9F13780   4.465   0.255   7.488  0.0234  0.3505  0.8353
  128OSM    H9F13781   4.477   0.170   7.419 -2.1724 -0.1109  0.9283
  128OSM   C10F13782   4.529   0.242   7.609 -0.2878  0.5883  0.4961
  128OSM   H10F13783   4.579   0.146   7.626 -1.0349 -0.0159 -0.5650
  128OSM   C11F13784   4.537   0.344   7.723  0.3661 -0.4647  0.4277
  128OSM   H11F13785   4.479   0.437   7.703 -0.9158 -1.3941 -0.3034
  128OSM   H11G13786   4.643   0.376   7.735 -0.5583  2.1895  2.6480
  128OSM   C12F13787   4.491   0.280   7.857 -0.2555 -0.7238 -0.0975
  128OSM   H12F13788   4.535   0.178   7.855 -1.3946 -1.2196 -0.9469
  128OSM   H12G13789   4.382   0.257   7.855 -0.1963 -0.9806 -0.3793
  128OSM   C13F13790   4.537   0.364   7.977 -0.3095 -0.2068 -0.8162
  128OSM   H13F13791   4.500   0.469   7.979 -0.0566 -0.1029  1.4450
  128OSM   H13G13792   4.648   0.376   7.974 -0.2980 -0.2755 -0.6751
  128OSM   C14F13793   4.505   0.302   8.117 -0.1204 -0.0712 -0.4446
  128OSM   H14F13794   4.551   0.365   8.196 -0.6746 -0.1361 -0.0695
  128OSM   H14G13795   4.552   0.201   8.111 -0.5296 -0.3062  0.2877
  128OSM   C15F13796   4.361   0.291   8.156  0.6057 -0.0669 -0.0994
  128OSM   H15F13797   4.318   0.220   8.082  0.1023  0.3183 -0.1857
  128OSM   H15G13798   4.317   0.393   8.145  0.5043 -0.0524  0.4186
  128OSM   C16F13799   4.331   0.243   8.301  0.1259 -0.6451 -0.3662
  128OSM   H16F13800   4.415   0.177   8.330  2.1536  1.9472  0.0866
  128OSM   H16G13801   4.237   0.184   8.304  0.6798 -1.5651 -0.8403
  128OSM   C17F13802   4.324   0.348   8.417 -0.1251  0.4136 -0.0379
  128OSM   H17F13803   4.243   0.414   8.380 -0.4576 -1.4921 -3.0493
  128OSM   H17G13804   4.414   0.412   8.430  0.9646 -1.2201  0.8508
  128OSM   C18F13805   4.307   0.288   8.551  0.7441  0.2003 -0.9339
  128OSM   H18F13806   4.203   0.257   8.575  0.7651  0.3474 -0.6520
  128OSM   H18G13807   4.328   0.370   8.622 -0.7128 -0.8041  0.7493
  128OSM   H18H13808   4.376   0.204   8.575  0.4696 -0.1831 -1.4533
  129OSM      N13809   6.449   3.502   6.120 -0.8612 -0.3658 -0.6273
  129OSM    C1513810   6.503   3.567   6.002 -0.0533 -0.7095  0.6464
  129OSM   H15A13811   6.532   3.499   5.924 -1.4865 -1.8204  1.0358
  129OSM   H15B13812   6.588   3.631   6.024  0.2320  0.3784 -2.9521
  129OSM   H15C13813   6.433   3.628   5.946  2.4949 -0.5098 -2.6264
  129OSM    C1413814   6.334   3.414   6.086  0.2026  0.0845  0.2076
  129OSM   H14A13815   6.296   3.363   6.173 -0.7000 -0.8716 -0.7178
  129OSM   H14B13816   6.360   3.340   6.012 -0.3594 -0.1865  0.2730
  129OSM   H14C13817   6.247   3.470   6.053  0.8411  0.9816  0.0151
  129OSM    C1313818   6.557   3.408   6.181  0.8982  0.5040 -0.0275
  129OSM   H13A13819   6.645   3.469   6.194 -0.3169  2.0054  1.5330
  129OSM   H13B13820   6.568   3.326   6.112 -3.0024  1.3337 -1.9626
  129OSM   H13C13821   6.528   3.361   6.274 -1.8827 -0.2885 -1.1960
  129OSM    C1213822   6.412   3.607   6.221 -0.5142  0.4913 -0.3886
  129OSM   H12A13823   6.387   3.551   6.309 -4.2618  0.8252 -1.0954
  129OSM   H12B13824   6.319   3.651   6.188 -0.0309  0.5587 -1.7399
  129OSM    C1113825   6.514   3.717   6.264 -0.2380  0.1757 -0.0052
  129OSM   H11A13826   6.448   3.776   6.332 -1.9715 -0.3658 -1.1480
  129OSM   H11B13827   6.530   3.788   6.180 -0.1566  2.6383  1.9496
  129OSM      P13828   6.769   3.697   6.264  0.0863 -0.5936 -0.6205
  129OSM    O1313829   6.882   3.623   6.326  0.1244 -0.0781  0.3455
  129OSM    O1413830   6.765   3.698   6.115 -0.3539  0.0548 -0.6104
  129OSM    O1113831   6.796   3.842   6.308 -0.2167 -0.0145  0.4088
  129OSM    O1213832   6.631   3.660   6.331 -0.3386  0.1354 -0.0866
  129OSM    C1S13833   6.726   3.923   6.394 -0.2488 -0.8745  0.2745
  129OSM    H1S13834   6.622   3.884   6.393  0.6650 -3.9997 -3.9927
  129OSM    H1T13835   6.733   4.030   6.366 -1.4758 -0.4668  1.4629
  129OSM     NF13836   6.708   4.024   6.606  0.3024 -0.1232 -0.4189
  129OSM    HNF13837   6.741   4.113   6.636 -1.4860 -0.1994  2.0772
  129OSM    C2S13838   6.786   3.930   6.529  0.6694  0.4601 -0.1714
  129OSM    H2S13839   6.787   3.828   6.573  0.2021  0.4685 -0.1383
  129OSM    C3S13840   6.933   3.976   6.522  0.3495  0.0279  0.8204
  129OSM    H3S13841   6.935   4.087   6.519  0.1381  0.1253  3.0723
  129OSM     O313842   7.010   3.933   6.408 -0.5724 -0.5084 -0.4113
  129OSM    HO313843   6.937   3.906   6.352 -1.5089  0.0621  0.4832
  129OSM    C4S13844   7.002   3.954   6.649 -0.1017  0.8625 -1.4598
  129OSM    H4S13845   6.977   4.039   6.715 -2.0218 -0.6085 -0.1508
  129OSM    C5S13846   7.083   3.853   6.693 -0.0461 -0.1544  0.4580
  129OSM    H5S13847   7.113   3.776   6.619 -0.2224 -1.0529  1.3025
  129OSM    C6S13848   7.161   3.849   6.821 -0.6359  0.1169 -0.0056
  129OSM    H6S13849   7.270   3.861   6.807 -0.3922 -0.3901  1.3925
  129OSM    H6T13850   7.147   3.760   6.885  0.2893  0.4002  0.6123
  129OSM    C7S13851   7.149   3.979   6.907 -0.2973  1.0453  0.6659
  129OSM    H7S13852   7.040   4.001   6.906 -0.3922  0.7930 -2.4655
  129OSM    H7T13853   7.198   4.061   6.852 -0.0094 -0.7504 -1.9573
  129OSM    C8S13854   7.204   3.963   7.045  0.0741  0.5653 -0.0606
  129OSM    H8S13855   7.314   3.952   7.036  0.6066  4.0253  0.6767
  129OSM    H8T13856   7.166   3.868   7.088  1.5656  0.7358  1.7777
  129OSM    C9S13857   7.153   4.078   7.131 -0.0424 -0.0774 -0.3618
  129OSM    H9S13858   7.042   4.070   7.132 -0.1776  1.4490  1.3579
  129OSM    H9T13859   7.177   4.170   7.073 -1.9262  0.4876 -0.3231
  129OSM   C10S13860   7.213   4.073   7.276  0.5441 -0.7521  0.3251
  129OSM   H10S13861   7.317   4.108   7.263  0.6889 -1.8588 -1.9934
  129OSM   H10T13862   7.220   3.965   7.301  1.8871 -0.6186  0.5975
  129OSM   C11S13863   7.138   4.159   7.375  0.3810 -0.1650  0.5030
  129OSM   H11S13864   7.029   4.169   7.356  0.7485  1.4210 -1.0238
  129OSM   H11T13865   7.176   4.264   7.380 -0.8418  0.3376 -0.3116
  129OSM   C12S13866   7.165   4.098   7.517 -0.6116  0.2888  0.2161
  129OSM   H12S13867   7.274   4.077   7.524 -1.0123 -1.8430  0.6731
  129OSM   H12T13868   7.132   3.994   7.535  1.4461 -0.2263  1.2819
  129OSM   C13S13869   7.118   4.199   7.622  0.1490  0.2541 -0.2489
  129OSM   H13S13870   7.008   4.207   7.613 -0.2275  3.2037  4.0594
  129OSM   H13T13871   7.167   4.296   7.596 -0.4545  0.0422 -2.4285
  129OSM   C14S13872   7.156   4.160   7.770  0.2507  0.0377  0.4133
  129OSM   H14S13873   7.143   4.246   7.839 -0.3082  0.7015 -0.4801
  129OSM   H14T13874   7.261   4.123   7.779  0.0525 -0.4080  0.9332
  129OSM   C15S13875   7.059   4.048   7.827 -0.3844  0.3423 -1.2501
  129OSM   H15S13876   7.085   3.951   7.780  1.9616  0.3289 -0.0402
  129OSM   H15T13877   6.953   4.057   7.793 -1.2178 -0.2076  1.0101
  129OSM   C16S13878   7.062   4.023   7.979 -0.0522  0.2084  0.7036
  129OSM   H16S13879   7.069   4.120   8.034  1.6866  1.2740 -1.2670
  129OSM   H16T13880   7.150   3.957   7.996 -0.2501  0.6184  4.1389
  129OSM   C17S13881   6.937   3.950   8.028 -0.1645  0.1675 -0.2777
  129OSM   H17S13882   6.939   3.843   7.997 -3.2972 -0.9815  2.7454
  129OSM   H17T13883   6.854   3.991   7.967 -1.0469 -1.6153 -0.3418
  129OSM   C18S13884   6.905   3.958   8.178  0.4040  0.1987  0.0197
  129OSM   H18S13885   6.819   3.891   8.201  0.6068 -0.4819 -1.1093
  129OSM   H18T13886   6.870   4.061   8.202  1.0539  0.3398  0.3715
  129OSM   H18U13887   6.992   3.915   8.231  0.2258  0.5813  0.6281
  129OSM    C1F13888   6.585   4.001   6.654 -1.2765  0.1416 -1.1817
  129OSM     OF13889   6.539   3.888   6.632 -0.2675  0.2400 -0.6015
  129OSM    C2F13890   6.523   4.113   6.724 -0.9176 -0.8219  0.1773
  129OSM    H2F13891   6.473   4.178   6.650  1.3568  4.8018  2.9895
  129OSM    H2G13892   6.600   4.185   6.760  1.4825 -2.2660 -1.7158
  129OSM    C3F13893   6.418   4.073   6.820  0.5760 -0.4198  0.2243
  129OSM    H3F13894   6.465   4.019   6.905  2.3741 -1.2216 -1.2265
  129OSM    H3G13895   6.347   3.998   6.780  0.7744  0.3121 -1.5596
  129OSM    C4F13896   6.328   4.186   6.888  0.2238 -0.1774 -0.3277
  129OSM    H4F13897   6.269   4.144   6.971  2.6695  2.8222  3.2723
  129OSM    H4G13898   6.264   4.214   6.801 -2.1618 -2.6764  0.4989
  129OSM    C5F13899   6.413   4.302   6.938 -0.1299  0.1937 -0.6540
  129OSM    H5F13900   6.493   4.334   6.868 -0.1263  1.9664  0.1129
  129OSM    H5G13901   6.455   4.267   7.035 -0.9101 -1.2480 -0.7948
  129OSM    C6F13902   6.331   4.423   6.986  0.2321 -0.0770 -0.7296
  129OSM    H6F13903   6.256   4.379   7.054  0.2838 -2.6042 -2.1754
  129OSM    H6G13904   6.270   4.466   6.904 -1.7044 -0.3657  0.4991
  129OSM    C7F13905   6.415   4.527   7.063 -0.0246  0.3719  0.0139
  129OSM    H7F13906   6.510   4.540   7.007 -0.0928 -3.8496 -1.4188
  129OSM    H7G13907   6.444   4.482   7.159 -1.2994 -2.2548 -0.7447
  129OSM    C8F13908   6.349   4.670   7.101  0.0187 -0.2708 -0.2596
  129OSM    H8F13909   6.262   4.652   7.168  1.4246 -0.4837  1.6047
  129OSM    H8G13910   6.306   4.698   7.003 -1.4822  1.3553  0.7940
  129OSM    C9F13911   6.453   4.759   7.161 -0.4788 -0.0808 -0.3407
  129OSM    H9F13912   6.506   4.832   7.097  1.0028  1.0831  2.0642
  129OSM   C10F13913   6.494   4.756   7.288 -0.4719  0.3627  0.6814
  129OSM   H10F13914   6.570   4.826   7.326  1.1706 -1.1035  0.2672
  129OSM   C11F13915   6.445   4.668   7.397 -0.2761 -0.1796 -0.3232
  129OSM   H11F13916   6.534   4.643   7.459 -0.1916 -2.1168 -1.1560
  129OSM   H11G13917   6.412   4.569   7.358 -0.4351 -0.4726  0.5173
  129OSM   C12F13918   6.328   4.723   7.481  0.6429 -0.2344  0.2509
  129OSM   H12F13919   6.238   4.688   7.427  0.3658  0.1696  0.4493
  129OSM   H12G13920   6.324   4.834   7.494  1.7562 -0.0570 -0.7393
  129OSM   C13F13921   6.317   4.669   7.632  0.4088 -0.7096  0.1098
  129OSM   H13F13922   6.329   4.559   7.633 -1.4975 -0.9542 -0.8848
  129OSM   H13G13923   6.212   4.696   7.657 -0.0048 -0.7482 -1.4792
  129OSM   C14F13924   6.409   4.725   7.739  0.2972 -0.4414  0.1344
  129OSM   H14F13925   6.393   4.835   7.731  0.4781 -0.5305 -2.1881
  129OSM   H14G13926   6.515   4.704   7.713 -0.3135  0.2625 -3.4293
  129OSM   C15F13927   6.363   4.671   7.880  0.4143  0.0473 -0.2967
  129OSM   H15F13928   6.351   4.562   7.864 -0.9465  0.0557  0.5505
  129OSM   H15G13929   6.261   4.714   7.886  0.3400 -0.3379  1.6525
  129OSM   C16F13930   6.449   4.712   8.002  1.0849  0.3632  0.7009
  129OSM   H16F13931   6.466   4.822   7.998  2.2474  0.1678 -0.2733
  129OSM   H16G13932   6.548   4.666   7.980 -0.1034 -1.6529 -0.8542
  129OSM   C17F13933   6.394   4.667   8.141  0.0089 -0.4217 -0.0264
  129OSM   H17F13934   6.289   4.705   8.146  1.2279  3.5841 -1.6179
  129OSM   H17G13935   6.466   4.721   8.205  2.7978 -0.8290 -2.6188
  129OSM   C18F13936   6.411   4.521   8.169 -0.2216  0.1951 -0.2994
  129OSM   H18F13937   6.372   4.460   8.085  0.4754 -0.6929  0.0102
  129OSM   H18G13938   6.347   4.497   8.256  0.5860  0.1562  0.2948
  129OSM   H18H13939   6.516   4.494   8.193  0.5688  0.8155 -2.7170
  130OSM      N13940   3.056   5.832   5.930  0.3094  1.3728  0.4564
  130OSM    C1513941   3.049   5.707   6.014  0.0157 -0.1891 -0.6628
  130OSM   H15A13942   2.948   5.668   6.014 -0.3678  0.7573 -1.8584
  130OSM   H15B13943   3.085   5.732   6.113 -0.0686  0.8336 -0.8784
  130OSM   H15C13944   3.115   5.634   5.969  1.5768  0.0386  1.1319
  130OSM    C1413945   3.038   5.786   5.780  0.0501  0.1054 -0.7004
  130OSM   H14A13946   3.116   5.718   5.750 -2.5512 -3.3199 -0.2339
  130OSM   H14B13947   3.051   5.868   5.710  0.5530 -0.7647 -1.6540
  130OSM   H14C13948   2.941   5.741   5.762 -0.7063  0.0012  2.9814
  130OSM    C1313949   2.942   5.914   5.980 -1.1451  0.4806  0.3190
  130OSM   H13A13950   2.847   5.880   5.941  0.0306 -0.4243 -1.9580
  130OSM   H13B13951   2.956   6.015   5.945  1.5385  0.1682  0.2560
  130OSM   H13C13952   2.945   5.919   6.088  4.3591  0.5166  0.4408
  130OSM    C1213953   3.200   5.897   5.946 -0.1204 -0.2815 -0.7217
  130OSM   H12A13954   3.184   5.998   5.909  0.1512  0.2591  0.5940
  130OSM   H12B13955   3.270   5.834   5.893 -1.2810 -1.4260 -0.9475
  130OSM    C1113956   3.250   5.925   6.092 -0.0472  0.6325 -0.4249
  130OSM   H11A13957   3.181   5.996   6.141  0.0933  0.8303 -0.5115
  130OSM   H11B13958   3.347   5.980   6.088 -0.4191  1.2120 -2.3878
  130OSM      P13959   3.384   5.715   6.171  0.1535  0.4395  0.3001
  130OSM    O1313960   3.341   5.585   6.209  0.2911  0.4592 -0.0339
  130OSM    O1413961   3.444   5.733   6.036  0.1424  0.6903 -0.3600
  130OSM    O1113962   3.477   5.772   6.288 -0.6108  0.4678 -0.2546
  130OSM    O1213963   3.251   5.807   6.174 -0.2489 -0.2097 -0.4526
  130OSM    C1S13964   3.430   5.867   6.380 -0.1645  0.0562 -0.3065
  130OSM    H1S13965   3.342   5.825   6.432  0.2889 -2.5272 -1.4635
  130OSM    H1T13966   3.392   5.957   6.327 -2.6610 -0.7670 -0.0420
  130OSM     NF13967   3.496   5.977   6.590 -0.2821  0.7635  0.1076
  130OSM    HNF13968   3.497   6.074   6.612 -0.6666  0.5934  0.9292
  130OSM    C2S13969   3.550   5.907   6.473 -0.0002 -0.2712  0.8677
  130OSM    H2S13970   3.593   5.811   6.509  0.6161 -1.4038 -2.4671
  130OSM    C3S13971   3.653   5.989   6.384  0.0207  0.1600 -0.1814
  130OSM    H3S13972   3.603   6.074   6.333  0.1093 -0.7321 -1.8237
  130OSM     O313973   3.703   5.913   6.276  0.0566 -0.3143 -0.3521
  130OSM    HO313974   3.631   5.851   6.273 -1.0732  0.9747 -0.9036
  130OSM    C4S13975   3.761   6.023   6.479 -0.1400 -0.1721  0.3452
  130OSM    H4S13976   3.806   5.937   6.532 -2.7717 -1.8384  0.0433
  130OSM    C5S13977   3.815   6.147   6.497 -0.1174 -0.2861 -0.4382
  130OSM    H5S13978   3.783   6.239   6.447  0.8931 -1.1748 -2.9036
  130OSM    C6S13979   3.934   6.163   6.586 -0.0776  0.3559 -0.1292
  130OSM    H6S13980   3.993   6.250   6.550  2.2632 -0.8880  0.5118
  130OSM    H6T13981   3.996   6.071   6.577  0.0160  0.5458 -1.7228
  130OSM    C7S13982   3.896   6.184   6.732 -0.1173  0.2187  0.3203
  130OSM    H7S13983   3.807   6.251   6.741  1.0004  2.4740 -3.2519
  130OSM    H7T13984   3.985   6.238   6.771  0.3398 -0.7633  0.6584
  130OSM    C8S13985   3.881   6.053   6.810  0.5690  0.3307 -0.9189
  130OSM    H8S13986   3.952   5.977   6.770  0.1460  1.6443 -4.5501
  130OSM    H8T13987   3.775   6.031   6.785 -0.1764  2.2699  0.3158
  130OSM    C9S13988   3.886   6.055   6.965  0.0155  0.4180 -0.6854
  130OSM    H9S13989   3.973   6.118   6.994  0.9837 -0.4314 -1.6712
  130OSM    H9T13990   3.914   5.950   6.987 -3.1860  0.0945  2.8759
  130OSM   C10S13991   3.753   6.084   7.038 -0.4167 -0.5122  0.1582
  130OSM   H10S13992   3.676   6.008   7.016  0.7133 -1.4808 -0.6110
  130OSM   H10T13993   3.708   6.174   6.990  0.4692 -1.1326 -1.9585
  130OSM   C11S13994   3.783   6.087   7.192  0.1584 -0.1825  0.2338
  130OSM   H11S13995   3.700   6.148   7.234  0.6538  0.2510  0.5964
  130OSM   H11T13996   3.872   6.150   7.216  0.3439  0.1670 -1.2366
  130OSM   C12S13997   3.783   5.949   7.254  0.2507 -0.7805 -0.2623
  130OSM   H12S13998   3.878   5.897   7.229  0.3338 -0.0000 -1.6639
  130OSM   H12T13999   3.690   5.894   7.228 -0.7980  0.3304  0.9563
  130OSM   C13S14000   3.765   5.944   7.410  0.8661 -0.9982 -0.5557
  130OSM   H13S14001   3.665   5.990   7.427  1.2583 -0.6245  0.8405
  130OSM   H13T14002   3.854   6.001   7.442  0.9287  0.3780 -3.0073
  130OSM   C14S14003   3.763   5.801   7.471  0.6349 -0.1123  0.4470
  130OSM   H14S14004   3.859   5.750   7.448  2.8634  2.3115  3.4509
  130OSM   H14T14005   3.687   5.738   7.420 -1.5136  2.1565  0.7166
  130OSM   C15S14006   3.744   5.803   7.619 -0.2508 -0.1285  0.1403
  130OSM   H15S14007   3.820   5.876   7.655  0.4486 -0.8522  0.1666
  130OSM   H15T14008   3.787   5.708   7.657  0.3872 -0.9962 -2.5635
  130OSM   C16S14009   3.607   5.829   7.678  0.2174 -0.8698 -0.2211
  130OSM   H16S14010   3.541   5.745   7.648  0.3496 -2.0032  2.3772
  130OSM   H16T14011   3.568   5.927   7.644  0.4869 -0.0155  1.7866
  130OSM   C17S14012   3.591   5.835   7.835 -0.4560 -0.1266  0.6335
  130OSM   H17S14013   3.495   5.887   7.857 -0.9451 -0.3927 -0.7956
  130OSM   H17T14014   3.674   5.895   7.878 -0.0638  0.3721 -0.7596
  130OSM   C18S14015   3.600   5.695   7.894  0.0145 -0.1028  0.5842
  130OSM   H18S14016   3.605   5.693   8.005  3.7213 -0.6206  0.5154
  130OSM   H18T14017   3.689   5.649   7.846  0.8707  2.8433 -0.8929
  130OSM   H18U14018   3.509   5.638   7.864  0.6617  0.3083 -2.5068
  130OSM    C1F14019   3.430   5.910   6.681 -0.4318  0.6498  0.0510
  130OSM     OF14020   3.399   5.788   6.669 -0.1615  0.3649 -0.3161
  130OSM    C2F14021   3.379   5.997   6.791 -0.2399  0.2556  0.2340
  130OSM    H2F14022   3.272   6.013   6.769 -0.4902 -1.7883 -0.1715
  130OSM    H2G14023   3.434   6.094   6.788 -2.8550  1.8135 -1.4202
  130OSM    C3F14024   3.386   5.929   6.932  0.5512 -0.4539  0.2842
  130OSM    H3F14025   3.484   5.882   6.956  0.2639 -0.5181  1.3997
  130OSM    H3G14026   3.317   5.841   6.931 -0.6622  0.4498  1.6595
  130OSM    C4F14027   3.352   6.026   7.047 -0.1912  0.2968 -0.5119
  130OSM    H4F14028   3.257   6.080   7.027  0.3359  1.3542 -0.2666
  130OSM    H4G14029   3.433   6.102   7.053 -0.3662  0.4210  0.3363
  130OSM    C5F14030   3.335   5.950   7.186  0.3182 -0.6737  0.1562
  130OSM    H5F14031   3.428   5.892   7.204  2.0684  1.8068 -0.2230
  130OSM    H5G14032   3.264   5.868   7.166 -0.4604  0.3597 -1.5926
  130OSM    C6F14033   3.291   6.036   7.311 -0.1311 -0.5682  0.0722
  130OSM    H6F14034   3.357   6.124   7.325 -0.8405 -0.1197  0.6828
  130OSM    H6G14035   3.281   5.964   7.395 -4.1683 -1.1639 -0.7082
  130OSM    C7F14036   3.140   6.087   7.301  0.2722  0.6936  0.5753
  130OSM    H7F14037   3.070   6.003   7.280  0.8875 -0.0789  1.5014
  130OSM    H7G14038   3.130   6.153   7.213 -1.6472 -1.1959 -0.7105
  130OSM    C8F14039   3.100   6.176   7.421 -0.3485  0.2643 -0.5490
  130OSM    H8F14040   3.019   6.243   7.385 -1.1645 -0.8439 -0.8345
  130OSM    H8G14041   3.177   6.241   7.468 -2.8833  2.2592  1.1178
  130OSM    C9F14042   3.043   6.084   7.524 -0.2580 -0.5404 -0.5766
  130OSM    H9F14043   2.945   6.047   7.489 -1.5067  2.8621 -1.0471
  130OSM   C10F14044   3.109   6.033   7.631 -0.0855  0.4248 -0.5220
  130OSM   H10F14045   3.047   5.968   7.695 -1.8032  2.1174 -0.3556
  130OSM   C11F14046   3.248   6.063   7.673 -0.2600  0.2744  0.2732
  130OSM   H11F14047   3.285   6.148   7.613  0.5770 -1.1521 -1.3264
  130OSM   H11G14048   3.304   5.975   7.633  2.4301  0.8874  2.3727
  130OSM   C12F14049   3.279   6.082   7.823  0.1088  0.0974  0.8433
  130OSM   H12F14050   3.225   6.175   7.850 -1.1904  0.0795 -1.4059
  130OSM   H12G14051   3.389   6.081   7.835  0.1347 -0.3642  0.5870
  130OSM   C13F14052   3.230   5.966   7.907 -0.1889 -0.5135  0.2698
  130OSM   H13F14053   3.265   5.870   7.864 -1.7378 -1.0505  0.1360
  130OSM   H13G14054   3.119   5.958   7.912 -0.2159  0.3218  2.0694
  130OSM   C14F14055   3.272   5.992   8.052 -0.0091  0.1369 -0.6001
  130OSM   H14F14056   3.237   6.089   8.092  1.7936  1.3279 -1.7670
  130OSM   H14G14057   3.383   5.993   8.055  0.0096  1.4369 -1.2856
  130OSM   C15F14058   3.223   5.881   8.146 -0.1307  0.4535  0.2013
  130OSM   H15F14059   3.275   5.896   8.243  1.2992 -0.0957 -0.4485
  130OSM   H15G14060   3.264   5.784   8.110 -1.4919  0.0781 -0.3816
  130OSM   C16F14061   3.067   5.883   8.154  0.0802 -0.3456 -0.1787
  130OSM   H16F14062   3.024   5.781   8.143 -0.3340 -0.2454  0.4401
  130OSM   H16G14063   3.020   5.940   8.071  1.5913  2.0934  0.5475
  130OSM   C17F14064   3.019   5.947   8.288  0.0436  0.3554  0.8251
  130OSM   H17F14065   3.058   6.051   8.289  0.3084  0.2627  0.0951
  130OSM   H17G14066   3.074   5.882   8.360 -0.0783 -0.1689  0.4550
  130OSM   C18F14067   2.872   5.940   8.301 -0.6439 -0.4669  0.0562
  130OSM   H18F14068   2.820   5.963   8.205  0.6177 -0.6357 -0.6816
  130OSM   H18G14069   2.827   6.018   8.367 -1.0512 -1.0361  0.4638
  130OSM   H18H14070   2.839   5.842   8.341 -2.8418  0.4925  0.8169
  131OSM      N14071   2.073   3.679   5.945 -0.3153 -0.0908  0.1775
  131OSM    C1514072   2.190   3.710   6.033 -0.3779 -0.0696  0.2962
  131OSM   H15A14073   2.217   3.617   6.081  0.6747 -1.0936 -2.1048
  131OSM   H15B14074   2.179   3.786   6.109  3.8195  0.5472  0.5120
  131OSM   H15C14075   2.279   3.728   5.974  0.4003 -0.7748  1.2158
  131OSM    C1414076   2.054   3.789   5.845 -0.2893  0.4552  0.1516
  131OSM   H14A14077   1.981   3.751   5.776 -0.5758  0.0268  0.6827
  131OSM   H14B14078   2.149   3.802   5.795 -0.7940  0.2079 -0.9046
  131OSM   H14C14079   2.022   3.879   5.895 -1.3987 -0.0936  0.4448
  131OSM    C1314080   2.095   3.550   5.876  0.0005 -0.3508 -0.5252
  131OSM   H13A14081   2.024   3.530   5.796 -1.1167 -2.5518  0.9316
  131OSM   H13B14082   2.070   3.472   5.947 -0.4971 -0.6928 -1.0667
  131OSM   H13C14083   2.196   3.534   5.841  0.5661  0.2447  0.7853
  131OSM    C1214084   1.943   3.663   6.028  0.5525 -0.0286  0.3543
  131OSM   H12A14085   1.859   3.661   5.960 -0.5060 -0.4634  1.6228
  131OSM   H12B14086   1.938   3.756   6.083  1.0981 -0.0870  0.5107
  131OSM    C1114087   1.920   3.554   6.143  0.0098 -0.1712  0.3122
  131OSM   H11A14088   1.850   3.604   6.214 -0.7006  0.8523 -1.0593
  131OSM   H11B14089   2.016   3.543   6.196  0.8748  1.7526 -0.7559
  131OSM      P14090   1.913   3.296   6.132  0.2891  0.0374 -0.2998
  131OSM    O1314091   1.821   3.195   6.081  0.1999  0.0815  0.1875
  131OSM    O1414092   2.045   3.282   6.076 -0.1722 -0.0131 -0.1234
  131OSM    O1114093   1.924   3.303   6.289 -0.2617  0.5921 -0.2534
  131OSM    O1214094   1.854   3.438   6.094 -0.0472  0.4417 -0.6804
  131OSM    C1S14095   1.805   3.334   6.365 -0.2707  0.2179  0.2371
  131OSM    H1S14096   1.715   3.300   6.308  0.3724  0.0226 -0.6872
  131OSM    H1T14097   1.800   3.445   6.375  0.5563  0.3350 -0.4953
  131OSM     NF14098   1.690   3.284   6.575  0.2549  0.3798 -0.2738
  131OSM    HNF14099   1.672   3.359   6.638 -0.7691  0.1303 -0.2489
  131OSM    C2S14100   1.814   3.268   6.510  0.4154 -0.1659  0.5765
  131OSM    H2S14101   1.847   3.164   6.492  1.3460  0.2969 -0.5131
  131OSM    C3S14102   1.932   3.338   6.586 -0.2619  0.5094  0.5561
  131OSM    H3S14103   1.889   3.439   6.599 -5.0244 -1.2595  0.5463
  131OSM     O314104   2.050   3.335   6.506 -0.5400  0.0329 -0.0240
  131OSM    HO314105   2.022   3.320   6.415 -3.9438 -0.6453  0.9785
  131OSM    C4S14106   1.936   3.267   6.717  0.1575  0.2741 -0.0313
  131OSM    H4S14107   1.837   3.279   6.763 -0.2595  2.7243 -1.3955
  131OSM    C5S14108   2.038   3.196   6.774  0.3097  0.3019  0.5810
  131OSM    H5S14109   2.129   3.189   6.712 -0.6378 -0.9279 -0.7441
  131OSM    C6S14110   2.036   3.128   6.911 -0.7995 -0.3763  0.6874
  131OSM    H6S14111   2.138   3.097   6.943 -0.0112  0.5488 -0.7787
  131OSM    H6T14112   1.985   3.030   6.899 -0.3996 -0.3834 -1.3680
  131OSM    C7S14113   1.955   3.206   7.022  0.2186  0.2485  0.7251
  131OSM    H7S14114   1.847   3.181   7.026  0.2349  0.2016  0.8638
  131OSM    H7T14115   1.964   3.316   7.008  1.5497 -0.0887 -1.5689
  131OSM    C8S14116   2.014   3.163   7.161 -0.1962 -0.4881 -0.2417
  131OSM    H8S14117   2.122   3.187   7.153 -0.6776  2.4205  0.7677
  131OSM    H8T14118   1.997   3.054   7.178  0.4948 -0.6030 -0.2462
  131OSM    C9S14119   1.979   3.249   7.281  0.0322  0.3576 -0.2005
  131OSM    H9S14120   1.993   3.357   7.255 -0.1742  0.2541 -0.7523
  131OSM    H9T14121   2.058   3.237   7.359  0.2631  0.0580 -0.4805
  131OSM   C10S14122   1.843   3.223   7.347  0.1086  0.1865 -0.9730
  131OSM   H10S14123   1.841   3.115   7.373  1.1003  0.5457  0.7670
  131OSM   H10T14124   1.767   3.249   7.270  0.7830 -0.6228 -1.9392
  131OSM   C11S14125   1.819   3.286   7.483  0.2140 -0.6123 -0.1626
  131OSM   H11S14126   1.712   3.271   7.508  0.0754  1.2828  0.5785
  131OSM   H11T14127   1.849   3.392   7.468  1.4347 -0.9391 -0.1639
  131OSM   C12S14128   1.894   3.215   7.587 -0.3054  0.0054 -0.2437
  131OSM   H12S14129   1.881   3.278   7.677  0.0310  0.0712 -0.2403
  131OSM   H12T14130   1.999   3.191   7.561  0.1400 -0.3099  1.7184
  131OSM   C13S14131   1.834   3.073   7.631  0.0958 -0.0940  0.9329
  131OSM   H13S14132   1.868   3.002   7.552 -0.8675  0.4353  0.0325
  131OSM   H13T14133   1.724   3.081   7.624 -0.1345 -2.2745  1.2597
  131OSM   C14S14134   1.874   3.023   7.763  0.2450 -0.1427 -0.3987
  131OSM   H14S14135   1.984   3.030   7.780  0.6368  2.5036 -3.2561
  131OSM   H14T14136   1.851   2.915   7.780 -1.5051  0.4609  1.4913
  131OSM   C15S14137   1.799   3.088   7.881 -0.6276 -0.1386  0.0619
  131OSM   H15S14138   1.690   3.095   7.862 -0.3585 -1.6112 -2.4237
  131OSM   H15T14139   1.826   3.195   7.893  0.3540 -0.3305 -0.3965
  131OSM   C16S14140   1.832   3.026   8.015 -0.4532  0.7731 -0.1524
  131OSM   H16S14141   1.943   3.014   8.020 -0.4196  1.5727  1.8516
  131OSM   H16T14142   1.784   2.926   8.015 -0.7750  0.9178 -1.1277
  131OSM   C17S14143   1.785   3.107   8.134 -0.3078 -0.4001  0.6506
  131OSM   H17S14144   1.688   3.160   8.126  0.1714  0.3904 -0.1144
  131OSM   H17T14145   1.854   3.194   8.142 -0.6908  0.0248 -0.4586
  131OSM   C18S14146   1.777   3.026   8.260  0.0713  0.1044 -0.9642
  131OSM   H18S14147   1.869   3.022   8.321  0.5800 -0.1969 -1.7355
  131OSM   H18T14148   1.728   2.929   8.235 -0.7876  0.5725 -1.1575
  131OSM   H18U14149   1.714   3.088   8.326 -1.2399 -0.3752 -1.7195
  131OSM    C1F14150   1.594   3.199   6.548 -0.1392  0.4531 -0.3685
  131OSM     OF14151   1.609   3.102   6.475  0.1719  0.4475  0.4214
  131OSM    C2F14152   1.470   3.215   6.631  1.0118  0.0239  0.7542
  131OSM    H2F14153   1.387   3.210   6.558 -0.1376 -0.5802  2.0664
  131OSM    H2G14154   1.460   3.313   6.681 -0.7119  0.8481 -1.0823
  131OSM    C3F14155   1.459   3.095   6.732  0.1501 -0.1809 -0.0964
  131OSM    H3F14156   1.469   2.993   6.689  1.4952 -0.2469  0.3290
  131OSM    H3G14157   1.364   3.107   6.789 -0.3617 -0.2360 -0.9270
  131OSM    C4F14158   1.566   3.112   6.837  0.3824  0.0798 -0.4321
  131OSM    H4F14159   1.668   3.113   6.794 -0.0343 -0.4850 -1.4626
  131OSM    H4G14160   1.558   3.033   6.914  1.2350  1.5789  1.2665
  131OSM    C5F14161   1.571   3.239   6.924  0.6729  0.4390 -0.2728
  131OSM    H5F14162   1.599   3.329   6.865 -1.9736  2.6476  1.5573
  131OSM    H5G14163   1.652   3.232   6.999 -1.3419 -1.1565  1.9170
  131OSM    C6F14164   1.446   3.276   7.007  0.4266 -0.2250  0.0900
  131OSM    H6F14165   1.361   3.237   6.948  0.2106  2.9321 -1.9373
  131OSM    H6G14166   1.431   3.384   7.032  1.7957 -0.0286  0.1319
  131OSM    C7F14167   1.449   3.193   7.132  0.4436  0.2457  0.2376
  131OSM    H7F14168   1.536   3.223   7.195 -0.1674 -2.4920  2.6181
  131OSM    H7G14169   1.465   3.086   7.108 -2.1620 -0.9321  3.1260
  131OSM    C8F14170   1.325   3.208   7.222  0.1421  0.3585 -0.1077
  131OSM    H8F14171   1.232   3.216   7.162  1.0216  0.2310 -1.5351
  131OSM    H8G14172   1.334   3.302   7.279 -1.6199  1.6486 -1.8322
  131OSM    C9F14173   1.294   3.093   7.319  0.0756 -0.1678  0.0717
  131OSM    H9F14174   1.265   2.996   7.275  2.5955 -0.8784 -0.1913
  131OSM   C10F14175   1.282   3.103   7.454  0.2315 -0.0927 -0.3025
  131OSM   H10F14176   1.265   3.014   7.517 -2.1960  1.7177  1.8213
  131OSM   C11F14177   1.311   3.231   7.529  0.6030 -0.4234 -0.7296
  131OSM   H11F14178   1.263   3.318   7.478 -2.9853 -0.3425  2.4079
  131OSM   H11G14179   1.419   3.257   7.516  0.6178 -0.0361  0.0994
  131OSM   C12F14180   1.280   3.230   7.679  0.6671  0.8919 -0.2460
  131OSM   H12F14181   1.170   3.246   7.677  0.7769  1.9943  1.1052
  131OSM   H12G14182   1.330   3.324   7.709 -0.7723  1.7661 -0.5141
  131OSM   C13F14183   1.334   3.122   7.769 -1.0734  0.5437 -0.5118
  131OSM   H13F14184   1.444   3.138   7.775 -0.9134 -0.3744 -0.9571
  131OSM   H13G14185   1.331   3.021   7.725 -0.0509  0.0405  0.5244
  131OSM   C14F14186   1.270   3.112   7.910  0.4704 -0.2527 -0.1726
  131OSM   H14F14187   1.166   3.074   7.898  0.4310 -1.1707  2.3872
  131OSM   H14G14188   1.262   3.210   7.961  1.4645 -0.9648  1.4254
  131OSM   C15F14189   1.348   3.026   8.005 -0.1547  0.4690 -0.1557
  131OSM   H15F14190   1.453   3.059   7.990 -1.2458  4.0674 -0.7410
  131OSM   H15G14191   1.347   2.921   7.968 -0.1587  0.1306  0.7883
  131OSM   C16F14192   1.304   3.053   8.149  0.3076 -0.0555  0.2383
  131OSM   H16F14193   1.194   3.040   8.163  0.4135 -0.6537  0.5841
  131OSM   H16G14194   1.328   3.159   8.173  1.9982 -0.5135  0.6722
  131OSM   C17F14195   1.388   2.968   8.248 -0.6148 -0.0754 -0.4767
  131OSM   H17F14196   1.494   2.966   8.215 -0.6860  2.2804 -1.0573
  131OSM   H17G14197   1.354   2.862   8.240  0.2272 -0.5320  1.5683
  131OSM   C18F14198   1.370   3.004   8.394  0.5192  0.0681 -0.2529
  131OSM   H18F14199   1.263   3.007   8.422  1.3884  1.1744  3.5337
  131OSM   H18G14200   1.425   3.097   8.424 -0.5230  0.4956  0.3819
  131OSM   H18H14201   1.401   2.919   8.459 -0.7423  0.2930  0.6879
  132OSM      N14202   2.594   2.062   6.036 -0.0914  0.5479  0.7247
  132OSM    C1514203   2.471   1.988   6.015  0.4473  0.1629 -0.5615
  132OSM   H15A14204   2.459   1.905   6.083 -0.0530 -0.0294 -0.8750
  132OSM   H15B14205   2.460   1.949   5.915 -1.0727 -1.4758  0.1905
  132OSM   H15C14206   2.380   2.043   6.031 -1.5235 -2.9745 -0.1259
  132OSM    C1414207   2.715   1.972   6.005  0.2073  0.0128  0.1355
  132OSM   H14A14208   2.805   2.032   6.015 -0.1349  0.3327  1.6737
  132OSM   H14B14209   2.706   1.946   5.901 -1.4360  2.7425 -0.5029
  132OSM   H14C14210   2.717   1.882   6.064 -0.1662  0.1536  0.3658
  132OSM    C1314211   2.602   2.173   5.940  0.3616  0.2668 -0.2761
  132OSM   H13A14212   2.617   2.137   5.839  1.2583 -1.2037  0.3435
  132OSM   H13B14213   2.679   2.245   5.963 -0.5455  0.9385  0.7527
  132OSM   H13C14214   2.512   2.233   5.936 -0.7321 -1.3195 -0.5996
  132OSM    C1214215   2.601   2.115   6.174 -0.7290  0.2324  0.1180
  132OSM   H12A14216   2.599   2.034   6.245 -0.1370  1.9844  2.2328
  132OSM   H12B14217   2.514   2.164   6.215  1.0122  1.0527  3.1755
  132OSM    C1114218   2.720   2.219   6.209  0.1530  0.3177 -0.1953
  132OSM   H11A14219   2.813   2.193   6.155  2.1489  0.2349  3.0118
  132OSM   H11B14220   2.747   2.202   6.316 -1.2240 -1.6719 -0.1022
  132OSM      P14221   2.794   2.463   6.159 -0.0719  0.1906  0.3399
  132OSM    O1314222   2.854   2.445   6.023  0.0358 -0.0014  0.3512
  132OSM    O1414223   2.742   2.597   6.191  0.2955 -0.3817 -0.1361
  132OSM    O1114224   2.890   2.418   6.275 -0.6986 -0.3631  0.3773
  132OSM    O1214225   2.680   2.355   6.182 -0.5773 -0.1936 -0.4602
  132OSM    C1S14226   2.873   2.445   6.410 -0.1339  0.2226  0.2243
  132OSM    H1S14227   2.794   2.376   6.447 -0.6926  0.5697 -0.3017
  132OSM    H1T14228   2.832   2.545   6.435 -1.8252  0.1492 -1.9337
  132OSM     NF14229   2.977   2.425   6.640 -0.4640  0.5576 -0.1627
  132OSM    HNF14230   3.018   2.501   6.690 -3.3173  4.0207 -2.5996
  132OSM    C2S14231   3.003   2.413   6.500  0.5186  0.5685 -0.4236
  132OSM    H2S14232   3.024   2.305   6.490 -1.8459  0.0592 -0.3009
  132OSM    C3S14233   3.126   2.491   6.449 -0.3411 -0.4628  0.0522
  132OSM    H3S14234   3.118   2.597   6.482  0.7106 -0.0432 -0.9370
  132OSM     O314235   3.137   2.491   6.306 -0.0646  0.3597  0.4216
  132OSM    HO314236   3.049   2.474   6.273  0.8070 -1.8442 -0.9930
  132OSM    C4S14237   3.254   2.436   6.508  0.3760 -0.7381 -0.2226
  132OSM    H4S14238   3.286   2.334   6.479  1.1150 -0.1410 -1.6130
  132OSM    C5S14239   3.328   2.489   6.601 -0.2448  0.2637  0.2615
  132OSM    H5S14240   3.301   2.588   6.641 -1.3978 -0.8768  2.4938
  132OSM    C6S14241   3.449   2.417   6.664 -0.2124  0.4016 -0.2907
  132OSM    H6S14242   3.520   2.497   6.693 -2.2646  1.7394  1.3888
  132OSM    H6T14243   3.489   2.341   6.595 -2.0554  0.2014 -1.1953
  132OSM    C7S14244   3.420   2.351   6.799  0.3897  0.5727  0.2007
  132OSM    H7S14245   3.513   2.315   6.848  0.9920  0.0164 -1.2984
  132OSM    H7T14246   3.359   2.261   6.777 -0.4866  1.3618 -0.6416
  132OSM    C8S14247   3.358   2.443   6.906 -0.1994 -0.0852 -0.2205
  132OSM    H8S14248   3.274   2.496   6.855  0.4363  0.5616 -0.6065
  132OSM    H8T14249   3.440   2.512   6.936  0.5443 -0.8706 -0.4051
  132OSM    C9S14250   3.305   2.365   7.033  0.4486  0.3873 -0.4144
  132OSM    H9S14251   3.389   2.308   7.080 -0.0635 -1.0620 -1.2167
  132OSM    H9T14252   3.231   2.285   7.013  0.3090  0.3444  0.2476
  132OSM   C10S14253   3.228   2.450   7.142  0.6310 -0.0122  0.1037
  132OSM   H10S14254   3.161   2.515   7.081  0.4987 -0.8414 -0.6612
  132OSM   H10T14255   3.316   2.503   7.184  1.3182 -1.3735  0.4462
  132OSM   C11S14256   3.143   2.373   7.244 -0.3088 -0.3881 -0.1089
  132OSM   H11S14257   3.179   2.379   7.349 -2.1841 -1.2127  0.6121
  132OSM   H11T14258   3.113   2.273   7.209 -2.1069  0.8518 -2.3578
  132OSM   C12S14259   3.015   2.446   7.276 -0.0665  0.1342 -0.1617
  132OSM   H12S14260   2.960   2.452   7.179  0.2452 -2.1118 -0.5399
  132OSM   H12T14261   3.043   2.546   7.315 -0.4462 -0.0518  0.6083
  132OSM   C13S14262   2.924   2.369   7.375 -0.1098 -0.1789  0.0998
  132OSM   H13S14263   2.890   2.281   7.315 -1.2054  0.6908 -0.6016
  132OSM   H13T14264   2.826   2.418   7.393 -0.7244 -0.9469 -1.0129
  132OSM   C14S14265   2.986   2.315   7.512 -0.4119  0.0810 -0.2556
  132OSM   H14S14266   3.055   2.230   7.490  0.1909  0.8051 -1.2357
  132OSM   H14T14267   2.900   2.266   7.562 -0.2719  0.2438  0.1480
  132OSM   C15S14268   3.032   2.423   7.600 -0.2353 -0.2902  0.3065
  132OSM   H15S14269   2.982   2.520   7.581 -0.7289 -0.0172  2.7010
  132OSM   H15T14270   3.139   2.435   7.575 -0.3188  0.1799  0.1722
  132OSM   C16S14271   3.023   2.390   7.751  0.1497  0.4460 -0.5314
  132OSM   H16S14272   2.925   2.345   7.777  0.5018  0.3760  0.7283
  132OSM   H16T14273   3.036   2.482   7.812 -0.2061 -0.4971  1.0188
  132OSM   C17S14274   3.135   2.295   7.804 -0.1561  0.5308 -0.7136
  132OSM   H17S14275   3.225   2.356   7.786  1.0956 -1.0727 -0.1419
  132OSM   H17T14276   3.151   2.208   7.737  3.5447  1.1359 -0.7930
  132OSM   C18S14277   3.115   2.261   7.950  0.1305 -0.4067  0.0189
  132OSM   H18S14278   3.089   2.351   8.011 -0.4041 -0.2215 -0.4646
  132OSM   H18T14279   3.200   2.199   7.983  0.2244 -0.7047 -0.7746
  132OSM   H18U14280   3.025   2.198   7.966 -0.6707  0.7803  0.3066
  132OSM    C1F14281   2.895   2.339   6.698 -0.0804 -0.1456  0.0950
  132OSM     OF14282   2.859   2.238   6.635 -0.5958 -0.3237 -0.8775
  132OSM    C2F14283   2.867   2.358   6.847  0.2546  0.5868  0.1569
  132OSM    H2F14284   2.829   2.462   6.852  3.2519  1.7383  1.0938
  132OSM    H2G14285   2.957   2.353   6.912 -0.6048  0.2687  1.3380
  132OSM    C3F14286   2.761   2.259   6.899  0.6846  0.7892  0.0249
  132OSM    H3F14287   2.812   2.160   6.904  1.7790  1.2597 -1.2086
  132OSM    H3G14288   2.676   2.251   6.828  0.0496 -2.1394  0.9693
  132OSM    C4F14289   2.709   2.303   7.035 -0.0575 -0.1029  0.4400
  132OSM    H4F14290   2.668   2.406   7.036 -0.7671 -0.3874  1.1727
  132OSM    H4G14291   2.788   2.307   7.113 -1.2285 -0.0866  1.6579
  132OSM    C5F14292   2.594   2.219   7.075  0.0307  0.3764 -0.4044
  132OSM    H5F14293   2.621   2.112   7.085 -1.2611 -0.1291 -1.9103
  132OSM    H5G14294   2.521   2.205   6.993 -2.0533 -2.7046  1.7389
  132OSM    C6F14295   2.538   2.262   7.211 -0.1358  0.2609 -0.9958
  132OSM    H6F14296   2.494   2.364   7.215 -0.3914  0.1085  0.4845
  132OSM    H6G14297   2.632   2.262   7.270 -1.3470  0.2762  1.0341
  132OSM    C7F14298   2.446   2.160   7.279  0.1782 -0.4887 -0.0780
  132OSM    H7F14299   2.438   2.192   7.385 -1.8011 -1.0574 -0.0207
  132OSM    H7G14300   2.485   2.056   7.288  1.3014 -0.0586  0.1844
  132OSM    C8F14301   2.311   2.160   7.216  0.2240 -0.3212  0.3050
  132OSM    H8F14302   2.287   2.264   7.186 -1.1485 -0.5934  0.3594
  132OSM    H8G14303   2.251   2.123   7.302 -0.1822 -0.9651 -0.2444
  132OSM    C9F14304   2.289   2.064   7.097  0.1305  0.6340 -0.0100
  132OSM    H9F14305   2.320   1.961   7.117 -0.1851  0.3950 -0.7351
  132OSM   C10F14306   2.261   2.098   6.967 -0.4381 -0.3660 -0.8822
  132OSM   H10F14307   2.228   2.017   6.900  0.4159 -1.4011 -0.0838
  132OSM   C11F14308   2.242   2.242   6.920 -0.2472 -0.7238 -0.2096
  132OSM   H11F14309   2.332   2.299   6.951 -0.7886 -0.1028  0.2297
  132OSM   H11G14310   2.149   2.279   6.967 -0.5910 -1.6467 -0.1359
  132OSM   C12F14311   2.214   2.258   6.768 -0.0719 -0.4168  0.0890
  132OSM   H12F14312   2.124   2.196   6.750  1.4224 -2.7938  0.3535
  132OSM   H12G14313   2.297   2.209   6.714 -1.3679 -0.1134 -2.3024
  132OSM   C13F14314   2.195   2.395   6.716  0.2105 -0.1996 -0.1707
  132OSM   H13F14315   2.270   2.456   6.770 -1.5013  1.7217  0.1798
  132OSM   H13G14316   2.096   2.434   6.750  1.3790  0.8714  2.2594
  132OSM   C14F14317   2.223   2.423   6.567 -0.0205  0.7190 -0.2945
  132OSM   H14F14318   2.211   2.532   6.555 -0.0760  0.6366 -1.0194
  132OSM   H14G14319   2.140   2.380   6.506 -1.3498  2.1307  0.4464
  132OSM   C15F14320   2.359   2.375   6.510  0.3848  0.1097 -0.4627
  132OSM   H15F14321   2.365   2.386   6.399  0.2361 -2.7571 -0.8392
  132OSM   H15G14322   2.363   2.265   6.522 -1.7718 -0.6620 -4.7859
  132OSM   C16F14323   2.483   2.432   6.580  0.3985  0.0669 -0.3153
  132OSM   H16F14324   2.565   2.363   6.550 -0.4915  0.0100 -2.7990
  132OSM   H16G14325   2.468   2.450   6.689 -1.9987  0.3453 -0.6437
  132OSM   C17F14326   2.527   2.563   6.508  0.9732  0.2504 -0.2753
  132OSM   H17F14327   2.439   2.629   6.495  0.7627  0.6125  2.3544
  132OSM   H17G14328   2.569   2.539   6.409  0.7098  1.1558 -0.6185
  132OSM   C18F14329   2.635   2.640   6.579 -0.7053 -0.0850 -1.0499
  132OSM   H18F14330   2.603   2.697   6.668  1.6433 -0.3137  0.0319
  132OSM   H18G14331   2.691   2.705   6.509 -0.6139  2.1445  0.9639
  132OSM   H18H14332   2.705   2.567   6.626 -3.2078 -0.4105  2.6087
  133OSM      N14333   3.212   2.332   5.959 -0.0348  0.1182  0.0429
  133OSM    C1514334   3.308   2.268   5.852  0.5587 -0.2836 -0.4607
  133OSM   H15A14335   3.389   2.331   5.817  0.1059  0.3202 -0.4428
  133OSM   H15B14336   3.253   2.237   5.764 -0.3540 -1.3533  0.4514
  133OSM   H15C14337   3.347   2.175   5.890  0.4195  1.3650  4.3788
  133OSM    C1414338   3.293   2.358   6.082 -0.5594  0.6763  0.1797
  133OSM   H14A14339   3.384   2.401   6.044 -0.1830  0.4700  0.8262
  133OSM   H14B14340   3.314   2.269   6.140 -0.4433 -0.0379 -0.9209
  133OSM   H14C14341   3.245   2.427   6.150 -0.3431  0.2240  0.7973
  133OSM    C1314342   3.148   2.460   5.919 -0.2324 -0.7066  0.1368
  133OSM   H13A14343   3.221   2.537   5.896 -0.1177 -0.6342  0.7267
  133OSM   H13B14344   3.101   2.517   5.997 -0.6286 -0.1232 -0.5179
  133OSM   H13C14345   3.082   2.443   5.836 -1.6507  1.8635  0.6308
  133OSM    C1214346   3.099   2.240   5.993 -0.9305 -0.1631 -0.2678
  133OSM   H12A14347   3.046   2.204   5.906 -0.8832  0.4128 -0.5378
  133OSM   H12B14348   3.035   2.290   6.064  1.7690  0.4086  1.9581
  133OSM    C1114349   3.137   2.106   6.055  0.5306  1.0709  0.2708
  133OSM   H11A14350   3.158   2.112   6.164  0.8729 -0.5218  0.3078
  133OSM   H11B14351   3.233   2.081   6.005 -1.0618 -2.4887 -1.3982
  133OSM      P14352   3.051   1.862   6.063 -0.3088 -0.0845  0.3689
  133OSM    O1314353   2.947   1.767   6.022 -0.0812  0.4718 -0.1650
  133OSM    O1414354   3.191   1.814   6.031 -0.3236 -0.1157 -0.4487
  133OSM    O1114355   3.045   1.872   6.222 -0.2272  0.5450 -0.4207
  133OSM    O1214356   3.038   2.007   6.007 -0.1031  0.0430 -0.2618
  133OSM    C1S14357   2.933   1.947   6.293 -0.1330  0.0848 -0.5845
  133OSM    H1S14358   2.833   1.911   6.263 -0.1935 -1.5903  1.3916
  133OSM    H1T14359   2.954   2.055   6.278  2.8213 -0.2638  0.2550
  133OSM     NF14360   2.827   1.983   6.515  0.1049  0.5123  1.1432
  133OSM    HNF14361   2.857   2.056   6.577  1.1432 -0.2160  1.5228
  133OSM    C2S14362   2.938   1.927   6.450 -0.3220 -1.1252  1.0685
  133OSM    H2S14363   2.933   1.817   6.464 -0.1568 -1.0777  1.5076
  133OSM    C3S14364   3.079   1.974   6.503 -0.3954  0.0044 -0.3416
  133OSM    H3S14365   3.083   2.080   6.470 -0.8697 -0.2254 -1.1614
  133OSM     O314366   3.199   1.922   6.441  0.8549 -0.2862  0.0750
  133OSM    HO314367   3.165   1.918   6.351 -1.0322 -0.6700  0.7642
  133OSM    C4S14368   3.080   1.958   6.653  0.5058  0.0590  0.2592
  133OSM    H4S14369   3.056   1.854   6.681  1.1275 -0.8690 -2.3706
  133OSM    C5S14370   3.104   2.057   6.736  0.2477  0.2466  0.1601
  133OSM    H5S14371   3.119   2.158   6.695 -0.5273  0.3861  0.1955
  133OSM    C6S14372   3.124   2.033   6.888 -0.1437 -0.3383  0.5891
  133OSM    H6S14373   3.081   2.117   6.946 -1.3201 -1.5702  1.5587
  133OSM    H6T14374   3.231   2.028   6.919  0.5275 -2.6302 -1.6909
  133OSM    C7S14375   3.057   1.905   6.938  0.0106  0.6698  0.3190
  133OSM    H7S14376   3.134   1.826   6.923  1.0671  1.4296  1.4684
  133OSM    H7T14377   2.962   1.895   6.881  0.7253  0.1481 -0.8196
  133OSM    C8S14378   3.024   1.908   7.088  0.5889  0.8444 -0.3709
  133OSM    H8S14379   3.114   1.903   7.152 -0.7468 -4.1568  1.6020
  133OSM    H8T14380   2.989   1.804   7.104  1.3713  0.7028  0.4548
  133OSM    C9S14381   2.933   2.021   7.149 -0.0748  0.4123 -0.2357
  133OSM    H9S14382   2.836   2.027   7.096 -1.0050 -1.1349  1.2086
  133OSM    H9T14383   2.979   2.122   7.146  1.1895 -0.1543 -1.7049
  133OSM   C10S14384   2.902   1.993   7.300  0.3478  0.0156  0.5525
  133OSM   H10S14385   2.839   1.902   7.298 -0.1317  0.3406 -1.0902
  133OSM   H10T14386   2.833   2.072   7.334  0.8508 -0.2166  2.1951
  133OSM   C11S14387   3.027   1.970   7.382  0.0905  0.3498 -0.3618
  133OSM   H11S14388   3.100   2.050   7.360  1.1276 -0.6460 -0.6428
  133OSM   H11T14389   3.089   1.883   7.354  1.0853  1.0904 -0.4932
  133OSM   C12S14390   3.011   1.957   7.538  0.1184  0.8128 -0.5262
  133OSM   H12S14391   2.917   1.901   7.555  1.0436 -0.4581  0.6185
  133OSM   H12T14392   2.982   2.058   7.576  0.2090  1.0837 -1.1567
  133OSM   C13S14393   3.117   1.878   7.627  1.2536 -0.1436 -0.3025
  133OSM   H13S14394   3.217   1.913   7.593  0.3571  1.2039 -1.7209
  133OSM   H13T14395   3.117   1.768   7.609 -0.6567  0.1260 -2.4562
  133OSM   C14S14396   3.080   1.893   7.781  0.3630  0.7465  0.5247
  133OSM   H14S14397   2.973   1.863   7.788  1.2016 -2.3722  2.3422
  133OSM   H14T14398   3.109   1.995   7.813  1.4099  0.0871  1.7700
  133OSM   C15S14399   3.156   1.794   7.868  0.5143 -0.4733 -0.0164
  133OSM   H15S14400   3.262   1.817   7.841  0.5155  0.8981  1.0118
  133OSM   H15T14401   3.135   1.692   7.830 -0.8637  0.2101 -1.2015
  133OSM   C16S14402   3.125   1.801   8.013 -0.1032  0.0444 -0.6056
  133OSM   H16S14403   3.169   1.712   8.061  0.0674  0.7925  0.6627
  133OSM   H16T14404   3.017   1.813   8.037  0.0137  1.8371 -0.8418
  133OSM   C17S14405   3.206   1.917   8.072  0.1340 -0.2743  0.6747
  133OSM   H17S14406   3.160   2.012   8.037  2.3287  0.4117 -0.4932
  133OSM   H17T14407   3.314   1.916   8.048  0.2290 -2.8817  0.9214
  133OSM   C18S14408   3.218   1.921   8.221 -0.2449 -0.3673 -0.2694
  133OSM   H18S14409   3.118   1.920   8.269  0.7987 -0.1546  2.0319
  133OSM   H18T14410   3.269   2.015   8.253 -1.2278  0.2116 -0.3809
  133OSM   H18U14411   3.276   1.831   8.251  1.9015  1.5137  1.6139
  133OSM    C1F14412   2.693   1.968   6.492  0.0591  0.6540 -0.0475
  133OSM     OF14413   2.651   1.908   6.394  0.2691  0.5471  0.4035
  133OSM    C2F14414   2.606   2.038   6.588 -0.0270 -0.2315 -0.4883
  133OSM    H2F14415   2.528   2.105   6.546  0.6520  1.4127  0.7793
  133OSM    H2G14416   2.671   2.094   6.658  0.7628 -0.1793 -1.2615
  133OSM    C3F14417   2.522   1.936   6.665  0.1282 -0.6442  0.9383
  133OSM    H3F14418   2.471   1.868   6.593  0.6829  0.5129 -0.5877
  133OSM    H3G14419   2.444   1.995   6.718  0.4216  0.0015  0.6488
  133OSM    C4F14420   2.605   1.853   6.761  0.3325 -0.9407 -0.0764
  133OSM    H4F14421   2.677   1.924   6.807  0.8089 -0.4774 -1.4599
  133OSM    H4G14422   2.663   1.784   6.696  2.4149  0.1715  0.5101
  133OSM    C5F14423   2.532   1.781   6.878 -0.3510  0.8230  0.3681
  133OSM    H5F14424   2.479   1.696   6.832 -0.4982  2.0840 -1.9655
  133OSM    H5G14425   2.455   1.849   6.920 -0.3788  0.4866  0.8695
  133OSM    C6F14426   2.615   1.716   6.986 -0.6643 -0.7046  0.0919
  133OSM    H6F14427   2.680   1.799   7.022  1.6742 -2.5881  0.4852
  133OSM    H6G14428   2.668   1.629   6.942 -1.0803 -0.9712  0.1120
  133OSM    C7F14429   2.531   1.679   7.109 -0.1375 -0.2443 -0.1300
  133OSM    H7F14430   2.437   1.629   7.077  0.2525 -1.0790  0.0023
  133OSM    H7G14431   2.508   1.778   7.153 -1.2777 -1.6535  2.6719
  133OSM    C8F14432   2.619   1.604   7.214 -0.2092 -0.1953  0.3897
  133OSM    H8F14433   2.626   1.505   7.166 -1.3076  0.0947 -0.3837
  133OSM    H8G14434   2.564   1.590   7.310 -0.2435 -2.8062  0.0434
  133OSM    C9F14435   2.762   1.657   7.235  0.3341  0.6416  0.2995
  133OSM    H9F14436   2.819   1.697   7.150  1.0685 -0.1187  0.4264
  133OSM   C10F14437   2.822   1.645   7.355 -0.2480  0.1035  0.6020
  133OSM   H10F14438   2.916   1.701   7.366  0.7118 -0.5623 -2.8537
  133OSM   C11F14439   2.777   1.582   7.492 -0.6760  0.4423  0.1862
  133OSM   H11F14440   2.691   1.513   7.482 -1.2530  1.0790  0.5991
  133OSM   H11G14441   2.737   1.660   7.561  1.7136  0.7127  1.3736
  133OSM   C12F14442   2.896   1.515   7.567 -0.1787  0.5132 -0.5942
  133OSM   H12F14443   2.986   1.580   7.564 -0.5346  0.9834 -1.4909
  133OSM   H12G14444   2.937   1.418   7.532  0.5121  0.1335  1.1793
  133OSM   C13F14445   2.860   1.486   7.716 -0.0126 -0.2179 -0.5366
  133OSM   H13F14446   2.767   1.425   7.719 -0.7089  0.8028  2.0123
  133OSM   H13G14447   2.835   1.587   7.756 -0.6567  0.4280 -2.4644
  133OSM   C14F14448   2.960   1.415   7.800 -0.4986 -0.0824 -0.0896
  133OSM   H14F14449   3.053   1.476   7.796  0.1854 -1.0141  0.7379
  133OSM   H14G14450   2.967   1.317   7.748 -0.3501  0.0142 -0.2550
  133OSM   C15F14451   2.919   1.403   7.951  0.5798  0.5715  0.1958
  133OSM   H15F14452   2.823   1.349   7.966  0.3460  1.0292  0.3431
  133OSM   H15G14453   2.891   1.505   7.984 -0.9452  0.6355 -1.1994
  133OSM   C16F14454   3.038   1.342   8.030  0.3137 -0.4931  0.0327
  133OSM   H16F14455   3.003   1.317   8.132  1.0002 -0.3763  0.2998
  133OSM   H16G14456   3.121   1.415   8.036 -0.0841  0.0801 -1.0939
  133OSM   C17F14457   3.084   1.202   7.971 -0.3321  0.2530  0.6739
  133OSM   H17F14458   3.130   1.228   7.873  1.2100  2.1867  1.8457
  133OSM   H17G14459   2.990   1.146   7.950 -0.0196 -0.0560  0.0505
  133OSM   C18F14460   3.183   1.121   8.052  0.2343  0.4916 -0.7237
  133OSM   H18F14461   3.284   1.166   8.059  1.0813 -1.0559 -2.2696
  133OSM   H18G14462   3.210   1.023   8.007  1.0884 -0.0905  0.9501
  133OSM   H18H14463   3.146   1.096   8.154  1.6035  3.2116  0.5435
  134OSM      N14464   4.328   6.718   6.199  0.0602  0.1833  0.3871
  134OSM    C1514465   4.183   6.694   6.189 -0.6172 -0.1431  0.8526
  134OSM   H15A14466   4.161   6.597   6.146 -3.5007  0.4808  0.7551
  134OSM   H15B14467   4.129   6.767   6.132 -0.0770 -1.3251 -1.2682
  134OSM   H15C14468   4.143   6.684   6.289 -0.2563 -1.0462  0.9227
  134OSM    C1414469   4.375   6.706   6.060  0.1396  0.2329 -0.3268
  134OSM   H14A14470   4.345   6.608   6.025  2.4837 -0.6506 -0.0242
  134OSM   H14B14471   4.483   6.707   6.054  0.1001  0.8576 -1.0071
  134OSM   H14C14472   4.336   6.778   5.989  1.2175  0.6040 -0.5619
  134OSM    C1314473   4.356   6.857   6.254 -0.6194 -0.2198  0.8395
  134OSM   H13A14474   4.462   6.875   6.261 -0.1100 -2.8612  1.0660
  134OSM   H13B14475   4.298   6.875   6.344 -0.8159  0.4042  0.5936
  134OSM   H13C14476   4.329   6.918   6.169 -0.2030 -0.5005  0.5030
  134OSM    C1214477   4.394   6.614   6.286 -0.3758 -0.0433 -0.2888
  134OSM   H12A14478   4.499   6.637   6.291 -1.1092  3.7670  0.6785
  134OSM   H12B14479   4.362   6.522   6.238 -3.4456  0.2583  0.9262
  134OSM    C1114480   4.339   6.594   6.428  0.2547 -0.8628 -0.1645
  134OSM   H11A14481   4.228   6.588   6.430  0.2909 -1.4379  0.5464
  134OSM   H11B14482   4.356   6.692   6.477 -2.4758  1.8339 -4.0480
  134OSM      P14483   4.349   6.342   6.434 -0.2578 -0.2933 -0.2450
  134OSM    O1314484   4.231   6.357   6.345 -0.1983 -0.2447 -0.2920
  134OSM    O1414485   4.468   6.266   6.384  0.0424  0.1565  0.0549
  134OSM    O1114486   4.301   6.278   6.569  1.1300  0.1841 -0.2768
  134OSM    O1214487   4.397   6.482   6.488 -0.2517  0.0808  0.1039
  134OSM    C1S14488   4.390   6.277   6.679 -0.1201  0.2564 -0.2384
  134OSM    H1S14489   4.391   6.379   6.725  0.2160  1.1889 -2.2220
  134OSM    H1T14490   4.497   6.263   6.653 -0.5023  0.2794 -1.9315
  134OSM     NF14491   4.431   6.198   6.916  0.3160  0.5312 -0.5250
  134OSM    HNF14492   4.477   6.124   6.964  2.1612  1.8605 -0.1236
  134OSM    C2S14493   4.349   6.184   6.793  0.4033  0.2829  0.0571
  134OSM    H2S14494   4.244   6.211   6.820  0.0072  1.2568 -2.1782
  134OSM    C3S14495   4.353   6.038   6.745  0.4059  0.0068 -0.2091
  134OSM    H3S14496   4.456   5.996   6.740  0.6250  0.4769  0.2317
  134OSM     O314497   4.303   6.012   6.618 -0.5897  0.9434 -0.0912
  134OSM    HO314498   4.271   6.097   6.586 -1.9295  0.4066 -0.2426
  134OSM    C4S14499   4.285   5.952   6.843 -0.3451  0.2376  0.4605
  134OSM    H4S14500   4.177   5.969   6.856 -0.8583 -1.3081 -1.3998
  134OSM    C5S14501   4.346   5.855   6.915  0.1627 -0.2311 -0.7772
  134OSM    H5S14502   4.454   5.843   6.894  0.8577  2.7324  0.5454
  134OSM    C6S14503   4.286   5.771   7.032  0.1690  0.0720 -0.1513
  134OSM    H6S14504   4.363   5.718   7.091 -0.5019  0.1217  0.7832
  134OSM    H6T14505   4.225   5.688   6.991 -0.1764  0.6193 -0.7702
  134OSM    C7S14506   4.204   5.842   7.144  0.5094 -0.0414  0.2198
  134OSM    H7S14507   4.172   5.759   7.210 -1.4739  0.7471  0.3165
  134OSM    H7T14508   4.109   5.887   7.108 -0.7890 -2.7538  0.0035
  134OSM    C8S14509   4.287   5.944   7.220 -0.4959  0.2910 -0.0623
  134OSM    H8S14510   4.316   6.023   7.148 -1.8160  1.2112  0.3848
  134OSM    H8T14511   4.377   5.890   7.257 -2.0013 -1.9513  0.5044
  134OSM    C9S14512   4.222   6.006   7.343 -0.1622 -0.0004  0.2403
  134OSM    H9S14513   4.126   6.047   7.306 -0.5979 -1.1238  0.0961
  134OSM    H9T14514   4.274   6.095   7.386  1.3816 -1.8723  2.4803
  134OSM   C10S14515   4.201   5.910   7.464  0.2432 -0.7270  0.2519
  134OSM   H10S14516   4.282   5.838   7.486  0.8778  0.1241  0.7566
  134OSM   H10T14517   4.123   5.841   7.425  0.2026 -0.9390  0.7037
  134OSM   C11S14518   4.157   5.987   7.589  0.4937  0.1215 -0.0975
  134OSM   H11S14519   4.069   6.053   7.569 -1.4725 -2.4552 -0.5612
  134OSM   H11T14520   4.245   6.050   7.610  1.0808 -0.0404 -1.9229
  134OSM   C12S14521   4.123   5.891   7.703  0.4666  0.0036  0.2666
  134OSM   H12S14522   4.223   5.846   7.721  0.2953 -0.4621  0.0440
  134OSM   H12T14523   4.071   5.802   7.662  0.2863 -0.1015  0.7234
  134OSM   C13S14524   4.047   5.953   7.823 -0.7329  0.1228 -0.1383
  134OSM   H13S14525   3.944   5.986   7.800 -0.0678  1.4878 -1.3208
  134OSM   H13T14526   4.107   6.044   7.845 -1.1263  0.5815 -0.9493
  134OSM   C14S14527   4.048   5.866   7.950 -0.2516 -0.1734 -0.3886
  134OSM   H14S14528   4.146   5.872   8.002 -1.6118  1.4193  2.2496
  134OSM   H14T14529   4.028   5.758   7.933  1.3917 -0.9011  1.8378
  134OSM   C15S14530   3.948   5.910   8.055  0.2709  0.3977  0.4883
  134OSM   H15S14531   3.845   5.889   8.019  1.3108 -0.5082 -2.2084
  134OSM   H15T14532   3.959   6.021   8.059 -3.3510  0.8545  1.2815
  134OSM   C16S14533   3.967   5.830   8.190 -0.5309 -0.5403 -0.1922
  134OSM   H16S14534   4.072   5.856   8.219 -1.0388  2.3921 -0.6424
  134OSM   H16T14535   3.960   5.720   8.178  0.0801 -0.8433  1.8037
  134OSM   C17S14536   3.863   5.869   8.290  0.5816  0.1700 -0.7097
  134OSM   H17S14537   3.763   5.855   8.245  0.4809  2.0037 -1.1430
  134OSM   H17T14538   3.876   5.975   8.322 -1.1466  0.1506  0.1593
  134OSM   C18S14539   3.863   5.786   8.424  0.6890  0.2569  0.2038
  134OSM   H18S14540   3.964   5.744   8.443  0.3112 -1.3011 -0.9924
  134OSM   H18T14541   3.800   5.695   8.431  2.1477 -0.6692  2.2882
  134OSM   H18U14542   3.841   5.857   8.507 -2.3050  1.0911 -1.1816
  134OSM    C1F14543   4.426   6.308   6.986 -0.2904 -0.1742 -0.1076
  134OSM     OF14544   4.360   6.408   6.954 -0.9954 -0.1177 -0.0844
  134OSM    C2F14545   4.497   6.303   7.119  0.2812 -0.0896  0.0228
  134OSM    H2F14546   4.427   6.294   7.205 -0.8217  2.3236 -0.5647
  134OSM    H2G14547   4.544   6.403   7.126  1.2227 -0.3357 -1.9981
  134OSM    C3F14548   4.611   6.198   7.137  0.3614 -0.7461 -0.6295
  134OSM    H3F14549   4.697   6.197   7.066  0.4303 -0.7436 -0.5469
  134OSM    H3G14550   4.571   6.095   7.127  0.9003 -0.9795 -0.4244
  134OSM    C4F14551   4.666   6.194   7.280 -0.3589 -0.4263 -0.3185
  134OSM    H4F14552   4.700   6.296   7.308 -0.5043  0.2605 -2.5069
  134OSM    H4G14553   4.754   6.128   7.289 -0.9440 -1.4084 -1.5472
  134OSM    C5F14554   4.565   6.137   7.383  0.9272  0.2167 -0.2233
  134OSM    H5F14555   4.499   6.060   7.338 -0.0021  0.1211  1.2321
  134OSM    H5G14556   4.501   6.221   7.417  0.3717  0.2476 -1.3065
  134OSM    C6F14557   4.646   6.078   7.489  0.2596 -0.4715  0.3653
  134OSM    H6F14558   4.725   6.151   7.517  0.1490  0.5564 -1.7890
  134OSM    H6G14559   4.686   5.979   7.456 -0.3354 -0.5188 -0.2365
  134OSM    C7F14560   4.563   6.065   7.625 -0.8359  0.7846  0.0134
  134OSM    H7F14561   4.483   5.996   7.593 -1.2285  0.9627  0.5908
  134OSM    H7G14562   4.512   6.162   7.645  0.2057  2.0608 -2.8355
  134OSM    C8F14563   4.635   6.011   7.751  0.0890  0.6937 -0.3605
  134OSM    H8F14564   4.666   5.905   7.740 -0.0155  0.3881  1.8232
  134OSM    H8G14565   4.548   6.006   7.821  1.2350 -0.9976  1.0322
  134OSM    C9F14566   4.737   6.103   7.805  0.7938 -0.3605  0.4322
  134OSM    H9F14567   4.833   6.099   7.752  0.2594  1.4329 -0.7713
  134OSM   C10F14568   4.724   6.179   7.918  0.4303  0.6658  0.6732
  134OSM   H10F14569   4.802   6.248   7.954 -0.9564  1.1807  2.9038
  134OSM   C11F14570   4.596   6.202   7.991  0.6527  0.0901  0.5783
  134OSM   H11F14571   4.509   6.173   7.929  0.0358 -0.3750  1.6383
  134OSM   H11G14572   4.595   6.314   7.994  2.6787  0.1679 -0.1171
  134OSM   C12F14573   4.593   6.148   8.138  0.1699 -0.3223  0.0181
  134OSM   H12F14574   4.569   6.040   8.137 -1.2801 -0.0486  1.0745
  134OSM   H12G14575   4.509   6.197   8.191 -0.2941 -1.1565  0.0753
  134OSM   C13F14576   4.711   6.197   8.215 -1.2563 -0.0465 -0.5035
  134OSM   H13F14577   4.716   6.308   8.206 -1.9289  0.2147  1.7850
  134OSM   H13G14578   4.800   6.144   8.177  0.1322 -0.2462  2.6924
  134OSM   C14F14579   4.690   6.157   8.360 -0.0701 -0.5119 -0.3618
  134OSM   H14F14580   4.664   6.049   8.352  2.2915 -1.0208 -2.7380
  134OSM   H14G14581   4.607   6.217   8.404  0.1699  0.7239 -1.5127
  134OSM   C15F14582   4.808   6.178   8.459 -0.0818  0.2174  0.0457
  134OSM   H15F14583   4.827   6.287   8.459  0.3356  0.1677 -1.7118
  134OSM   H15G14584   4.902   6.129   8.427  0.0426  0.1173  0.5525
  134OSM   C16F14585   4.760   6.142   8.604  0.2461 -0.3490  0.4395
  134OSM   H16F14586   4.693   6.054   8.595  2.6948 -2.0932 -2.6197
  134OSM   H16G14587   4.706   6.237   8.626  1.1961 -0.2501  2.6809
  134OSM   C17F14588   4.865   6.121   8.713 -0.1135  0.5837  1.4151
  134OSM   H17F14589   4.952   6.185   8.684  1.1443 -0.6981  2.2229
  134OSM   H17G14590   4.892   6.014   8.716  0.3596  0.6817  0.8509
  134OSM   C18F14591   4.814   6.174   8.852  0.2381  0.3585  0.0036
  134OSM   H18F14592   4.897   6.177   8.926 -0.6542  0.3122  1.0340
  134OSM   H18G14593   4.728   6.108   8.877  0.4713 -0.2057 -0.6802
  134OSM   H18H14594   4.782   6.278   8.830  1.4294  0.5389 -0.9412
  135OSM      N14595   3.777   0.224   6.565  0.6992 -0.0864 -0.9357
  135OSM    C1514596   3.842   0.359   6.576 -0.3879 -0.5017 -0.6074
  135OSM   H15A14597   3.790   0.426   6.508  0.0474 -0.4066 -0.8538
  135OSM   H15B14598   3.948   0.360   6.554 -0.5598 -1.7273 -1.6036
  135OSM   H15C14599   3.826   0.401   6.674 -1.6357  1.1150 -1.4495
  135OSM    C1414600   3.629   0.249   6.574  0.6407  0.5759 -0.5321
  135OSM   H14A14601   3.601   0.285   6.672 -0.3497 -1.5922  0.0472
  135OSM   H14B14602   3.579   0.153   6.580  0.6634  0.4516 -2.0758
  135OSM   H14C14603   3.578   0.293   6.490 -0.0435  0.9732  0.0792
  135OSM    C1314604   3.807   0.183   6.422 -0.5599 -0.1978  0.2029
  135OSM   H13A14605   3.902   0.134   6.409 -1.7607 -2.1991 -1.9874
  135OSM   H13B14606   3.794   0.256   6.344  2.1394 -1.0689 -1.1986
  135OSM   H13C14607   3.745   0.099   6.392 -1.7226  1.5091 -2.5656
  135OSM    C1214608   3.821   0.123   6.660  0.0599  0.6200  0.6750
  135OSM   H12A14609   3.830   0.153   6.764  2.2833 -3.2938  1.8133
  135OSM   H12B14610   3.918   0.090   6.625  1.1161  1.2983  2.7718
  135OSM    C1114611   3.729  -0.001   6.675  0.3492 -0.4376  0.0531
  135OSM   H11A14612   3.627   0.028   6.706  1.4004  0.9310  2.4512
  135OSM   H11B14613   3.751  -0.057   6.768 -0.7784 -1.6367 -0.3616
  135OSM      P14614   3.867  -0.176   6.528  0.2551  0.1331  0.2157
  135OSM    O1314615   3.809  -0.284   6.446 -0.3830  0.3478 -0.0743
  135OSM    O1414616   3.975  -0.088   6.472  0.7163  0.4570 -0.4494
  135OSM    O1114617   3.912  -0.235   6.670 -0.3144  0.7758 -0.6144
  135OSM    O1214618   3.740  -0.084   6.561 -0.5373  0.4506  0.0159
  135OSM    C1S14619   4.050  -0.215   6.706  0.4981 -0.1017 -0.2100
  135OSM    H1S14620   4.113  -0.148   6.645 -0.3129 -0.5473 -1.5723
  135OSM    H1T14621   4.097  -0.315   6.697 -0.1568 -0.4575  0.2319
  135OSM     NF14622   4.195  -0.135   6.882 -0.5337  0.2073  0.2561
  135OSM    HNF14623   4.250  -0.204   6.929 -0.1426  1.2406  1.3739
  135OSM    C2S14624   4.063  -0.181   6.859  0.3575  0.0562 -0.8097
  135OSM    H2S14625   3.996  -0.095   6.879  0.9820  0.6059 -1.0330
  135OSM    C3S14626   4.000  -0.293   6.947 -0.0434  0.1982  0.2871
  135OSM    H3S14627   4.049  -0.389   6.920  1.6951  1.5487 -1.6654
  135OSM     O314628   3.861  -0.324   6.934  0.2920  0.3629  0.5112
  135OSM    HO314629   3.838  -0.299   6.844  0.9575 -1.1784 -0.1256
  135OSM    C4S14630   4.016  -0.260   7.092 -0.0564 -0.4851 -0.3689
  135OSM    H4S14631   3.961  -0.170   7.123  2.4373  1.0479 -0.0765
  135OSM    C5S14632   4.100  -0.319   7.179  0.3930  0.3077  0.8720
  135OSM    H5S14633   4.168  -0.398   7.142  0.6559 -0.0485  2.0666
  135OSM    C6S14634   4.130  -0.301   7.330  0.3735  0.7502  0.1295
  135OSM    H6S14635   4.083  -0.209   7.372  1.3634  0.2269  2.5757
  135OSM    H6T14636   4.238  -0.283   7.350 -0.0725  2.7122  1.0022
  135OSM    C7S14637   4.069  -0.419   7.419  0.1404 -0.2221 -0.4783
  135OSM    H7S14638   4.115  -0.519   7.402  1.9495  0.4749  0.1046
  135OSM    H7T14639   3.958  -0.424   7.415  0.1263 -1.9806  0.8079
  135OSM    C8S14640   4.096  -0.393   7.569  0.2360 -0.8085 -0.7231
  135OSM    H8S14641   4.057  -0.471   7.637 -1.5658  1.5580  1.1274
  135OSM    H8T14642   4.045  -0.297   7.595 -0.8811 -0.7133 -2.9764
  135OSM    C9S14643   4.242  -0.385   7.604 -0.3105 -0.1640  0.0370
  135OSM    H9S14644   4.287  -0.293   7.559  0.3619 -0.8180 -0.6483
  135OSM    H9T14645   4.295  -0.477   7.573 -2.4680 -1.0723 -1.1544
  135OSM   C10S14646   4.276  -0.370   7.759  0.0803  0.2788 -0.5562
  135OSM   H10S14647   4.236  -0.270   7.783  0.8590  0.3254  0.5954
  135OSM   H10T14648   4.387  -0.374   7.766  0.0127 -2.1664  0.1165
  135OSM   C11S14649   4.215  -0.478   7.852 -0.1067  0.2144  0.2760
  135OSM   H11S14650   4.262  -0.576   7.824 -0.0106  0.6110 -1.0472
  135OSM   H11T14651   4.106  -0.476   7.831 -0.0929 -0.6133  0.0491
  135OSM   C12S14652   4.229  -0.443   8.002  0.0339  0.4600 -0.2214
  135OSM   H12S14653   4.212  -0.335   8.021 -1.0699 -0.1072  2.5259
  135OSM   H12T14654   4.335  -0.466   8.025 -0.0567 -1.7602 -1.6445
  135OSM   C13S14655   4.149  -0.533   8.099  0.3698 -0.1577  0.2197
  135OSM   H13S14656   4.135  -0.635   8.057  0.5020 -0.1938  0.2620
  135OSM   H13T14657   4.049  -0.487   8.117 -0.4253 -1.7357 -0.0015
  135OSM   C14S14658   4.217  -0.543   8.229  0.4619  0.1327 -0.4395
  135OSM   H14S14659   4.248  -0.442   8.264  1.1029  0.5660 -2.1508
  135OSM   H14T14660   4.308  -0.603   8.209  0.6991  0.4445 -0.2985
  135OSM   C15S14661   4.119  -0.619   8.325  0.2503  0.0092  0.7345
  135OSM   H15S14662   4.091  -0.709   8.266  1.0144  0.3585 -0.1946
  135OSM   H15T14663   4.023  -0.566   8.343 -0.1229 -1.2170  2.5861
  135OSM   C16S14664   4.182  -0.657   8.455  0.5630 -0.5739 -0.2175
  135OSM   H16S14665   4.255  -0.739   8.439 -0.2410 -1.5087  0.8014
  135OSM   H16T14666   4.104  -0.704   8.518 -0.2523 -0.0232 -0.7940
  135OSM   C17S14667   4.234  -0.536   8.527  0.1529  0.3312 -0.4959
  135OSM   H17S14668   4.150  -0.468   8.553  0.3220  1.0206 -1.6477
  135OSM   H17T14669   4.292  -0.475   8.454  0.4580  0.9234  0.2293
  135OSM   C18S14670   4.316  -0.565   8.652 -0.7615 -0.1824 -0.2377
  135OSM   H18S14671   4.407  -0.626   8.630 -1.3677 -0.9058 -0.7815
  135OSM   H18T14672   4.240  -0.611   8.719 -0.8893  1.6475  0.9372
  135OSM   H18U14673   4.349  -0.477   8.710 -1.2000 -0.5989  0.6723
  135OSM    C1F14674   4.251  -0.023   6.836 -0.2185  0.0865  0.0196
  135OSM     OF14675   4.189   0.059   6.773  0.8600  0.1922 -0.1850
  135OSM    C2F14676   4.395   0.003   6.845 -0.2741 -0.2400 -0.4219
  135OSM    H2F14677   4.399   0.114   6.845 -4.3316  0.0953 -2.1412
  135OSM    H2G14678   4.446  -0.043   6.758  2.2031  2.5333 -0.6203
  135OSM    C3F14679   4.458  -0.034   6.987  0.2616  0.2908  0.0976
  135OSM    H3F14680   4.468  -0.144   6.996 -0.5897  0.0726 -1.2738
  135OSM    H3G14681   4.395   0.004   7.070  2.0299 -0.6985  1.9863
  135OSM    C4F14682   4.599   0.020   7.010  0.0685  0.0600 -0.1225
  135OSM    H4F14683   4.591   0.129   7.030 -2.2979  0.3896 -2.4216
  135OSM    H4G14684   4.652   0.000   6.914 -0.2939 -0.7370 -0.1619
  135OSM    C5F14685   4.673  -0.059   7.117  0.4551  0.2761 -0.1598
  135OSM    H5F14686   4.774  -0.016   7.135  0.0383  1.1147  0.2638
  135OSM    H5G14687   4.686  -0.164   7.083 -2.1554 -0.5206  1.0450
  135OSM    C6F14688   4.600  -0.074   7.249 -0.3315  0.5041 -0.9056
  135OSM    H6F14689   4.493  -0.090   7.223 -0.4640 -0.1655  0.0071
  135OSM    H6G14690   4.596   0.010   7.321 -0.0851 -2.1692  2.4272
  135OSM    C7F14691   4.670  -0.176   7.344  0.9891  0.2293  1.3120
  135OSM    H7F14692   4.777  -0.155   7.365  1.2724 -1.1144  1.3361
  135OSM    H7G14693   4.650  -0.268   7.284 -1.8508  2.1915 -1.0525
  135OSM    C8F14694   4.602  -0.171   7.478 -0.2140 -0.5706  0.8218
  135OSM    H8F14695   4.492  -0.158   7.468 -0.0379  2.1595  1.5802
  135OSM    H8G14696   4.640  -0.074   7.518  0.9571 -1.3723  1.7645
  135OSM    C9F14697   4.638  -0.286   7.570  0.2691  0.8171  0.2670
  135OSM    H9F14698   4.600  -0.387   7.549 -0.1085  0.6363  1.7211
  135OSM   C10F14699   4.692  -0.291   7.698  0.4707  0.0611 -0.0048
  135OSM   H10F14700   4.713  -0.389   7.744 -1.4110 -0.7305 -0.7270
  135OSM   C11F14701   4.727  -0.173   7.786  0.2685  0.0130 -0.5442
  135OSM   H11F14702   4.679  -0.086   7.737  0.5097  0.8640  0.6754
  135OSM   H11G14703   4.834  -0.148   7.771 -0.0391  1.2371 -0.7555
  135OSM   C12F14704   4.690  -0.180   7.936 -0.3131 -1.1680  0.3143
  135OSM   H12F14705   4.712  -0.078   7.974 -0.6970 -0.0799 -2.1979
  135OSM   H12G14706   4.744  -0.255   7.997  1.1684  1.3668  2.3576
  135OSM   C13F14707   4.535  -0.189   7.951  0.1171  0.6964  0.0442
  135OSM   H13F14708   4.502  -0.294   7.940  1.6669  0.0918  0.7831
  135OSM   H13G14709   4.488  -0.114   7.884 -2.3995 -0.9529 -0.1535
  135OSM   C14F14710   4.484  -0.145   8.092 -0.4448 -0.5301 -0.1883
  135OSM   H14F14711   4.374  -0.164   8.095 -0.6121  0.5395  1.3160
  135OSM   H14G14712   4.497  -0.036   8.103 -1.0306  0.0304 -3.8118
  135OSM   C15F14713   4.535  -0.217   8.222  0.3144  0.2766 -0.6473
  135OSM   H15F14714   4.645  -0.229   8.227  0.3891  1.2217  0.2974
  135OSM   H15G14715   4.487  -0.316   8.205  0.4261  0.4662 -2.2187
  135OSM   C16F14716   4.490  -0.154   8.349  0.2473  0.1708 -0.0869
  135OSM   H16F14717   4.379  -0.150   8.354  0.2426 -0.9779  1.4537
  135OSM   H16G14718   4.523  -0.048   8.362 -1.2810  0.5974  0.5953
  135OSM   C17F14719   4.530  -0.237   8.474  0.3600 -0.5136 -0.0504
  135OSM   H17F14720   4.640  -0.248   8.468  0.5895  0.5193  1.5797
  135OSM   H17G14721   4.503  -0.345   8.472  1.8309 -0.9187  0.4163
  135OSM   C18F14722   4.470  -0.171   8.602  0.2893 -0.2655  1.0563
  135OSM   H18F14723   4.525  -0.198   8.695 -0.3416 -2.7501  0.7724
  135OSM   H18G14724   4.365  -0.207   8.595  0.9010 -2.3988  1.8206
  135OSM   H18H14725   4.463  -0.061   8.600 -1.5016 -0.3563  0.9181
  136OSM      N14726   1.815   6.719   6.260 -0.1410  0.1408  0.7304
  136OSM    C1514727   1.857   6.710   6.405 -0.7652  0.4362 -0.0333
  136OSM   H15A14728   1.964   6.722   6.414 -0.6540 -0.7700  0.4110
  136OSM   H15B14729   1.838   6.607   6.433  0.7284  0.0114 -0.4531
  136OSM   H15C14730   1.797   6.771   6.471  0.5386  1.4280  0.2815
  136OSM    C1414731   1.673   6.661   6.236 -0.5522  0.5386  0.4921
  136OSM   H14A14732   1.614   6.722   6.303 -2.3590 -2.2161  1.5894
  136OSM   H14B14733   1.653   6.558   6.262  0.1087 -0.2746 -1.9446
  136OSM   H14C14734   1.627   6.697   6.145 -0.0443  1.8911  0.7591
  136OSM    C1314735   1.805   6.859   6.227 -0.2652 -0.1729  0.2352
  136OSM   H13A14736   1.770   6.875   6.126 -1.8485 -1.0938  0.6013
  136OSM   H13B14737   1.898   6.914   6.237  0.3891 -1.4376  1.4387
  136OSM   H13C14738   1.733   6.906   6.293 -0.8318 -0.5939 -0.0790
  136OSM    C1214739   1.906   6.641   6.159 -0.0223 -0.1766  0.1566
  136OSM   H12A14740   1.847   6.615   6.073  0.1292  2.5618 -0.8593
  136OSM   H12B14741   1.942   6.556   6.216  0.4786  0.0062  0.1186
  136OSM    C1114742   2.037   6.717   6.105  0.1841  0.2847  0.1624
  136OSM   H11A14743   2.001   6.812   6.061  2.3129 -0.0051 -2.4846
  136OSM   H11B14744   2.087   6.657   6.026  0.4100  1.4049 -0.5737
  136OSM      P14745   2.196   6.619   6.273  0.1406 -0.1020 -0.2362
  136OSM    O1314746   2.126   6.488   6.261 -0.4513 -0.1006  0.6209
  136OSM    O1414747   2.337   6.617   6.229  0.1783 -0.1112  0.3533
  136OSM    O1114748   2.186   6.640   6.434  0.3579  0.9869  0.5580
  136OSM    O1214749   2.124   6.740   6.216  0.7279 -0.4280  0.4524
  136OSM    C1S14750   2.263   6.750   6.486 -0.4016  0.8470  0.4177
  136OSM    H1S14751   2.240   6.840   6.426 -2.7790 -0.1818 -0.3437
  136OSM    H1T14752   2.370   6.719   6.477 -0.7841 -0.9441  1.4900
  136OSM     NF14753   2.309   6.890   6.678  0.4797  0.1227  0.8664
  136OSM    HNF14754   2.386   6.867   6.737  0.6530 -1.1790  0.1642
  136OSM    C2S14755   2.229   6.780   6.631  0.2856 -0.0500  0.4192
  136OSM    H2S14756   2.123   6.811   6.633  0.7158  1.6116 -0.3696
  136OSM    C3S14757   2.232   6.659   6.727 -0.7693  0.1169 -0.1348
  136OSM    H3S14758   2.331   6.607   6.725 -0.9850 -0.3865  1.1839
  136OSM     O314759   2.130   6.558   6.701  0.0077 -0.4592 -0.2610
  136OSM    HO314760   2.095   6.589   6.617  1.8351  0.7641 -0.6155
  136OSM    C4S14761   2.210   6.700   6.872 -0.0719  0.0063  0.0444
  136OSM    H4S14762   2.142   6.786   6.889 -0.0573 -0.0026  0.1508
  136OSM    C5S14763   2.278   6.651   6.978  0.3023 -0.3470 -0.2334
  136OSM    H5S14764   2.361   6.581   6.958  2.5850  2.4164 -0.9960
  136OSM    C6S14765   2.264   6.686   7.125 -0.1314 -0.2383 -0.0698
  136OSM    H6S14766   2.209   6.782   7.134  0.5492  0.0057  2.2379
  136OSM    H6T14767   2.364   6.704   7.171 -0.5151 -0.3141  0.8279
  136OSM    C7S14768   2.199   6.582   7.221  0.3516  0.1675  0.0710
  136OSM    H7S14769   2.247   6.482   7.218  0.4232  0.1692  0.8835
  136OSM    H7T14770   2.091   6.568   7.201  0.4021  0.6639 -0.5755
  136OSM    C8S14771   2.198   6.644   7.365 -0.8607 -0.1256  0.5197
  136OSM    H8S14772   2.142   6.740   7.369 -0.4626  0.0868  1.1984
  136OSM    H8T14773   2.304   6.671   7.387 -1.0990  1.5100 -0.2425
  136OSM    C9S14774   2.153   6.542   7.470  0.3300  0.7530 -0.2718
  136OSM    H9S14775   2.051   6.510   7.438 -0.7984  1.3558  2.4509
  136OSM    H9T14776   2.129   6.603   7.559  3.1114  0.3581  0.8587
  136OSM   C10S14777   2.258   6.435   7.514  0.1859 -0.0174  1.2705
  136OSM   H10S14778   2.358   6.467   7.551  1.7596 -1.6235 -1.3362
  136OSM   H10T14779   2.280   6.371   7.426 -1.0478 -0.2050  1.0757
  136OSM   C11S14780   2.198   6.334   7.618  0.4758  0.8048  0.1790
  136OSM   H11S14781   2.279   6.260   7.636  1.3313  1.5105 -0.6598
  136OSM   H11T14782   2.122   6.286   7.552  1.0686 -0.2896  0.2856
  136OSM   C12S14783   2.142   6.389   7.751 -0.2047 -0.1304 -0.1249
  136OSM   H12S14784   2.053   6.456   7.740 -1.2473 -1.3283  0.7401
  136OSM   H12T14785   2.228   6.434   7.805 -1.6507  0.8485  1.4702
  136OSM   C13S14786   2.105   6.275   7.847  0.0189 -0.6913  0.2337
  136OSM   H13S14787   2.190   6.203   7.848 -0.2433 -1.0192 -0.1663
  136OSM   H13T14788   2.015   6.222   7.809 -0.1665 -0.9602  1.0389
  136OSM   C14S14789   2.070   6.325   7.991 -0.0583 -0.0623  0.0984
  136OSM   H14S14790   1.968   6.368   7.988  0.0523  0.1488 -1.6607
  136OSM   H14T14791   2.140   6.402   8.028  0.7577 -1.4213  1.4755
  136OSM   C15S14792   2.082   6.212   8.090 -0.7265 -0.4300 -0.0975
  136OSM   H15S14793   2.183   6.168   8.076 -0.2862  0.8176 -1.0918
  136OSM   H15T14794   2.005   6.136   8.064 -0.1077 -1.0427 -0.1905
  136OSM   C16S14795   2.055   6.244   8.236  0.5679 -0.0371 -0.1963
  136OSM   H16S14796   2.131   6.313   8.280 -2.2719  2.5772  1.0475
  136OSM   H16T14797   2.054   6.152   8.298 -0.8135 -0.1292 -0.3160
  136OSM   C17S14798   1.916   6.309   8.259  0.1399 -0.6322  0.9240
  136OSM   H17S14799   1.834   6.236   8.239  0.2622 -0.7742  0.9361
  136OSM   H17T14800   1.904   6.387   8.181  4.7819 -1.0554 -0.4786
  136OSM   C18S14801   1.879   6.370   8.395 -0.1258 -0.6558  0.5229
  136OSM   H18S14802   1.918   6.303   8.475  1.1207  1.4990  1.8285
  136OSM   H18T14803   1.771   6.395   8.409  0.1000  0.8312 -0.1477
  136OSM   H18U14804   1.940   6.460   8.418 -0.4730  0.0342 -1.1609
  136OSM    C1F14805   2.279   7.010   6.635 -0.2761  0.6083  0.5412
  136OSM     OF14806   2.179   7.023   6.567 -0.0964  0.5579  0.2870
  136OSM    C2F14807   2.361   7.119   6.674  0.4058 -0.0477  0.2279
  136OSM    H2F14808   2.417   7.145   6.582 -1.7945  2.1734 -0.5789
  136OSM    H2G14809   2.428   7.078   6.753 -2.8655 -2.3775  2.0560
  136OSM    C3F14810   2.277   7.248   6.710  0.5837 -0.3914  0.2578
  136OSM    H3F14811   2.207   7.271   6.627 -0.9419 -0.9303  1.3420
  136OSM    H3G14812   2.353   7.328   6.726 -0.3770  0.5470  0.2925
  136OSM    C4F14813   2.186   7.229   6.836 -0.1655 -0.5292  0.7485
  136OSM    H4F14814   2.233   7.158   6.907  2.3175  1.6981  1.4823
  136OSM    H4G14815   2.089   7.179   6.811  0.4876 -2.7926  2.4626
  136OSM    C5F14816   2.177   7.358   6.916 -0.1358 -0.0610 -0.6298
  136OSM    H5F14817   2.279   7.387   6.950 -1.3160  3.1781  0.5248
  136OSM    H5G14818   2.112   7.339   7.003 -0.0448 -0.5864 -0.6755
  136OSM    C6F14819   2.132   7.483   6.832 -0.1201 -0.4773  0.0453
  136OSM    H6F14820   2.194   7.507   6.743 -2.2090 -0.8839 -1.5811
  136OSM    H6G14821   2.138   7.574   6.896  0.2012  0.7544 -1.6480
  136OSM    C7F14822   1.991   7.466   6.769  0.4270  0.5037  0.5341
  136OSM    H7F14823   1.994   7.367   6.720 -0.7719 -0.3238  2.0447
  136OSM    H7G14824   1.971   7.542   6.691 -3.4271  1.3563  2.0602
  136OSM    C8F14825   1.878   7.467   6.873 -0.6437 -0.4706  0.1899
  136OSM    H8F14826   1.903   7.427   6.973 -0.2980 -1.0122 -0.1078
  136OSM    H8G14827   1.790   7.410   6.835 -0.2847 -0.0011 -1.4572
  136OSM    C9F14828   1.844   7.606   6.901 -0.7318  0.0796  0.2451
  136OSM    H9F14829   1.821   7.660   6.808  0.5382  0.0635 -0.0950
  136OSM   C10F14830   1.835   7.662   7.023  0.7553 -0.0454 -0.0089
  136OSM   H10F14831   1.823   7.771   7.020 -0.3996 -0.1654 -2.8589
  136OSM   C11F14832   1.858   7.600   7.156 -0.3855 -0.0517  0.1943
  136OSM   H11F14833   1.808   7.501   7.151  1.8530 -1.2065 -1.1592
  136OSM   H11G14834   1.796   7.667   7.220  0.7589  0.3798  0.8891
  136OSM   C12F14835   2.009   7.602   7.205  0.2270 -0.2001  0.1460
  136OSM   H12F14836   2.044   7.708   7.205  0.1465 -0.1724 -0.0347
  136OSM   H12G14837   2.069   7.542   7.133 -0.9912 -0.8153 -0.3859
  136OSM   C13F14838   2.040   7.552   7.344  0.6724 -0.1057 -0.4369
  136OSM   H13F14839   1.990   7.619   7.417  2.2438  1.0970 -0.4029
  136OSM   H13G14840   2.150   7.556   7.363  0.2125  1.0129  2.5227
  136OSM   C14F14841   1.986   7.411   7.377 -0.5336  0.5695 -0.7374
  136OSM   H14F14842   2.008   7.336   7.298  1.3834 -0.5876  0.7915
  136OSM   H14G14843   1.875   7.412   7.389 -0.4527 -2.3770  1.4620
  136OSM   C15F14844   2.041   7.351   7.505  0.0483 -0.0961 -0.7516
  136OSM   H15F14845   2.152   7.341   7.500  0.0751  0.6947 -2.4165
  136OSM   H15G14846   2.002   7.247   7.512 -1.2831  0.4210 -0.1962
  136OSM   C16F14847   1.990   7.431   7.629  0.0026  0.5216  0.3519
  136OSM   H16F14848   1.883   7.454   7.607  0.4430  2.0395 -0.4149
  136OSM   H16G14849   2.046   7.527   7.639  2.1109 -0.8805  3.7154
  136OSM   C17F14850   2.016   7.358   7.759  0.2392  0.5222 -0.6587
  136OSM   H17F14851   2.123   7.339   7.784 -0.4034 -2.1644  0.4622
  136OSM   H17G14852   1.971   7.257   7.751 -0.6074  0.8420 -0.0192
  136OSM   C18F14853   1.957   7.426   7.882  0.1947 -0.2825 -0.3711
  136OSM   H18F14854   1.970   7.369   7.977 -0.2097  0.0564 -0.1058
  136OSM   H18G14855   1.847   7.439   7.875 -0.0486 -0.1815  2.3364
  136OSM   H18H14856   2.000   7.529   7.888 -1.7561  0.5574 -0.1586
  137OSM      N14857   5.753   5.861   6.128 -0.3070 -0.4480  0.4688
  137OSM    C1514858   5.866   5.917   6.207  0.3578 -0.2386  1.1210
  137OSM   H15A14859   5.849   6.007   6.263 -0.2693 -1.5886  3.2346
  137OSM   H15B14860   5.950   5.932   6.140  0.8835 -0.9785  1.5940
  137OSM   H15C14861   5.895   5.833   6.269  0.7337  0.4197  1.8469
  137OSM    C1414862   5.719   5.958   6.015  0.5977 -0.3015  0.1709
  137OSM   H14A14863   5.625   5.925   5.972  0.1660  0.0895  0.7888
  137OSM   H14B14864   5.799   5.953   5.943  1.8914 -1.1185  1.6037
  137OSM   H14C14865   5.712   6.060   6.052  1.1947  0.0206 -0.5873
  137OSM    C1314866   5.789   5.726   6.073  0.1980 -0.1104  0.1501
  137OSM   H13A14867   5.881   5.740   6.019  0.1412  2.6672  0.6278
  137OSM   H13B14868   5.702   5.693   6.018 -0.9707  1.1559  1.1768
  137OSM   H13C14869   5.819   5.659   6.152 -1.1954  0.1243  0.9080
  137OSM    C1214870   5.633   5.847   6.223  0.7535  1.1825  0.2254
  137OSM   H12A14871   5.544   5.853   6.162  0.1683  0.9464  1.0405
  137OSM   H12B14872   5.635   5.938   6.280  0.3133  1.0624  0.4366
  137OSM    C1114873   5.621   5.719   6.307  0.5828  0.2089  0.4207
  137OSM   H11A14874   5.708   5.709   6.375 -0.0565 -0.6739  1.1324
  137OSM   H11B14875   5.628   5.625   6.248 -1.5980  1.3373 -1.8225
  137OSM      P14876   5.476   5.815   6.502 -0.1074 -0.3663 -0.2251
  137OSM    O1314877   5.570   5.927   6.487 -0.4329 -0.0686  0.0518
  137OSM    O1414878   5.334   5.859   6.498  0.1214  0.3922 -0.1590
  137OSM    O1114879   5.507   5.733   6.632  0.5914  0.3471  0.5068
  137OSM    O1214880   5.500   5.717   6.383 -0.0484 -0.1321  0.3443
  137OSM    C1S14881   5.600   5.794   6.721 -0.5030  0.2405 -0.7500
  137OSM    H1S14882   5.646   5.893   6.699 -2.2429  1.0759 -0.7680
  137OSM    H1T14883   5.677   5.721   6.755  1.4517  2.8282  0.7519
  137OSM     NF14884   5.616   5.872   6.964  0.0282  0.8427  1.0632
  137OSM    HNF14885   5.636   5.818   7.046 -0.3335 -0.4043  0.3548
  137OSM    C2S14886   5.527   5.811   6.858 -0.3331 -0.0849 -0.0014
  137OSM    H2S14887   5.447   5.886   6.839  0.3595  0.4043 -1.0801
  137OSM    C3S14888   5.462   5.675   6.898  0.1894  0.4876 -0.2608
  137OSM    H3S14889   5.542   5.598   6.890  1.5882  1.7799  0.6258
  137OSM     O314890   5.359   5.618   6.816  0.4372  0.4204 -0.0530
  137OSM    HO314891   5.372   5.658   6.730  2.4668  1.6034  0.7336
  137OSM    C4S14892   5.414   5.686   7.045 -0.5326  0.3219  0.9292
  137OSM    H4S14893   5.486   5.651   7.120  0.2906 -1.4803 -0.6251
  137OSM    C5S14894   5.293   5.723   7.086 -0.8623 -0.2582  0.1659
  137OSM    H5S14895   5.215   5.741   7.010  1.0358 -1.3240 -2.1700
  137OSM    C6S14896   5.232   5.736   7.224 -0.3164  0.2901  0.0405
  137OSM    H6S14897   5.171   5.649   7.256 -0.1115 -0.4038 -1.3655
  137OSM    H6T14898   5.179   5.834   7.234  1.3261  1.1977  0.1442
  137OSM    C7S14899   5.339   5.721   7.336  0.0882 -0.5050 -0.2017
  137OSM    H7S14900   5.405   5.810   7.337  0.3725 -0.6181 -2.7371
  137OSM    H7T14901   5.394   5.627   7.317  1.3048  0.0570  0.3979
  137OSM    C8S14902   5.276   5.726   7.478 -0.1409 -0.0695  0.2044
  137OSM    H8S14903   5.212   5.636   7.491 -0.7628  0.3065 -0.1757
  137OSM    H8T14904   5.204   5.810   7.483  0.8043  0.7587  0.1789
  137OSM    C9S14905   5.380   5.746   7.581 -0.2000 -0.2509 -0.0565
  137OSM    H9S14906   5.419   5.849   7.564 -0.4574 -0.1260  0.1112
  137OSM    H9T14907   5.466   5.676   7.576 -1.0500 -1.2510 -2.9221
  137OSM   C10S14908   5.328   5.731   7.720 -0.5178 -0.1530  0.2415
  137OSM   H10S14909   5.308   5.623   7.735 -1.5205 -0.0110 -0.0035
  137OSM   H10T14910   5.231   5.786   7.725 -0.1885  0.5663 -0.8708
  137OSM   C11S14911   5.420   5.781   7.821  0.2957 -0.0745 -0.5278
  137OSM   H11S14912   5.406   5.891   7.827  2.8601  0.4054 -1.9142
  137OSM   H11T14913   5.519   5.786   7.772 -0.6173 -0.4343 -2.5098
  137OSM   C12S14914   5.404   5.706   7.951 -0.1028  0.7012  0.0720
  137OSM   H12S14915   5.435   5.600   7.936 -0.4878  0.4931  0.7188
  137OSM   H12T14916   5.297   5.706   7.980 -0.7210  2.9809 -1.8904
  137OSM   C13S14917   5.488   5.763   8.069  0.1771  0.1946  0.8823
  137OSM   H13S14918   5.460   5.870   8.070  0.1612  0.1920  0.5856
  137OSM   H13T14919   5.597   5.760   8.048 -0.0919  1.4107 -0.8162
  137OSM   C14S14920   5.467   5.689   8.204  0.6030  0.6313  0.9011
  137OSM   H14S14921   5.461   5.579   8.188 -4.8425  0.5696  1.5625
  137OSM   H14T14922   5.364   5.717   8.233  0.6019  0.4568  1.0631
  137OSM   C15S14923   5.567   5.730   8.312 -0.2183  0.0193 -0.3474
  137OSM   H15S14924   5.557   5.838   8.336 -0.4799 -0.0748 -0.0185
  137OSM   H15T14925   5.667   5.723   8.263  0.4018  1.8046  0.6047
  137OSM   C16S14926   5.559   5.644   8.440 -0.2767  0.0354 -0.4240
  137OSM   H16S14927   5.606   5.547   8.414 -1.5408 -1.0416  1.0760
  137OSM   H16T14928   5.453   5.621   8.463  0.0060  0.0843  1.0732
  137OSM   C17S14929   5.640   5.701   8.558 -0.6432 -0.8835 -0.3602
  137OSM   H17S14930   5.594   5.798   8.586 -0.2198 -0.6437 -0.4843
  137OSM   H17T14931   5.744   5.727   8.526 -1.1874  3.0039  0.5146
  137OSM   C18S14932   5.649   5.603   8.679  0.5563 -0.0700  0.5394
  137OSM   H18S14933   5.555   5.584   8.735 -1.1374  1.6610 -1.4944
  137OSM   H18T14934   5.723   5.629   8.758  0.0039  1.2544  0.6594
  137OSM   H18U14935   5.682   5.507   8.634 -0.1844  1.0617 -2.7405
  137OSM    C1F14936   5.676   5.993   6.953  0.2755  0.2667  0.8921
  137OSM     OF14937   5.673   6.054   6.845  0.1202  0.1844 -0.8056
  137OSM    C2F14938   5.761   6.045   7.060 -0.5349  1.0421  0.8347
  137OSM    H2F14939   5.855   5.987   7.053 -1.5635 -0.4987 -1.7204
  137OSM    H2G14940   5.709   6.024   7.156  1.8374  0.3027  2.0356
  137OSM    C3F14941   5.790   6.203   7.065  0.4594 -0.4559 -0.4426
  137OSM    H3F14942   5.698   6.259   7.092  0.2427 -0.3920 -1.2642
  137OSM    H3G14943   5.821   6.236   6.963  0.8424 -0.9755 -0.4944
  137OSM    C4F14944   5.898   6.243   7.170 -0.0106  0.3425  0.6934
  137OSM    H4F14945   5.920   6.350   7.146  2.8456 -0.2300  0.4005
  137OSM    H4G14946   5.993   6.187   7.157  0.4266  1.2914 -0.3745
  137OSM    C5F14947   5.847   6.243   7.312  0.2744  0.6473 -0.1338
  137OSM    H5F14948   5.794   6.147   7.332 -0.7959  1.2900  0.2167
  137OSM    H5G14949   5.770   6.322   7.323 -0.5616 -0.1538 -0.0740
  137OSM    C6F14950   5.969   6.273   7.407 -0.3626  0.4569 -0.2013
  137OSM    H6F14951   6.028   6.360   7.370  1.4550 -1.1532 -1.2336
  137OSM    H6G14952   6.040   6.188   7.407 -0.3271  0.4461  1.4842
  137OSM    C7F14953   5.925   6.300   7.558  0.1348  0.4108  0.3474
  137OSM    H7F14954   5.887   6.200   7.591 -0.2966  0.0625 -1.1136
  137OSM    H7G14955   5.837   6.368   7.560 -1.9928 -2.1892  1.5553
  137OSM    C8F14956   6.042   6.351   7.638  0.2327 -1.0668 -0.2371
  137OSM    H8F14957   6.001   6.428   7.706 -0.3723 -1.4373 -0.1835
  137OSM    H8G14958   6.112   6.406   7.571 -0.5048 -1.0472 -1.0033
  137OSM    C9F14959   6.127   6.245   7.709 -0.8858 -0.7198  0.2664
  137OSM    H9F14960   6.190   6.197   7.633 -0.6274  1.1088 -0.7472
  137OSM   C10F14961   6.132   6.218   7.841  0.3343  0.7002 -0.3981
  137OSM   H10F14962   6.195   6.136   7.879  1.3692  1.6745  0.0478
  137OSM   C11F14963   6.050   6.289   7.939 -0.3168  0.4676 -0.6868
  137OSM   H11F14964   6.009   6.212   8.009  0.1341 -0.6326 -1.5991
  137OSM   H11G14965   5.963   6.344   7.898 -0.9120  0.4694  0.5126
  137OSM   C12F14966   6.134   6.385   8.024 -0.4857 -0.1785 -0.1406
  137OSM   H12F14967   6.159   6.474   7.962 -1.7505 -0.3289 -0.9121
  137OSM   H12G14968   6.229   6.346   8.066 -0.2471  0.1561 -0.3649
  137OSM   C13F14969   6.060   6.440   8.144 -0.0263  0.2478 -0.7766
  137OSM   H13F14970   6.007   6.359   8.199 -0.0183 -0.6509 -2.0540
  137OSM   H13G14971   5.971   6.489   8.097 -1.4849 -2.1986 -0.7767
  137OSM   C14F14972   6.140   6.533   8.238  0.3958  0.2062 -0.0150
  137OSM   H14F14973   6.232   6.481   8.271  0.3992 -0.1625 -0.5842
  137OSM   H14G14974   6.064   6.548   8.317 -1.1757 -1.1759 -1.1631
  137OSM   C15F14975   6.171   6.668   8.177  0.1820  0.4121  0.2501
  137OSM   H15F14976   6.081   6.713   8.130  0.0921 -1.6276 -1.6739
  137OSM   H15G14977   6.245   6.644   8.097 -3.2590 -3.4630 -2.1162
  137OSM   C16F14978   6.241   6.771   8.267  0.2853  0.1446  0.0957
  137OSM   H16F14979   6.323   6.710   8.310  2.1167  0.5258 -2.6663
  137OSM   H16G14980   6.168   6.793   8.349  0.0936  0.4367 -0.1519
  137OSM   C17F14981   6.297   6.904   8.198 -0.5387 -0.0757 -0.6494
  137OSM   H17F14982   6.338   6.958   8.286 -0.2678 -1.2576 -0.0294
  137OSM   H17G14983   6.209   6.960   8.159 -2.5591 -1.8219  1.0859
  137OSM   C18F14984   6.401   6.881   8.098 -0.6325 -0.1660  0.1105
  137OSM   H18F14985   6.349   6.852   8.004  1.0858 -1.9002 -0.3766
  137OSM   H18G14986   6.479   6.804   8.118 -1.0406  0.1330  3.2704
  137OSM   H18H14987   6.450   6.979   8.084 -1.3068  0.5385  2.3243
  138OSM      N14988   6.316   1.915   6.077  0.8895  0.3843  0.4355
  138OSM    C1514989   6.245   1.818   6.157 -0.5784  0.0921 -0.0684
  138OSM   H15A14990   6.156   1.860   6.202 -0.7176 -1.3847  1.1056
  138OSM   H15B14991   6.306   1.796   6.243  2.0357  0.1301 -1.8030
  138OSM   H15C14992   6.219   1.734   6.096 -0.9586  0.2145 -0.0742
  138OSM    C1414993   6.425   1.852   5.993 -0.1960 -0.4679  0.0388
  138OSM   H14A14994   6.392   1.767   5.935 -0.9426  0.5725 -1.1042
  138OSM   H14B14995   6.495   1.806   6.062  0.2687  1.2537  0.7892
  138OSM   H14C14996   6.466   1.930   5.932  1.0478 -0.9716  0.1983
  138OSM    C1314997   6.228   1.967   5.969 -0.2065 -0.0733 -0.3163
  138OSM   H13A14998   6.274   2.039   5.902  1.6583  1.4205  2.3821
  138OSM   H13B14999   6.140   2.017   6.008 -2.0228 -2.8596 -0.5788
  138OSM   H13C15000   6.195   1.893   5.897  0.6126 -0.4166 -0.3491
  138OSM    C1215001   6.387   2.024   6.151 -0.0996 -0.1019  0.5394
  138OSM   H12A15002   6.431   2.092   6.079  0.6877 -1.5960 -0.4297
  138OSM   H12B15003   6.476   1.982   6.196  1.4672  0.2882 -1.9870
  138OSM    C1115004   6.297   2.110   6.245 -0.7398 -0.3629  0.2411
  138OSM   H11A15005   6.374   2.175   6.291  0.8119 -1.2868 -0.9553
  138OSM   H11B15006   6.257   2.039   6.322  2.0333 -2.6343 -0.2571
  138OSM      P15007   6.224   2.326   6.113 -0.0991  0.2512 -0.2583
  138OSM    O1315008   6.371   2.355   6.107  0.2254 -0.0834  0.3591
  138OSM    O1415009   6.144   2.350   5.990 -0.1510 -0.2549 -0.2796
  138OSM    O1115010   6.170   2.423   6.224 -0.0626  0.0857  0.1188
  138OSM    O1215011   6.197   2.182   6.176 -0.3936  0.4624  0.3837
  138OSM    C1S15012   6.046   2.391   6.294 -0.4785 -0.7042 -0.0040
  138OSM    H1S15013   5.998   2.296   6.263 -1.1025 -0.0804 -1.0332
  138OSM    H1T15014   5.968   2.466   6.267 -0.0655 -0.5565 -0.8074
  138OSM     NF15015   5.925   2.401   6.505 -0.0177 -0.2001 -0.2054
  138OSM    HNF15016   5.902   2.487   6.549 -2.4760 -0.6772 -0.4011
  138OSM    C2S15017   6.060   2.391   6.450 -0.7544 -0.1668 -0.2603
  138OSM    H2S15018   6.091   2.284   6.459 -0.8360 -0.3200 -1.6724
  138OSM    C3S15019   6.164   2.499   6.507  0.2688  0.0863  0.1167
  138OSM    H3S15020   6.118   2.600   6.502  0.6134  0.2561  0.3641
  138OSM     O315021   6.285   2.513   6.435 -0.1967 -0.1170  0.6327
  138OSM    HO315022   6.253   2.488   6.348  0.6332 -0.9458  0.5445
  138OSM    C4S15023   6.192   2.470   6.657 -0.8397 -0.0898 -0.1646
  138OSM    H4S15024   6.104   2.489   6.720 -0.8991 -0.8083 -0.0233
  138OSM    C5S15025   6.304   2.420   6.711  0.1370  0.1786  0.5422
  138OSM    H5S15026   6.383   2.385   6.643 -0.7746 -1.0383  0.0694
  138OSM    C6S15027   6.316   2.386   6.854 -0.3489  0.2573  0.6390
  138OSM    H6S15028   6.404   2.321   6.872 -0.3002 -0.0289 -0.5687
  138OSM    H6T15029   6.221   2.349   6.898  0.9005 -0.8072  2.5615
  138OSM    C7S15030   6.340   2.494   6.963  0.3939 -0.1889 -0.1952
  138OSM    H7S15031   6.240   2.538   6.979  0.9789  0.6365  1.4652
  138OSM    H7T15032   6.414   2.569   6.927 -1.8342  1.8864 -0.6655
  138OSM    C8S15033   6.378   2.430   7.098  0.3921 -0.0721 -0.3023
  138OSM    H8S15034   6.488   2.419   7.085  0.4164  0.5020 -0.6497
  138OSM    H8T15035   6.324   2.334   7.109 -1.9230  1.2857  0.9857
  138OSM    C9S15036   6.340   2.513   7.224  0.0870  0.3362 -0.0873
  138OSM    H9S15037   6.240   2.557   7.207  0.1546  0.2340 -0.7525
  138OSM    H9T15038   6.418   2.589   7.247 -2.2854  2.4838  1.4491
  138OSM   C10S15039   6.335   2.430   7.358  0.2844  0.5940 -0.7216
  138OSM   H10S15040   6.433   2.381   7.373  0.2177  0.8039  0.4656
  138OSM   H10T15041   6.261   2.347   7.346  2.1733 -1.4700  1.0683
  138OSM   C11S15042   6.310   2.510   7.475  0.1568 -0.6495 -0.1219
  138OSM   H11S15043   6.211   2.560   7.476 -0.5822 -1.9885  2.6751
  138OSM   H11T15044   6.380   2.596   7.470  1.7672 -1.9680 -1.5583
  138OSM   C12S15045   6.325   2.435   7.613 -0.8852 -0.4273 -0.3103
  138OSM   H12S15046   6.430   2.402   7.620 -0.8747 -0.1187  1.4816
  138OSM   H12T15047   6.252   2.351   7.612 -3.7209  1.8325  0.5633
  138OSM   C13S15048   6.307   2.515   7.738 -0.0234  0.1539 -0.2713
  138OSM   H13S15049   6.198   2.535   7.744 -0.3101 -0.5234 -2.4529
  138OSM   H13T15050   6.362   2.611   7.733 -0.4579  0.3954 -0.5004
  138OSM   C14S15051   6.338   2.440   7.865  0.3833  0.8968 -0.3335
  138OSM   H14S15052   6.430   2.389   7.830  0.8507  0.9977  0.7132
  138OSM   H14T15053   6.261   2.363   7.886 -0.2911  2.0257  1.5746
  138OSM   C15S15054   6.336   2.521   7.998 -0.2769 -0.0001 -0.7173
  138OSM   H15S15055   6.232   2.528   8.037 -0.6773 -1.0810 -1.5082
  138OSM   H15T15056   6.385   2.616   7.968  0.0077  0.7364  1.8705
  138OSM   C16S15057   6.414   2.443   8.101  0.2467 -0.7456 -0.1578
  138OSM   H16S15058   6.514   2.414   8.060  0.0751  1.1844 -2.0692
  138OSM   H16T15059   6.371   2.341   8.112  1.5424 -1.4548 -1.2672
  138OSM   C17S15060   6.432   2.507   8.237  0.0812 -0.0886 -0.1935
  138OSM   H17S15061   6.330   2.525   8.276  1.1508  1.6691  1.9883
  138OSM   H17T15062   6.478   2.606   8.219  0.0946  0.0120  0.3824
  138OSM   C18S15063   6.507   2.423   8.345 -0.3730  0.4000  0.0803
  138OSM   H18S15064   6.529   2.489   8.431  2.6030 -1.4490  0.8733
  138OSM   H18T15065   6.597   2.369   8.311  1.1307  1.2369  2.5154
  138OSM   H18U15066   6.442   2.338   8.377 -0.5280 -0.3119 -1.9903
  138OSM    C1F15067   5.836   2.296   6.485 -0.3161 -0.1523  0.4466
  138OSM     OF15068   5.864   2.190   6.431  0.1121 -1.2115  0.5380
  138OSM    C2F15069   5.690   2.320   6.522  0.1003 -0.4950 -0.3172
  138OSM    H2F15070   5.617   2.318   6.438 -0.5405 -0.4938  0.2353
  138OSM    H2G15071   5.694   2.428   6.546 -0.4552 -0.4001 -0.6312
  138OSM    C3F15072   5.653   2.219   6.635  0.1647 -0.2667 -0.6618
  138OSM    H3F15073   5.670   2.119   6.590 -1.8054 -0.6239 -0.6868
  138OSM    H3G15074   5.548   2.224   6.671  1.3409  1.6674  2.9467
  138OSM    C4F15075   5.748   2.231   6.757  0.1772  0.0067  0.2481
  138OSM    H4F15076   5.844   2.183   6.728 -0.4008 -0.6336 -0.6796
  138OSM    H4G15077   5.702   2.171   6.839 -0.6685 -0.6982 -0.7147
  138OSM    C5F15078   5.775   2.373   6.814 -0.6573  0.2296  0.6633
  138OSM    H5F15079   5.672   2.409   6.833 -0.9633 -0.3562  0.1519
  138OSM    H5G15080   5.820   2.436   6.735 -2.0760  0.8224  0.2958
  138OSM    C6F15081   5.864   2.373   6.940  0.0590 -0.2096 -0.2364
  138OSM    H6F15082   5.912   2.473   6.949  1.4114 -0.8756  0.2363
  138OSM    H6G15083   5.942   2.298   6.920  0.4636 -0.1427  0.9672
  138OSM    C7F15084   5.791   2.331   7.070 -0.3231 -0.1188  0.2634
  138OSM    H7F15085   5.759   2.225   7.068 -0.1987 -0.3481  3.6107
  138OSM    H7G15086   5.700   2.394   7.081 -1.2251 -1.3566  0.0832
  138OSM    C8F15087   5.885   2.330   7.189 -0.7792  0.1083  0.2558
  138OSM    H8F15088   5.986   2.287   7.171 -0.7914  0.1301  0.1349
  138OSM    H8G15089   5.844   2.255   7.259 -0.1380  0.5954  1.1755
  138OSM    C9F15090   5.904   2.459   7.260  0.0994  0.0706 -0.7838
  138OSM    H9F15091   5.900   2.542   7.188  0.3412  0.0974 -0.7673
  138OSM   C10F15092   5.888   2.480   7.393  0.8798 -0.1993 -0.0580
  138OSM   H10F15093   5.892   2.581   7.437 -0.3538 -0.2087  0.1017
  138OSM   C11F15094   5.853   2.380   7.499 -0.0402 -0.1552  0.2469
  138OSM   H11F15095   5.942   2.313   7.498 -0.2848 -0.5598  2.0897
  138OSM   H11G15096   5.764   2.320   7.471  0.2581  0.2177 -1.6311
  138OSM   C12F15097   5.841   2.429   7.642  0.0769 -0.0660  1.0471
  138OSM   H12F15098   5.769   2.513   7.652  0.1097  0.1998 -0.6258
  138OSM   H12G15099   5.941   2.475   7.662 -0.5674  2.8899 -1.5932
  138OSM   C13F15100   5.810   2.314   7.733  0.0105  0.4491 -0.0576
  138OSM   H13F15101   5.871   2.225   7.706 -1.1570 -0.3462 -0.1393
  138OSM   H13G15102   5.707   2.282   7.706  0.0159  1.0498 -0.8247
  138OSM   C14F15103   5.811   2.348   7.885  0.3987 -0.4360 -0.6577
  138OSM   H14F15104   5.766   2.260   7.936 -0.7767 -0.5965 -1.9185
  138OSM   H14G15105   5.748   2.438   7.903 -2.0145 -2.1994  0.3452
  138OSM   C15F15106   5.949   2.355   7.952 -0.0759  0.4668 -0.4734
  138OSM   H15F15107   5.978   2.461   7.971 -2.4821  1.4175 -1.7076
  138OSM   H15G15108   6.033   2.318   7.890  1.8879  0.9591  1.7407
  138OSM   C16F15109   5.965   2.271   8.081 -0.1550 -0.0636 -0.4683
  138OSM   H16F15110   5.935   2.167   8.057  0.3723 -0.4022  0.3198
  138OSM   H16G15111   5.886   2.301   8.153  0.6080 -1.2698  0.9110
  138OSM   C17F15112   6.100   2.268   8.136 -0.8517  0.1059 -0.2431
  138OSM   H17F15113   6.126   2.373   8.158 -0.5858 -0.2685  1.3714
  138OSM   H17G15114   6.175   2.247   8.057 -1.0823  2.4578 -1.1455
  138OSM   C18F15115   6.127   2.185   8.263  0.1157 -0.0354  0.0073
  138OSM   H18F15116   6.056   2.210   8.345  0.9281  2.1120  0.1282
  138OSM   H18G15117   6.228   2.212   8.301  0.2847  1.5681 -1.4237
  138OSM   H18H15118   6.131   2.079   8.230  0.1618  0.5731 -2.0832
  139OSM      N15119   4.475   2.024   6.152  0.1558  0.0327  0.0863
  139OSM    C1515120   4.507   2.006   6.295 -0.2095 -0.6514 -0.1042
  139OSM   H15A15121   4.587   2.072   6.325 -1.1702  0.1753  0.7107
  139OSM   H15B15122   4.521   1.906   6.331  1.4725 -0.2070  0.5728
  139OSM   H15C15123   4.426   2.037   6.359  0.0137 -2.7496  1.2917
  139OSM    C1415124   4.338   1.972   6.137  0.9591  0.0139 -0.6269
  139OSM   H14A15125   4.324   1.868   6.162 -0.3623 -0.0754 -1.6222
  139OSM   H14B15126   4.301   1.987   6.036 -0.0156  2.2095 -0.0043
  139OSM   H14C15127   4.265   2.016   6.203 -0.8372  1.3099 -3.3027
  139OSM    C1315128   4.478   2.172   6.115  0.7411 -0.1942  0.2150
  139OSM   H13A15129   4.399   2.217   6.175 -1.4806  0.2590 -2.7901
  139OSM   H13B15130   4.456   2.190   6.011 -3.0327  1.2427  1.0722
  139OSM   H13C15131   4.575   2.210   6.143  0.4886  0.6959 -0.0849
  139OSM    C1215132   4.574   1.946   6.068  0.2065 -0.1965 -0.4804
  139OSM   H12A15133   4.536   1.939   5.967 -0.2667 -0.5778 -0.2812
  139OSM   H12B15134   4.565   1.844   6.102 -1.8728  0.8751  2.6735
  139OSM    C1115135   4.719   1.995   6.070  0.0105 -0.5618  0.0836
  139OSM   H11A15136   4.722   2.087   6.008  0.8624  0.5325  1.7050
  139OSM   H11B15137   4.783   1.925   6.012 -2.6685 -0.8115 -2.8555
  139OSM      P15138   4.905   2.107   6.197  0.0969  0.0644  0.0896
  139OSM    O1315139   5.027   2.027   6.160  0.6900 -0.1652 -0.8537
  139OSM    O1415140   4.893   2.224   6.105  0.1280  0.6783 -0.3921
  139OSM    O1115141   4.902   2.162   6.344 -1.1886 -0.6836 -0.0609
  139OSM    O1215142   4.770   2.016   6.194 -0.0156 -0.3518 -0.0862
  139OSM    C1S15143   4.787   2.158   6.431  0.8525  0.8094  0.4849
  139OSM    H1S15144   4.755   2.052   6.446  0.0641  0.8789 -0.5936
  139OSM    H1T15145   4.702   2.223   6.403 -1.2235 -1.0556  2.0600
  139OSM     NF15146   4.708   2.199   6.655 -0.2898 -0.0603 -0.5333
  139OSM    HNF15147   4.666   2.289   6.667  0.5665  0.4942 -1.5355
  139OSM    C2S15148   4.824   2.199   6.573  0.2360 -0.8718  0.2052
  139OSM    H2S15149   4.891   2.126   6.623  1.2192 -0.9689 -1.2041
  139OSM    C3S15150   4.903   2.337   6.583 -1.5189 -0.2874 -0.0843
  139OSM    H3S15151   4.833   2.412   6.541  0.2836 -0.2329 -3.3384
  139OSM     O315152   5.021   2.341   6.499  0.0366  0.0844 -0.0233
  139OSM    HO315153   5.007   2.262   6.447 -0.2955 -1.1468  1.8787
  139OSM    C4S15154   4.926   2.384   6.726 -0.0381  0.2125 -0.2548
  139OSM    H4S15155   4.853   2.461   6.754 -0.0914  0.1399 -0.1895
  139OSM    C5S15156   5.009   2.329   6.815 -0.0798 -0.5541  0.8980
  139OSM    H5S15157   5.071   2.242   6.789 -0.4714 -0.3784 -0.6722
  139OSM    C6S15158   5.017   2.373   6.957  0.3014 -0.2583 -0.7710
  139OSM    H6S15159   5.089   2.308   7.010 -0.5702 -1.3270 -0.8693
  139OSM    H6T15160   4.921   2.353   7.008  1.1491 -1.1015  0.5694
  139OSM    C7S15161   5.044   2.521   6.986 -0.7156 -0.8866 -0.6322
  139OSM    H7S15162   4.966   2.585   6.940  0.3348  0.2791 -0.8353
  139OSM    H7T15163   5.140   2.562   6.949 -0.2841 -1.8287 -0.5791
  139OSM    C8S15164   5.042   2.563   7.135 -0.6533 -0.6693 -0.4953
  139OSM    H8S15165   5.076   2.481   7.202 -0.2707  0.8129  1.1812
  139OSM    H8T15166   4.936   2.582   7.161 -1.1038  2.0663 -3.7304
  139OSM    C9S15167   5.126   2.689   7.170  0.3104 -0.4046 -0.6211
  139OSM    H9S15168   5.073   2.783   7.145 -0.5997  0.0944  2.7002
  139OSM    H9T15169   5.219   2.686   7.110  0.3345 -1.8763 -0.5527
  139OSM   C10S15170   5.177   2.685   7.317  0.3619  0.0714  0.2854
  139OSM   H10S15171   5.223   2.783   7.342  3.6126 -0.3364 -3.0553
  139OSM   H10T15172   5.260   2.612   7.320 -0.3831 -0.7825  0.4717
  139OSM   C11S15173   5.067   2.650   7.420  0.2553 -0.5908 -0.1949
  139OSM   H11S15174   5.024   2.550   7.399  0.6468 -1.0383  1.0537
  139OSM   H11T15175   4.983   2.722   7.411  0.1450 -0.7405 -0.3815
  139OSM   C12S15176   5.121   2.657   7.570  0.1237  0.1140 -0.5497
  139OSM   H12S15177   5.140   2.758   7.611 -1.2939 -1.3575  4.3690
  139OSM   H12T15178   5.222   2.613   7.561 -0.5820 -1.4305 -1.3992
  139OSM   C13S15179   5.026   2.600   7.679 -0.7169 -0.0713  0.0940
  139OSM   H13S15180   5.056   2.493   7.685  2.6832  0.7350 -0.3240
  139OSM   H13T15181   4.924   2.611   7.636 -0.8967 -1.1356  0.2211
  139OSM   C14S15182   5.050   2.652   7.827  1.0513  0.2295  0.1747
  139OSM   H14S15183   5.050   2.763   7.824  1.8126  0.2265 -0.2998
  139OSM   H14T15184   5.146   2.610   7.863 -0.0433 -1.2163  1.5693
  139OSM   C15S15185   4.934   2.609   7.921  0.6294 -0.1068  0.4214
  139OSM   H15S15186   4.930   2.500   7.941  1.3691  0.1126  1.9056
  139OSM   H15T15187   4.834   2.633   7.879  0.1763  0.5865  1.8478
  139OSM   C16S15188   4.948   2.675   8.055  1.1905 -0.5302 -0.4320
  139OSM   H16S15189   4.865   2.640   8.120 -0.3211  0.4420 -1.7710
  139OSM   H16T15190   4.930   2.784   8.048 -1.0655 -0.9511 -2.0560
  139OSM   C17S15191   5.079   2.642   8.126 -0.1241 -0.5731 -0.0157
  139OSM   H17S15192   5.163   2.646   8.053  0.3727 -0.0196  0.5692
  139OSM   H17T15193   5.083   2.537   8.161 -0.9549 -0.8126 -0.6047
  139OSM   C18S15194   5.097   2.733   8.253  0.3966  0.2910  0.7153
  139OSM   H18S15195   5.162   2.818   8.225 -2.0895  2.5158  1.3460
  139OSM   H18T15196   5.150   2.684   8.337  0.9713  2.1028  1.4461
  139OSM   H18U15197   5.004   2.785   8.284  0.6647  0.3054  1.5114
  139OSM    C1F15198   4.658   2.085   6.707 -0.5332 -0.2982  0.0664
  139OSM     OF15199   4.701   1.973   6.679  0.0407 -0.4564  0.7486
  139OSM    C2F15200   4.545   2.101   6.800  0.6139 -0.0785 -0.3830
  139OSM    H2F15201   4.453   2.065   6.749 -1.1793 -1.0522  3.2293
  139OSM    H2G15202   4.529   2.204   6.837 -1.4822  0.1404 -1.7207
  139OSM    C3F15203   4.567   2.014   6.925 -0.3102  0.2998  0.1437
  139OSM    H3F15204   4.666   2.044   6.965 -0.8035  2.5240 -0.1710
  139OSM    H3G15205   4.577   1.907   6.896 -0.6226  0.2759  0.1122
  139OSM    C4F15206   4.461   2.038   7.032 -0.1667 -0.2472  0.2394
  139OSM    H4F15207   4.367   1.992   6.995  0.1191  0.5532 -1.5830
  139OSM    H4G15208   4.439   2.146   7.043  1.5202  0.1772 -0.2414
  139OSM    C5F15209   4.496   1.982   7.165 -0.6491 -0.0168 -0.6876
  139OSM    H5F15210   4.586   2.032   7.206 -0.5095 -2.7686  2.8095
  139OSM    H5G15211   4.532   1.879   7.144  0.9965  0.4533 -0.2925
  139OSM    C6F15212   4.376   2.009   7.268  0.7512  0.2795  0.5029
  139OSM    H6F15213   4.286   1.949   7.242  0.4089  1.8529 -2.4133
  139OSM    H6G15214   4.365   2.119   7.265  3.3103  0.7175  3.2269
  139OSM    C7F15215   4.418   1.957   7.407  0.2947 -0.9132 -0.6989
  139OSM    H7F15216   4.515   2.009   7.425  0.3549 -0.6146 -1.8125
  139OSM    H7G15217   4.453   1.853   7.391 -0.1429 -1.3891  1.1944
  139OSM    C8F15218   4.309   1.969   7.514  0.6738  0.3619  0.0350
  139OSM    H8F15219   4.334   1.914   7.607  0.2387  1.4410  0.8135
  139OSM    H8G15220   4.219   1.919   7.471  0.2455 -1.4460  2.7970
  139OSM    C9F15221   4.248   2.109   7.535  0.0742 -0.0546  0.1069
  139OSM    H9F15222   4.295   2.183   7.468 -0.7046 -1.6050 -2.3044
  139OSM   C10F15223   4.154   2.148   7.627 -0.3955  0.1669  0.3036
  139OSM   H10F15224   4.109   2.248   7.618 -1.8598 -0.4940 -0.0161
  139OSM   C11F15225   4.099   2.061   7.737 -0.4045 -0.5779  0.0108
  139OSM   H11F15226   4.162   1.970   7.746 -0.9508 -1.0659 -0.9400
  139OSM   H11G15227   3.992   2.034   7.727 -1.1537  1.7257  1.0219
  139OSM   C12F15228   4.109   2.126   7.874  0.6880 -0.1892 -0.6710
  139OSM   H12F15229   4.042   2.080   7.949  1.0794  0.0671 -0.1532
  139OSM   H12G15230   4.086   2.234   7.860 -1.3913 -0.6231 -0.8921
  139OSM   C13F15231   4.247   2.125   7.935  0.8287 -0.0511 -0.1732
  139OSM   H13F15232   4.262   2.209   8.006  1.4626  0.2942 -0.7029
  139OSM   H13G15233   4.314   2.129   7.847 -0.9567  0.2192 -1.5849
  139OSM   C14F15234   4.278   1.999   8.018 -0.1132 -0.7559 -0.3266
  139OSM   H14F15235   4.280   1.908   7.955  1.9812 -1.9105  1.2837
  139OSM   H14G15236   4.198   1.984   8.093 -0.0764  0.5613  0.0000
  139OSM   C15F15237   4.423   2.026   8.072  0.2659 -0.3864  0.1743
  139OSM   H15F15238   4.433   2.119   8.132  3.2134 -0.6243  0.1636
  139OSM   H15G15239   4.489   2.043   7.984 -0.4493  1.6081 -0.0334
  139OSM   C16F15240   4.474   1.916   8.170 -0.3179  0.5642  0.3622
  139OSM   H16F15241   4.483   1.840   8.090  0.2814  0.4015  0.5762
  139OSM   H16G15242   4.401   1.885   8.247 -0.2314 -2.0844 -0.5400
  139OSM   C17F15243   4.611   1.948   8.244  0.5378 -0.5482 -0.0528
  139OSM   H17F15244   4.599   2.026   8.322 -0.2354  0.2370 -0.9343
  139OSM   H17G15245   4.685   1.990   8.173 -1.7632 -1.0019 -2.9536
  139OSM   C18F15246   4.673   1.819   8.306  0.2336 -0.3600 -0.0708
  139OSM   H18F15247   4.709   1.765   8.216 -2.6183 -2.3459 -0.1655
  139OSM   H18G15248   4.593   1.757   8.353  0.2035  1.4130  2.4680
  139OSM   H18H15249   4.744   1.848   8.386 -2.0641  1.4168  1.4724
  140OSM      N15250   4.947   4.342   6.259 -0.2021 -0.4908 -0.0824
  140OSM    C1515251   4.824   4.319   6.177 -0.2615 -0.3744  0.4250
  140OSM   H15A15252   4.750   4.273   6.241 -0.2878  0.5887  1.1139
  140OSM   H15B15253   4.845   4.252   6.095  0.4088 -0.3748  0.5880
  140OSM   H15C15254   4.792   4.415   6.138 -3.1456 -1.7518 -0.8949
  140OSM    C1415255   5.061   4.379   6.166 -0.3379 -0.1326  0.7403
  140OSM   H14A15256   5.050   4.324   6.073 -0.2144 -0.6431  1.0220
  140OSM   H14B15257   5.156   4.350   6.209 -0.5239 -2.6410 -0.3658
  140OSM   H14C15258   5.054   4.480   6.130 -1.1347 -0.7861 -1.0905
  140OSM    C1315259   4.921   4.446   6.364  0.0736 -0.7418 -0.1091
  140OSM   H13A15260   4.859   4.414   6.446  1.6396 -1.2744  0.9145
  140OSM   H13B15261   4.867   4.529   6.320 -0.5874 -1.4201 -0.5933
  140OSM   H13C15262   5.015   4.484   6.401 -0.8809  1.0875  0.5777
  140OSM    C1215263   4.994   4.220   6.344 -0.2190 -0.1714  0.2336
  140OSM   H12A15264   4.906   4.186   6.396 -0.3054 -1.1701 -0.5198
  140OSM   H12B15265   5.079   4.254   6.402 -0.8277 -0.1181  1.1068
  140OSM    C1115266   5.042   4.093   6.279 -0.4327  0.2382  0.3386
  140OSM   H11A15267   5.055   4.022   6.363  3.8189 -0.4963 -0.7367
  140OSM   H11B15268   5.142   4.107   6.233 -0.3272 -1.8319 -0.1638
  140OSM      P15269   4.835   3.931   6.209  0.0150  0.1656  0.0679
  140OSM    O1315270   4.709   3.995   6.150 -0.4321 -0.3201 -0.2810
  140OSM    O1415271   4.878   3.804   6.144 -0.0971  0.3717 -0.8626
  140OSM    O1115272   4.820   3.899   6.359 -0.0074 -0.4265 -0.5504
  140OSM    O1215273   4.947   4.041   6.189  0.2844 -0.5437 -0.3004
  140OSM    C1S15274   4.703   3.837   6.419 -0.3369  0.3190  0.4936
  140OSM    H1S15275   4.711   3.730   6.391 -1.7506  0.8137 -2.2512
  140OSM    H1T15276   4.606   3.862   6.369 -0.9717 -1.3715  0.7906
  140OSM     NF15277   4.613   3.780   6.652 -0.4600 -0.2418 -0.1652
  140OSM    HNF15278   4.541   3.829   6.700  0.2264 -1.3340  2.0988
  140OSM    C2S15279   4.704   3.862   6.573 -0.2394  0.3804  0.2670
  140OSM    H2S15280   4.803   3.827   6.609 -0.2153  1.1812  1.0356
  140OSM    C3S15281   4.699   4.017   6.592  0.5556 -0.2703 -0.4561
  140OSM    H3S15282   4.608   4.053   6.539 -0.5702 -0.5185  1.2370
  140OSM     O315283   4.810   4.091   6.539  0.1196  0.3601  0.0121
  140OSM    HO315284   4.855   4.024   6.487  0.8174  0.0594  0.9698
  140OSM    C4S15285   4.679   4.060   6.741 -0.0844  0.6595 -0.1180
  140OSM    H4S15286   4.757   4.039   6.815 -2.1013 -0.0275  1.9377
  140OSM    C5S15287   4.576   4.137   6.782  0.9282  0.2333 -0.4593
  140OSM    H5S15288   4.493   4.152   6.712 -2.5204 -1.7137  2.8256
  140OSM    C6S15289   4.567   4.182   6.928 -0.3979 -0.0357 -0.1039
  140OSM    H6S15290   4.537   4.289   6.927  0.4281  0.1997 -0.7149
  140OSM    H6T15291   4.661   4.177   6.985  0.1164  2.2632 -0.6544
  140OSM    C7S15292   4.448   4.109   6.999 -0.3567  0.0007  0.1785
  140OSM    H7S15293   4.447   3.999   6.988  1.9683 -0.3638  2.5510
  140OSM    H7T15294   4.348   4.141   6.961 -0.2150  2.2121  1.4506
  140OSM    C8S15295   4.443   4.128   7.153  0.3245  0.6275 -0.0489
  140OSM    H8S15296   4.352   4.076   7.191  0.4747  0.7989  0.5576
  140OSM    H8T15297   4.427   4.236   7.174 -0.5418  0.1805  1.8282
  140OSM    C9S15298   4.563   4.082   7.240  1.0344  0.5350 -0.0452
  140OSM    H9S15299   4.661   4.121   7.205 -0.1914  0.9289 -3.3865
  140OSM    H9T15300   4.579   3.974   7.222 -0.5265 -0.3377  3.0165
  140OSM   C10S15301   4.539   4.111   7.389 -0.0657 -0.0300 -0.1783
  140OSM   H10S15302   4.582   4.026   7.445 -0.6135  0.8374  1.6246
  140OSM   H10T15303   4.431   4.108   7.414 -0.5597  0.3827 -2.1038
  140OSM   C11S15304   4.605   4.244   7.451 -0.2654  0.2942  0.3931
  140OSM   H11S15305   4.604   4.327   7.377 -1.7966 -0.8592 -0.9774
  140OSM   H11T15306   4.715   4.233   7.455 -0.2852 -1.0016 -1.2965
  140OSM   C12S15307   4.552   4.283   7.593 -0.3421 -0.0301  0.8919
  140OSM   H12S15308   4.586   4.388   7.606  0.6970  0.0205 -1.5950
  140OSM   H12T15309   4.607   4.220   7.665 -0.1143 -3.0433 -1.6993
  140OSM   C13S15310   4.403   4.275   7.614  0.1281  0.5474 -0.1561
  140OSM   H13S15311   4.363   4.172   7.608  1.1578 -0.0236  1.7815
  140OSM   H13T15312   4.359   4.340   7.535  0.2335 -0.4434 -1.0492
  140OSM   C14S15313   4.358   4.320   7.750 -0.3229 -0.1376 -0.0359
  140OSM   H14S15314   4.419   4.412   7.766  1.2403 -1.3515  1.4495
  140OSM   H14T15315   4.394   4.245   7.823 -0.0909  0.2044  0.2089
  140OSM   C15S15316   4.211   4.359   7.759 -0.6611 -0.2236  0.3712
  140OSM   H15S15317   4.162   4.270   7.713  0.8504 -0.0496 -1.7119
  140OSM   H15T15318   4.201   4.451   7.698 -0.8176 -1.3637 -1.4091
  140OSM   C16S15319   4.154   4.357   7.900 -0.6161 -0.1411 -0.5681
  140OSM   H16S15320   4.057   4.410   7.908 -0.1120  0.5844  1.4617
  140OSM   H16T15321   4.219   4.421   7.964 -1.3646 -1.4308  1.5550
  140OSM   C17S15322   4.128   4.219   7.955 -0.5926  0.2258  0.8796
  140OSM   H17S15323   4.232   4.181   7.939  0.1963  2.5109  0.1692
  140OSM   H17T15324   4.066   4.149   7.896  1.4954 -1.2569  0.3229
  140OSM   C18S15325   4.073   4.220   8.100  0.0525 -0.5304 -0.2634
  140OSM   H18S15326   4.148   4.241   8.179  2.0119 -1.1695 -1.8700
  140OSM   H18T15327   4.036   4.118   8.121  0.2472 -0.3914  0.7717
  140OSM   H18U15328   3.990   4.294   8.112  1.0586  0.1838  3.8048
  140OSM    C1F15329   4.618   3.650   6.654 -0.2475  0.6959 -0.5862
  140OSM     OF15330   4.680   3.586   6.571 -0.5937 -0.1045 -0.6146
  140OSM    C2F15331   4.545   3.585   6.767  0.3463 -0.7028 -0.1110
  140OSM    H2F15332   4.444   3.557   6.730  1.3469 -3.1151 -1.2384
  140OSM    H2G15333   4.541   3.665   6.844  3.7947 -0.2884 -0.1985
  140OSM    C3F15334   4.614   3.455   6.822 -0.1968  0.1883  0.5764
  140OSM    H3F15335   4.714   3.474   6.866 -0.8710  0.7505  1.9436
  140OSM    H3G15336   4.623   3.375   6.746  2.8081 -2.3862  3.3666
  140OSM    C4F15337   4.541   3.387   6.933  0.4676 -0.3268  0.1703
  140OSM    H4F15338   4.597   3.297   6.967  2.3051  0.1234 -1.4947
  140OSM    H4G15339   4.435   3.360   6.910  0.0840  1.5804 -0.4367
  140OSM    C5F15340   4.542   3.477   7.051 -0.0058 -0.4986 -0.2935
  140OSM    H5F15341   4.627   3.547   7.065 -1.6156  1.4127  0.3877
  140OSM    H5G15342   4.546   3.412   7.141 -0.0744 -0.6136 -0.3724
  140OSM    C6F15343   4.418   3.560   7.083 -0.0270  0.3917  0.6783
  140OSM    H6F15344   4.344   3.483   7.112 -0.3269  0.1384 -0.6696
  140OSM    H6G15345   4.369   3.618   7.002  2.3216  2.8935  0.9004
  140OSM    C7F15346   4.437   3.665   7.197  0.3215 -0.0622 -0.3006
  140OSM    H7F15347   4.339   3.703   7.232 -0.0254 -2.1174  1.1383
  140OSM    H7G15348   4.484   3.754   7.149 -2.1752  0.3761 -2.1342
  140OSM    C8F15349   4.526   3.628   7.319  0.9003 -0.5413 -0.0006
  140OSM    H8F15350   4.542   3.723   7.375  0.8724 -0.3103 -0.3784
  140OSM    H8G15351   4.624   3.592   7.282 -0.4627 -1.2209 -3.3790
  140OSM    C9F15352   4.466   3.537   7.418  0.6532 -0.0725 -0.5484
  140OSM    H9F15353   4.399   3.457   7.381 -1.1552  1.2391 -0.2595
  140OSM   C10F15354   4.485   3.545   7.554 -0.1479  0.3652 -0.0064
  140OSM   H10F15355   4.452   3.459   7.614  2.1706 -2.2494 -2.2021
  140OSM   C11F15356   4.566   3.643   7.626 -0.2240 -0.3418  0.1937
  140OSM   H11F15357   4.627   3.712   7.563  1.1433 -3.6188 -2.4077
  140OSM   H11G15358   4.643   3.579   7.676  0.0567  0.5153  0.8838
  140OSM   C12F15359   4.492   3.715   7.734  0.4367  0.0543 -0.8736
  140OSM   H12F15360   4.564   3.764   7.804  0.9429 -1.6036 -0.1982
  140OSM   H12G15361   4.431   3.645   7.796  2.1058 -1.4519 -0.8911
  140OSM   C13F15362   4.409   3.840   7.692  0.2029  0.3244  0.0753
  140OSM   H13F15363   4.314   3.799   7.653  1.0533 -0.3233 -1.4013
  140OSM   H13G15364   4.456   3.890   7.604 -1.6911 -0.5664 -1.4999
  140OSM   C14F15365   4.384   3.941   7.807 -0.7518  0.1067  0.4440
  140OSM   H14F15366   4.315   4.023   7.777 -1.0983 -0.6553 -0.9105
  140OSM   H14G15367   4.479   3.998   7.820 -1.3230  0.9441  1.1506
  140OSM   C15F15368   4.350   3.877   7.946 -0.5207 -0.1752 -0.5813
  140OSM   H15F15369   4.343   3.963   8.016  0.7367 -0.9877  0.5866
  140OSM   H15G15370   4.423   3.800   7.978 -1.6618 -1.9343 -2.0443
  140OSM   C16F15371   4.216   3.807   7.954 -0.4703  0.3056 -0.6719
  140OSM   H16F15372   4.240   3.713   7.900  1.6413  0.3416  0.1263
  140OSM   H16G15373   4.150   3.870   7.890 -1.3945 -0.6084 -0.6433
  140OSM   C17F15374   4.165   3.793   8.105 -0.2921 -0.5952  0.4403
  140OSM   H17F15375   4.181   3.892   8.153 -0.8411  0.6578 -1.7920
  140OSM   H17G15376   4.241   3.721   8.142  2.4711  1.1632 -1.4403
  140OSM   C18F15377   4.016   3.757   8.105 -0.1819 -0.0728 -0.3106
  140OSM   H18F15378   4.001   3.670   8.038 -3.6132  0.9545 -1.0887
  140OSM   H18G15379   3.953   3.844   8.076  0.6815  0.3055 -1.1288
  140OSM   H18H15380   3.990   3.737   8.211  1.7979 -1.5896 -0.0643
  141OSM      N15381   4.623   5.878   6.486  0.1596  0.2655  0.4413
  141OSM    C1515382   4.579   5.981   6.384  0.7104  0.2365 -0.9705
  141OSM   H15A15383   4.658   6.043   6.344  1.9387 -0.5189  0.1770
  141OSM   H15B15384   4.502   6.047   6.419  0.5241 -0.4679  0.0066
  141OSM   H15C15385   4.533   5.925   6.305 -1.4655  0.7869 -0.1511
  141OSM    C1415386   4.737   5.808   6.434  0.6036 -0.1423  0.4292
  141OSM   H14A15387   4.819   5.877   6.423  0.3966 -0.1235 -1.1951
  141OSM   H14B15388   4.711   5.765   6.339  0.0924 -0.8437  0.8782
  141OSM   H14C15389   4.761   5.722   6.495 -0.0300 -0.7491 -0.1631
  141OSM    C1315390   4.670   5.943   6.611  0.7708  0.4956 -0.0141
  141OSM   H13A15391   4.586   6.002   6.644  1.2180  0.3350  1.4694
  141OSM   H13B15392   4.748   6.017   6.598 -0.2799  1.6013 -0.2067
  141OSM   H13C15393   4.703   5.870   6.682 -2.0001 -0.5738  0.2724
  141OSM    C1215394   4.505   5.777   6.521 -0.3340  0.0623 -0.1823
  141OSM   H12A15395   4.439   5.826   6.592  1.6499  3.8292 -0.6647
  141OSM   H12B15396   4.552   5.700   6.580 -1.6709 -0.7276 -0.1148
  141OSM    C1115397   4.423   5.720   6.402  0.7615  0.3476  0.1762
  141OSM   H11A15398   4.348   5.799   6.378 -1.9751 -1.8603  0.9163
  141OSM   H11B15399   4.359   5.644   6.452  1.4244  0.0189  0.5396
  141OSM      P15400   4.547   5.533   6.271 -0.1340 -0.2633 -0.0955
  141OSM    O1315401   4.474   5.457   6.164  0.1064  0.2915 -0.2123
  141OSM    O1415402   4.695   5.542   6.263  0.0542 -0.3301 -0.0334
  141OSM    O1115403   4.511   5.465   6.408 -0.3541  0.1634 -0.0550
  141OSM    O1215404   4.487   5.679   6.279 -0.3612  0.8266  0.1932
  141OSM    C1S15405   4.602   5.443   6.516 -0.0894 -0.5357  0.0780
  141OSM    H1S15406   4.636   5.542   6.554 -2.2577  0.3805 -0.1757
  141OSM    H1T15407   4.689   5.376   6.502  0.8383  0.7654 -0.6752
  141OSM     NF15408   4.620   5.419   6.757  0.4427  0.9006 -0.1903
  141OSM    HNF15409   4.668   5.340   6.793 -1.9615 -0.3268  0.4933
  141OSM    C2S15410   4.533   5.392   6.641 -0.3093  0.4120 -0.1921
  141OSM    H2S15411   4.437   5.444   6.663 -0.2847  0.3185  0.1512
  141OSM    C3S15412   4.498   5.248   6.619  0.8351 -0.2948 -0.0499
  141OSM    H3S15413   4.592   5.192   6.600  1.4467  0.2259  1.3735
  141OSM     O315414   4.419   5.230   6.497  0.1344 -0.1230 -0.3276
  141OSM    HO315415   4.399   5.319   6.468 -1.0531 -0.0929  0.5095
  141OSM    C4S15416   4.423   5.199   6.734  0.4849  0.0005 -0.3260
  141OSM    H4S15417   4.477   5.133   6.803  0.5683  0.8102  0.3988
  141OSM    C5S15418   4.294   5.225   6.763 -0.6194 -0.0324 -0.4594
  141OSM    H5S15419   4.242   5.288   6.689  1.5846  0.0253 -2.0720
  141OSM    C6S15420   4.219   5.169   6.882 -0.1966 -0.0009 -0.3228
  141OSM    H6S15421   4.179   5.069   6.853 -1.4843  0.5220 -0.4227
  141OSM    H6T15422   4.122   5.223   6.893  0.5019  2.0057 -2.9288
  141OSM    C7S15423   4.290   5.157   7.013 -1.1151 -0.3433  0.5644
  141OSM    H7S15424   4.365   5.076   7.001 -0.8287  0.2556 -2.4271
  141OSM    H7T15425   4.213   5.119   7.084  0.8820 -0.6069  2.7054
  141OSM    C8S15426   4.327   5.290   7.079  0.0611  0.3754  0.7920
  141OSM    H8S15427   4.249   5.366   7.056  0.1584  1.0725  2.5805
  141OSM    H8T15428   4.424   5.326   7.038  1.0914 -2.5527  0.3970
  141OSM    C9S15429   4.342   5.281   7.233  0.3370  0.3906  0.1081
  141OSM    H9S15430   4.397   5.187   7.255 -1.7082 -0.8171  0.3010
  141OSM    H9T15431   4.238   5.254   7.262  0.7059 -1.2245  0.0505
  141OSM   C10S15432   4.377   5.411   7.304  0.2629  0.0464 -0.2616
  141OSM   H10S15433   4.311   5.489   7.260 -3.6068 -2.2188  1.0330
  141OSM   H10T15434   4.481   5.438   7.276  0.3410  3.0724  2.3223
  141OSM   C11S15435   4.338   5.423   7.447 -0.3928 -0.1983  0.2983
  141OSM   H11S15436   4.360   5.321   7.486 -0.6084 -0.7613 -0.9847
  141OSM   H11T15437   4.232   5.452   7.462  0.1750  2.1371  0.1992
  141OSM   C12S15438   4.431   5.514   7.532 -0.1911  0.3580 -0.5061
  141OSM   H12S15439   4.415   5.624   7.527  2.9168  0.8816 -0.7357
  141OSM   H12T15440   4.538   5.492   7.511 -0.1162 -2.1754  2.0153
  141OSM   C13S15441   4.416   5.476   7.682 -1.3158 -0.3526  0.0845
  141OSM   H13S15442   4.457   5.375   7.703  0.8281 -0.1156 -2.4676
  141OSM   H13T15443   4.307   5.462   7.697 -1.1617 -1.3936  0.2794
  141OSM   C14S15444   4.454   5.592   7.770 -0.0783  0.2158 -0.4011
  141OSM   H14S15445   4.379   5.670   7.745  1.8336  2.8829  1.6281
  141OSM   H14T15446   4.558   5.628   7.751  0.0397 -0.7228 -1.6750
  141OSM   C15S15447   4.446   5.541   7.920 -0.8146 -0.6083  0.9412
  141OSM   H15S15448   4.532   5.472   7.933 -1.7969 -1.8028  1.2905
  141OSM   H15T15449   4.351   5.484   7.928 -1.8344  0.5319 -1.8982
  141OSM   C16S15450   4.458   5.650   8.021  0.3075  0.1114  0.3440
  141OSM   H16S15451   4.394   5.741   8.007 -1.5708 -0.6405  3.2441
  141OSM   H16T15452   4.555   5.703   8.011  0.9204 -0.9915  0.3943
  141OSM   C17S15453   4.446   5.585   8.161 -0.7278  0.6169  0.2704
  141OSM   H17S15454   4.508   5.493   8.160  2.6704  2.6667 -1.6694
  141OSM   H17T15455   4.342   5.546   8.165 -0.1912 -0.9091  0.0523
  141OSM   C18S15456   4.471   5.678   8.277 -0.0009  0.1196  0.0581
  141OSM   H18S15457   4.446   5.626   8.372 -1.7236  2.2008  0.8069
  141OSM   H18T15458   4.415   5.773   8.267  0.4628  0.5492  1.3641
  141OSM   H18U15459   4.577   5.710   8.288 -0.6710  2.2224  0.7945
  141OSM    C1F15460   4.635   5.535   6.818 -0.5993  0.3582  0.9770
  141OSM     OF15461   4.584   5.635   6.776  0.0326  0.3074 -0.5048
  141OSM    C2F15462   4.728   5.529   6.932 -0.1819 -0.4867  0.7917
  141OSM    H2F15463   4.821   5.584   6.904 -0.7730  1.2055  1.9652
  141OSM    H2G15464   4.752   5.422   6.946 -1.1468 -1.1527 -1.9513
  141OSM    C3F15465   4.672   5.595   7.064  0.8354 -0.1481  0.4857
  141OSM    H3F15466   4.574   5.552   7.094  0.8023 -0.8781 -0.6331
  141OSM    H3G15467   4.644   5.698   7.034 -1.9200 -1.3006 -1.3054
  141OSM    C4F15468   4.769   5.578   7.178 -0.5223 -0.1013 -0.2660
  141OSM    H4F15469   4.871   5.609   7.145 -0.1631 -1.2661 -0.3026
  141OSM    H4G15470   4.771   5.469   7.199  0.8249  0.2344  1.6057
  141OSM    C5F15471   4.730   5.657   7.303  0.3942  0.2367  0.1972
  141OSM    H5F15472   4.622   5.645   7.327  0.1951  0.6782 -0.4444
  141OSM    H5G15473   4.749   5.763   7.274  1.5444 -0.4830 -1.9490
  141OSM    C6F15474   4.818   5.616   7.425 -0.4173  0.9593 -0.1456
  141OSM    H6F15475   4.922   5.614   7.388 -1.5869 -0.0006 -3.7756
  141OSM    H6G15476   4.800   5.509   7.448  3.1570 -0.5847 -3.4375
  141OSM    C7F15477   4.819   5.719   7.536 -0.3461 -0.3347 -0.1615
  141OSM    H7F15478   4.718   5.758   7.561 -0.5428 -0.5148 -0.6572
  141OSM    H7G15479   4.877   5.804   7.495 -0.9894 -0.2918 -1.0101
  141OSM    C8F15480   4.909   5.678   7.653  0.0689  0.1514 -0.8096
  141OSM    H8F15481   4.948   5.774   7.694  0.6462 -0.3690 -0.1178
  141OSM    H8G15482   4.997   5.628   7.607  0.1871  1.0529 -1.5986
  141OSM    C9F15483   4.837   5.581   7.745  0.6400  0.8448  0.0423
  141OSM    H9F15484   4.756   5.531   7.691 -0.2041  0.2592  1.7868
  141OSM   C10F15485   4.873   5.567   7.874 -0.4713 -1.1378 -0.2763
  141OSM   H10F15486   4.819   5.491   7.932  1.0529 -1.4186  0.8303
  141OSM   C11F15487   4.969   5.651   7.958  0.0984 -0.0537 -0.3934
  141OSM   H11F15488   5.034   5.714   7.892  0.1236 -0.7908 -1.0958
  141OSM   H11G15489   5.042   5.583   8.007  0.0946 -1.8004 -2.6305
  141OSM   C12F15490   4.906   5.729   8.076  0.2474 -0.4451  0.2448
  141OSM   H12F15491   4.846   5.657   8.135  1.2111 -2.8700 -1.5895
  141OSM   H12G15492   4.841   5.810   8.036 -0.9591 -0.4593  2.0569
  141OSM   C13F15493   4.999   5.801   8.181 -0.4517  0.6203  0.2243
  141OSM   H13F15494   5.069   5.729   8.227  0.9925  1.5926 -0.3550
  141OSM   H13G15495   4.943   5.848   8.265  0.8273  2.0382  0.3285
  141OSM   C14F15496   5.085   5.916   8.116  0.7326  0.1324 -0.3802
  141OSM   H14F15497   5.020   5.993   8.070 -1.0432 -0.5221  0.8958
  141OSM   H14G15498   5.131   5.866   8.029  0.6352  3.0094 -2.1810
  141OSM   C15F15499   5.201   5.986   8.184  0.1089 -1.0931 -0.0303
  141OSM   H15F15500   5.237   6.060   8.110 -1.1034  0.8864  1.2520
  141OSM   H15G15501   5.277   5.908   8.206 -0.4239 -1.0796  2.1188
  141OSM   C16F15502   5.165   6.066   8.311 -0.5462 -0.2762 -0.0635
  141OSM   H16F15503   5.114   5.994   8.379 -0.4889  0.9132  1.2898
  141OSM   H16G15504   5.078   6.134   8.296  0.3119  0.8272 -0.1263
  141OSM   C17F15505   5.286   6.145   8.371  0.1845  0.0470 -0.5988
  141OSM   H17F15506   5.371   6.077   8.395 -0.3927 -0.7244 -0.6766
  141OSM   H17G15507   5.264   6.171   8.477  0.8362  1.5786 -0.8254
  141OSM   C18F15508   5.344   6.270   8.301  0.1708 -0.0623  0.1898
  141OSM   H18F15509   5.283   6.362   8.316 -1.0538 -0.6763 -0.8992
  141OSM   H18G15510   5.342   6.275   8.190  5.3026 -0.4596 -0.1623
  141OSM   H18H15511   5.449   6.289   8.332 -0.2296  1.3839  0.7885
  142OSM      N15512   5.726   1.718   6.302  0.4058 -0.6220 -0.0430
  142OSM    C1515513   5.806   1.625   6.377  0.2802 -0.6671 -0.0354
  142OSM   H15A15514   5.765   1.587   6.469  1.0539  0.1720  0.6779
  142OSM   H15B15515   5.897   1.675   6.407 -0.3472  0.1573  0.5763
  142OSM   H15C15516   5.836   1.536   6.325 -3.3730 -3.0272  1.4909
  142OSM    C1415517   5.675   1.831   6.394 -0.2076  0.1778  0.2505
  142OSM   H14A15518   5.757   1.868   6.454 -1.3132  1.2018  1.1907
  142OSM   H14B15519   5.591   1.795   6.453  0.1011 -0.2035  0.4684
  142OSM   H14C15520   5.630   1.910   6.337  1.1581 -0.1703 -1.3954
  142OSM    C1315521   5.812   1.782   6.196 -0.2354  0.0387  0.0767
  142OSM   H13A15522   5.855   1.710   6.127  2.7731  1.5174  0.2526
  142OSM   H13B15523   5.893   1.837   6.241 -0.5736 -0.2663  1.0777
  142OSM   H13C15524   5.754   1.859   6.148 -1.2255 -0.0207  1.1377
  142OSM    C1215525   5.613   1.649   6.230  0.4587  0.5699 -0.4255
  142OSM   H12A15526   5.564   1.721   6.166 -1.0040 -0.0986 -0.1067
  142OSM   H12B15527   5.545   1.612   6.306  0.2301 -0.8782 -1.2942
  142OSM    C1115528   5.638   1.525   6.140  0.1125  0.0439  0.7230
  142OSM   H11A15529   5.707   1.547   6.056 -0.1037 -3.1669 -0.4213
  142OSM   H11B15530   5.543   1.486   6.097 -0.6245 -0.1571  2.4463
  142OSM      P15531   5.650   1.304   6.300 -0.0762 -0.5016  0.1393
  142OSM    O1315532   5.505   1.329   6.314 -0.2317  0.1307  0.1094
  142OSM    O1415533   5.715   1.181   6.260 -0.1785 -0.7790 -0.3122
  142OSM    O1115534   5.715   1.347   6.439  0.6016 -0.2299 -0.1098
  142OSM    O1215535   5.698   1.423   6.208 -0.0005  0.2557 -0.5112
  142OSM    C1S15536   5.856   1.324   6.467  0.3473  0.6986 -0.6766
  142OSM    H1S15537   5.924   1.380   6.399  1.5293  1.7843  1.2921
  142OSM    H1T15538   5.886   1.218   6.453 -0.8613 -0.0559  1.9340
  142OSM     NF15539   6.049   1.358   6.638 -0.7843 -0.5097 -0.3202
  142OSM    HNF15540   6.093   1.290   6.696  1.9839  1.2559 -0.1324
  142OSM    C2S15541   5.900   1.358   6.617  0.0036 -0.1301  0.0556
  142OSM    H2S15542   5.866   1.461   6.638  1.0123  0.3278 -0.4705
  142OSM    C3S15543   5.824   1.261   6.720 -0.9224  0.1065  0.0983
  142OSM    H3S15544   5.868   1.159   6.716 -1.9449 -0.3787  0.8575
  142OSM     O315545   5.686   1.248   6.693  0.0747 -0.0798 -0.1148
  142OSM    HO315546   5.667   1.294   6.611 -1.4957  0.2614  0.4114
  142OSM    C4S15547   5.832   1.311   6.864  0.1595 -0.7269  0.3598
  142OSM    H4S15548   5.755   1.388   6.882  0.4573 -0.6222  1.2198
  142OSM    C5S15549   5.920   1.276   6.968  0.2061  0.4369 -0.0213
  142OSM    H5S15550   5.998   1.201   6.950 -1.0938 -0.5341 -1.9721
  142OSM    C6S15551   5.927   1.324   7.110 -0.3045 -0.1244  0.3893
  142OSM    H6S15552   6.002   1.405   7.122  0.9090 -1.5194  3.0658
  142OSM    H6T15553   5.961   1.239   7.173 -0.0599 -0.0675  0.3383
  142OSM    C7S15554   5.794   1.379   7.169 -0.1854  0.1100  0.0705
  142OSM    H7S15555   5.715   1.303   7.152  1.0169 -1.2474  0.3964
  142OSM    H7T15556   5.770   1.478   7.126  0.4130 -0.0030 -0.5394
  142OSM    C8S15557   5.793   1.396   7.325  0.3335  0.1289 -0.1915
  142OSM    H8S15558   5.863   1.480   7.347  1.8785 -0.1037 -3.5031
  142OSM    H8T15559   5.840   1.312   7.379 -0.6779 -1.0684 -1.1123
  142OSM    C9S15560   5.653   1.420   7.389  0.1092 -0.6161  0.5343
  142OSM    H9S15561   5.593   1.329   7.367 -0.6627 -0.0006  0.0889
  142OSM    H9T15562   5.596   1.501   7.339  0.3502  0.6206  2.1691
  142OSM   C10S15563   5.649   1.459   7.535 -0.3899  0.8025 -0.1473
  142OSM   H10S15564   5.541   1.463   7.564 -0.7483 -3.2056 -0.4377
  142OSM   H10T15565   5.700   1.555   7.560  0.7059  0.3514 -0.6212
  142OSM   C11S15566   5.717   1.358   7.627 -0.3856  0.4831  0.4757
  142OSM   H11S15567   5.827   1.352   7.613 -0.4752  1.5539 -1.0120
  142OSM   H11T15568   5.669   1.260   7.609 -1.3640  0.9857  0.2890
  142OSM   C12S15569   5.689   1.383   7.779  0.4493 -0.3846 -0.0694
  142OSM   H12S15570   5.580   1.375   7.795  0.1426 -2.4513 -2.4352
  142OSM   H12T15571   5.710   1.488   7.809 -0.9950  0.1701 -0.8744
  142OSM   C13S15572   5.763   1.282   7.862  0.2104 -0.4132  0.0489
  142OSM   H13S15573   5.733   1.298   7.968 -1.6164  1.2930 -0.6605
  142OSM   H13T15574   5.872   1.296   7.846 -0.0167  0.4742 -0.8414
  142OSM   C14S15575   5.722   1.136   7.832  0.2605  0.5787 -0.4443
  142OSM   H14S15576   5.759   1.110   7.731  0.2470  0.8056 -0.5075
  142OSM   H14T15577   5.614   1.112   7.838  0.2315  1.0032  2.2121
  142OSM   C15S15578   5.787   1.038   7.926  0.3882  0.2500  0.3091
  142OSM   H15S15579   5.889   1.079   7.944 -0.9047  2.3564  3.5889
  142OSM   H15T15580   5.788   0.943   7.867  0.6943  0.4286  0.0228
  142OSM   C16S15581   5.721   1.032   8.070 -0.1628  0.3440  0.4323
  142OSM   H16S15582   5.611   1.023   8.064 -0.3694  2.9543 -2.1571
  142OSM   H16T15583   5.733   1.130   8.120 -1.3887  1.5616 -1.5107
  142OSM   C17S15584   5.778   0.921   8.159 -0.4812 -0.0052  0.4436
  142OSM   H17S15585   5.888   0.935   8.166 -0.4011 -0.7590  0.7708
  142OSM   H17T15586   5.765   0.815   8.128  3.3190 -0.9141  1.3878
  142OSM   C18S15587   5.727   0.924   8.304 -0.2258 -0.4405  0.1945
  142OSM   H18S15588   5.743   1.015   8.366 -1.8905 -0.8565  1.2940
  142OSM   H18T15589   5.789   0.851   8.360 -0.1348 -0.6785 -0.2136
  142OSM   H18U15590   5.618   0.903   8.308 -0.3321  0.1750  0.8625
  142OSM    C1F15591   6.131   1.450   6.585  0.1083  0.0628 -0.0055
  142OSM     OF15592   6.086   1.547   6.528  0.1773  0.1554  0.3886
  142OSM    C2F15593   6.272   1.418   6.596 -0.0575 -1.0222 -0.6596
  142OSM    H2F15594   6.324   1.464   6.509 -1.6124  2.7151  0.1964
  142OSM    H2G15595   6.278   1.308   6.583 -1.9735 -0.9647 -2.5536
  142OSM    C3F15596   6.320   1.470   6.731  0.6702  0.1723 -0.0836
  142OSM    H3F15597   6.262   1.430   6.817 -2.9554  0.5708 -2.1269
  142OSM    H3G15598   6.312   1.580   6.741 -1.3647  0.2073 -1.4318
  142OSM    C4F15599   6.468   1.426   6.757 -0.4930  0.8289 -0.7716
  142OSM    H4F15600   6.510   1.492   6.837 -1.2118 -1.6609  1.8035
  142OSM    H4G15601   6.526   1.458   6.667  0.1568  2.1466  0.0799
  142OSM    C5F15602   6.493   1.280   6.774 -0.0447  0.2719  0.1905
  142OSM    H5F15603   6.596   1.247   6.750 -0.5099 -0.8524 -0.3140
  142OSM    H5G15604   6.435   1.229   6.695 -0.9952 -0.1252  1.1263
  142OSM    C6F15605   6.462   1.226   6.909 -0.4911 -0.1951 -0.6586
  142OSM    H6F15606   6.424   1.122   6.914 -1.0263  0.0767  2.8540
  142OSM    H6G15607   6.374   1.283   6.947  0.5200  1.7159 -1.0440
  142OSM    C7F15608   6.589   1.245   6.999 -0.2247  0.8354  0.1917
  142OSM    H7F15609   6.603   1.355   7.004  4.0215  0.5276 -0.7831
  142OSM    H7G15610   6.667   1.189   6.942  1.9633  2.1427  1.7525
  142OSM    C8F15611   6.571   1.189   7.138 -0.3987  0.0127  0.3305
  142OSM    H8F15612   6.671   1.196   7.187  0.3959 -1.6780 -0.9434
  142OSM    H8G15613   6.542   1.082   7.131 -0.7099  0.1413 -0.4599
  142OSM    C9F15614   6.478   1.257   7.232  0.3444  0.7111  0.4564
  142OSM    H9F15615   6.384   1.200   7.237  0.7045 -0.0031 -0.5513
  142OSM   C10F15616   6.500   1.368   7.304 -0.8059  0.5396  0.0180
  142OSM   H10F15617   6.423   1.423   7.359  1.8651  2.6174  1.9008
  142OSM   C11F15618   6.632   1.438   7.308 -0.1849  0.4208 -0.1823
  142OSM   H11F15619   6.623   1.537   7.259 -0.9025 -0.0026 -0.9361
  142OSM   H11G15620   6.713   1.379   7.260 -1.1136 -0.2165 -1.0060
  142OSM   C12F15621   6.685   1.450   7.446  0.0225  0.2667  0.0684
  142OSM   H12F15622   6.671   1.349   7.491  0.4221 -0.4666 -1.3898
  142OSM   H12G15623   6.629   1.523   7.508  1.2261 -0.5042  2.1683
  142OSM   C13F15624   6.839   1.462   7.448  0.4053  0.1685 -0.4723
  142OSM   H13F15625   6.869   1.540   7.374  0.7876  0.3477 -0.1322
  142OSM   H13G15626   6.875   1.364   7.413 -2.5339 -1.2000 -0.0278
  142OSM   C14F15627   6.899   1.508   7.580 -0.0355  0.4787 -0.3665
  142OSM   H14F15628   6.882   1.432   7.658  0.8912  2.0299  1.4263
  142OSM   H14G15629   6.847   1.596   7.624  0.9168  0.3337  1.1015
  142OSM   C15F15630   7.051   1.525   7.567  0.4421  0.1646 -0.3410
  142OSM   H15F15631   7.071   1.616   7.507  0.3841  0.3580 -0.0653
  142OSM   H15G15632   7.080   1.437   7.504 -2.0361 -0.6900 -0.3957
  142OSM   C16F15633   7.123   1.549   7.698  0.2710  0.2495  0.4790
  142OSM   H16F15634   7.127   1.458   7.761 -1.7797 -0.3552 -0.1802
  142OSM   H16G15635   7.064   1.620   7.759 -4.6076 -3.7961  1.0519
  142OSM   C17F15636   7.267   1.595   7.681 -0.3429  0.4693 -0.0661
  142OSM   H17F15637   7.266   1.692   7.627 -1.2559  0.2114 -0.5351
  142OSM   H17G15638   7.329   1.525   7.621  1.0153  3.2407 -2.0713
  142OSM   C18F15639   7.329   1.612   7.820  0.5052 -0.2385  0.5879
  142OSM   H18F15640   7.276   1.694   7.873 -0.2899 -1.0661  1.1051
  142OSM   H18G15641   7.434   1.646   7.808  0.3831  1.2306  3.0019
  142OSM   H18H15642   7.333   1.520   7.882  1.1012 -0.0900  0.7769
  143OSM      N15643   0.315   3.341   6.201  0.3385  0.6450  0.6827
  143OSM    C1515644   0.285   3.437   6.102 -0.4357 -0.4313  0.1237
  143OSM   H15A15645   0.200   3.495   6.136 -1.3676 -2.7158  2.0038
  143OSM   H15B15646   0.240   3.391   6.015 -0.5354  1.0566 -0.6436
  143OSM   H15C15647   0.373   3.497   6.086  2.7675 -3.7569  3.4365
  143OSM    C1415648   0.326   3.405   6.328 -0.0899  0.3757 -0.4293
  143OSM   H14A15649   0.243   3.471   6.349  1.8588  2.5366  0.8889
  143OSM   H14B15650   0.421   3.452   6.345  2.0648 -3.3739 -0.8883
  143OSM   H14C15651   0.327   3.334   6.410 -1.3469  0.1778 -0.5556
  143OSM    C1315652   0.200   3.244   6.213  0.7204 -0.1702  0.0019
  143OSM   H13A15653   0.157   3.217   6.117 -0.6416 -0.3899  0.6572
  143OSM   H13B15654   0.117   3.280   6.271  1.6469  2.1769 -0.0268
  143OSM   H13C15655   0.251   3.157   6.252  0.6537 -0.4386 -0.4915
  143OSM    C1215656   0.448   3.271   6.169 -0.3530 -0.3686 -0.4253
  143OSM   H12A15657   0.465   3.199   6.247  1.0993  0.6421  0.2353
  143OSM   H12B15658   0.532   3.337   6.181 -0.5812  0.1754 -1.6562
  143OSM    C1115659   0.457   3.176   6.042 -1.6269 -0.0963  0.5035
  143OSM   H11A15660   0.560   3.140   6.021 -1.9930 -1.0004  0.2199
  143OSM   H11B15661   0.421   3.225   5.949  1.2240  0.4938 -0.3831
  143OSM      P15662   0.420   2.939   6.146  0.3929  0.3553 -0.0498
  143OSM    O1315663   0.307   2.845   6.162 -0.3412  0.1686 -0.1645
  143OSM    O1415664   0.549   2.894   6.094  0.7750  0.1683 -0.2787
  143OSM    O1115665   0.440   3.014   6.291  0.2221 -0.0417 -0.6989
  143OSM    O1215666   0.374   3.061   6.057 -0.1731  0.2436  0.4931
  143OSM    C1S15667   0.489   2.929   6.397  0.2337 -0.0136  0.5336
  143OSM    H1S15668   0.589   2.897   6.363  0.4775  0.9874  0.2777
  143OSM    H1T15669   0.431   2.834   6.402  1.3614 -0.8111 -0.9820
  143OSM     NF15670   0.549   2.885   6.630  0.1459  0.1900  0.6525
  143OSM    HNF15671   0.481   2.844   6.690  1.2483 -2.1792  0.3970
  143OSM    C2S15672   0.493   2.989   6.540  0.2173  0.2468  0.6630
  143OSM    H2S15673   0.564   3.074   6.532  1.4747 -0.7724  0.6507
  143OSM    C3S15674   0.352   3.045   6.577  0.5860  0.2457 -0.1096
  143OSM    H3S15675   0.286   2.956   6.586  1.0128  0.0124  0.9197
  143OSM     O315676   0.286   3.148   6.505 -0.3119  0.4612  0.8543
  143OSM    HO315677   0.325   3.138   6.418 -1.1130 -0.0296  0.5361
  143OSM    C4S15678   0.363   3.101   6.719 -0.1898  0.5792 -0.0726
  143OSM    H4S15679   0.346   3.028   6.800 -0.4681  2.3043  1.4810
  143OSM    C5S15680   0.396   3.222   6.753  0.7929 -0.1447  0.4746
  143OSM    H5S15681   0.415   3.295   6.673  0.8943 -0.7157 -0.0296
  143OSM    C6S15682   0.421   3.288   6.888 -0.6476  0.0341 -0.4736
  143OSM    H6S15683   0.337   3.359   6.901 -2.1589 -1.2384 -2.5539
  143OSM    H6T15684   0.514   3.348   6.880  0.4109 -1.4481  0.0644
  143OSM    C7S15685   0.427   3.207   7.017  0.1527  0.2928  0.2524
  143OSM    H7S15686   0.495   3.120   7.031  0.4226  0.2799 -1.0355
  143OSM    H7T15687   0.330   3.153   7.022 -0.0553  0.6082 -0.3616
  143OSM    C8S15688   0.416   3.298   7.144  0.0214 -0.7277 -0.3690
  143OSM    H8S15689   0.327   3.360   7.119  0.4027  0.6475  1.4665
  143OSM    H8T15690   0.499   3.372   7.148 -1.0259  0.4387  1.8037
  143OSM    C9S15691   0.402   3.228   7.273  0.5206 -0.4168  0.0538
  143OSM    H9S15692   0.485   3.160   7.301  0.9384  0.9326  2.3913
  143OSM    H9T15693   0.309   3.168   7.263 -0.7607  1.3483  0.9212
  143OSM   C10S15694   0.400   3.314   7.395  0.4094 -0.2620  0.4153
  143OSM   H10S15695   0.313   3.383   7.391  0.8724  0.3234  0.1791
  143OSM   H10T15696   0.488   3.383   7.399 -0.1811  0.7043 -1.7678
  143OSM   C11S15697   0.396   3.237   7.530 -0.2874  0.2398 -0.0689
  143OSM   H11S15698   0.483   3.168   7.534 -0.6038 -0.2927 -1.5219
  143OSM   H11T15699   0.314   3.162   7.527  1.5528 -1.8884 -3.0717
  143OSM   C12S15700   0.404   3.339   7.649 -0.0489 -0.2960 -0.1940
  143OSM   H12S15701   0.331   3.421   7.634 -0.1912 -0.1181  1.2781
  143OSM   H12T15702   0.510   3.374   7.652  0.1092 -0.2483 -3.3213
  143OSM   C13S15703   0.364   3.262   7.778 -0.2005  0.2034 -0.0436
  143OSM   H13S15704   0.427   3.171   7.770  1.2573  0.7163  3.4884
  143OSM   H13T15705   0.257   3.233   7.775  0.1759 -1.1437 -2.9396
  143OSM   C14S15706   0.409   3.340   7.910 -0.3839 -0.4139  0.0014
  143OSM   H14S15707   0.364   3.441   7.898 -0.1294 -0.1988  0.7924
  143OSM   H14T15708   0.518   3.364   7.915  0.5871 -4.2066 -0.2710
  143OSM   C15S15709   0.348   3.284   8.037 -0.4179  0.0086 -0.1057
  143OSM   H15S15710   0.238   3.270   8.032 -0.5849  0.4364  1.6092
  143OSM   H15T15711   0.376   3.337   8.131  1.9365 -1.8651  0.3517
  143OSM   C16S15712   0.398   3.139   8.066  0.2839  0.0535 -0.5370
  143OSM   H16S15713   0.508   3.141   8.080  0.4460  1.5498 -1.6840
  143OSM   H16T15714   0.388   3.076   7.976 -0.5363 -0.1816 -0.2890
  143OSM   C17S15715   0.319   3.062   8.171  0.6701  0.2274 -0.1213
  143OSM   H17S15716   0.211   3.059   8.144  0.7281  2.2542 -0.6802
  143OSM   H17T15717   0.329   3.124   8.262 -0.0338 -0.1220  0.2079
  143OSM   C18S15718   0.371   2.926   8.186 -0.3485  0.3257  0.6575
  143OSM   H18S15719   0.331   2.858   8.108  1.0834  0.9015 -0.6499
  143OSM   H18T15720   0.355   2.877   8.284  1.4171  0.1369  0.8927
  143OSM   H18U15721   0.482   2.918   8.177 -0.5040 -1.5551  0.0496
  143OSM    C1F15722   0.681   2.850   6.629  0.3668 -0.2139  0.3825
  143OSM     OF15723   0.755   2.916   6.552 -0.2134  0.7300  0.3128
  143OSM    C2F15724   0.730   2.739   6.714 -0.7697  0.0829 -0.4747
  143OSM    H2F15725   0.703   2.639   6.674 -2.3703 -0.1707  1.1252
  143OSM    H2G15726   0.679   2.742   6.813  1.5991  0.3453  0.8117
  143OSM    C3F15727   0.886   2.740   6.738 -0.9610  0.6568 -0.2266
  143OSM    H3F15728   0.933   2.721   6.639 -2.9987  0.3319 -1.1959
  143OSM    H3G15729   0.920   2.654   6.799 -1.4451  2.7810  3.3404
  143OSM    C4F15730   0.941   2.870   6.797 -0.1189  0.2128  0.4494
  143OSM    H4F15731   0.881   2.897   6.887 -0.8573 -0.3209  0.1273
  143OSM    H4G15732   0.931   2.957   6.729  2.4147  1.2223  1.2489
  143OSM    C5F15733   1.088   2.879   6.820 -0.0934 -0.3462  0.1619
  143OSM    H5F15734   1.111   2.986   6.839 -0.0686 -0.1746 -0.7798
  143OSM    H5G15735   1.139   2.844   6.728  1.9039  0.6798  0.8311
  143OSM    C6F15736   1.136   2.776   6.926  1.2219 -0.5165  0.3309
  143OSM    H6F15737   1.242   2.804   6.941  0.5315  3.2397 -0.6127
  143OSM    H6G15738   1.145   2.678   6.873  1.0534 -1.6374  2.2974
  143OSM    C7F15739   1.062   2.759   7.060 -0.1007  0.1339 -0.4562
  143OSM    H7F15740   0.963   2.711   7.046 -0.8505  1.3610  0.4246
  143OSM    H7G15741   1.034   2.858   7.102  0.2384  0.6791 -1.4614
  143OSM    C8F15742   1.133   2.684   7.172 -0.2238 -0.1509 -0.1153
  143OSM    H8F15743   1.213   2.756   7.199  0.0348 -0.7972  0.9054
  143OSM    H8G15744   1.172   2.591   7.124 -2.1006 -2.0191  1.7305
  143OSM    C9F15745   1.040   2.658   7.286  0.3364 -0.0001 -0.2706
  143OSM    H9F15746   0.945   2.620   7.246 -0.4116 -0.4591  1.8485
  143OSM   C10F15747   1.048   2.690   7.414 -0.4543  0.1329  0.2459
  143OSM   H10F15748   0.958   2.657   7.467 -0.6308 -2.9943 -1.7155
  143OSM   C11F15749   1.158   2.756   7.484 -0.1049  0.0993 -0.4240
  143OSM   H11F15750   1.134   2.864   7.495  1.6992  0.4095  0.8180
  143OSM   H11G15751   1.248   2.746   7.420  0.6296  1.3689  0.3789
  143OSM   C12F15752   1.182   2.680   7.610 -0.6166 -0.5398  0.1744
  143OSM   H12F15753   1.276   2.719   7.655 -0.3602 -1.0190  0.0597
  143OSM   H12G15754   1.186   2.571   7.589 -3.9360 -0.8556  0.7228
  143OSM   C13F15755   1.081   2.704   7.723  0.2863 -0.1782 -0.1329
  143OSM   H13F15756   0.990   2.641   7.715 -0.7074  1.2469 -0.4956
  143OSM   H13G15757   1.047   2.809   7.726  3.2246  0.8766  0.1877
  143OSM   C14F15758   1.138   2.663   7.858 -0.4701  0.4534 -0.2015
  143OSM   H14F15759   1.089   2.723   7.937 -0.7228  1.1075 -0.8388
  143OSM   H14G15760   1.247   2.685   7.868 -0.8680  2.8586 -0.5606
  143OSM   C15F15761   1.108   2.514   7.896 -0.8841 -0.0253 -0.2669
  143OSM   H15F15762   1.161   2.460   7.814 -0.7106  2.0377 -1.5747
  143OSM   H15G15763   0.999   2.499   7.887 -1.1164  1.5890 -0.3774
  143OSM   C16F15764   1.152   2.471   8.043 -0.8831  0.2251 -0.1142
  143OSM   H16F15765   1.101   2.545   8.108  0.5937  1.0037  0.1869
  143OSM   H16G15766   1.262   2.471   8.054 -0.8424 -3.8666  1.1273
  143OSM   C17F15767   1.103   2.339   8.094  1.0122 -0.9504  0.1317
  143OSM   H17F15768   1.145   2.260   8.028  0.2345 -0.4034 -1.0358
  143OSM   H17G15769   0.993   2.340   8.078  1.1435 -0.5076 -0.7776
  143OSM   C18F15770   1.134   2.306   8.239 -0.0299  0.0426 -0.2904
  143OSM   H18F15771   1.093   2.205   8.262 -0.0138  0.1127  0.0420
  143OSM   H18G15772   1.094   2.382   8.309  0.4141  0.2925 -0.3048
  143OSM   H18H15773   1.243   2.295   8.256 -0.6999 -3.2935  3.4531
  144OSM      N15774   6.272   2.746   5.983  0.3369 -0.0776  0.2323
  144OSM    C1515775   6.312   2.641   5.876 -0.2460  0.3638 -0.3317
  144OSM   H15A15776   6.336   2.692   5.784 -0.2704 -1.9931 -1.7141
  144OSM   H15B15777   6.230   2.575   5.854 -0.2403  1.2428 -3.3336
  144OSM   H15C15778   6.386   2.581   5.927 -1.1815  0.6214  1.4034
  144OSM    C1415779   6.383   2.827   6.023  0.1949  0.6014  0.1257
  144OSM   H14A15780   6.420   2.883   5.939 -0.6405  2.5610  0.9990
  144OSM   H14B15781   6.463   2.775   6.073 -0.8291  1.7373  3.2490
  144OSM   H14C15782   6.352   2.892   6.104 -2.4499 -1.4786  0.9329
  144OSM    C1315783   6.173   2.833   5.914  0.8216  0.1675  0.2134
  144OSM   H13A15784   6.182   2.925   5.971  1.3889 -0.0826  0.5353
  144OSM   H13B15785   6.076   2.787   5.927 -0.6076  2.6402 -0.8405
  144OSM   H13C15786   6.202   2.852   5.812 -0.2383 -1.0040 -0.3357
  144OSM    C1215787   6.217   2.676   6.105 -0.2343 -0.0053  0.2491
  144OSM   H12A15788   6.286   2.598   6.135 -0.2986 -0.1130  0.1173
  144OSM   H12B15789   6.126   2.622   6.082 -0.3627  0.3801 -0.1620
  144OSM    C1115790   6.189   2.769   6.226  0.3964 -0.0825 -0.4695
  144OSM   H11A15791   6.276   2.826   6.266 -1.1089  0.2427  2.6789
  144OSM   H11B15792   6.171   2.716   6.321  1.0059  2.1071  0.9577
  144OSM      P15793   5.941   2.805   6.224  0.0856  0.5295  0.1650
  144OSM    O1315794   5.835   2.902   6.184 -0.4118  0.3492  0.0083
  144OSM    O1415795   5.928   2.669   6.165 -0.4127  0.2736  0.6340
  144OSM    O1115796   5.939   2.790   6.380 -0.5738 -0.6293 -0.4409
  144OSM    O1215797   6.084   2.867   6.195 -0.4419  0.1331 -0.2807
  144OSM    C1S15798   5.960   2.906   6.471 -0.1040  0.3848  1.2408
  144OSM    H1S15799   5.948   3.002   6.417  0.0306  0.1134  0.7099
  144OSM    H1T15800   6.060   2.904   6.519  0.9300  0.7719 -0.7630
  144OSM     NF15801   5.838   3.021   6.659 -0.2243 -0.7226  0.5917
  144OSM    HNF15802   5.867   3.025   6.755 -0.9536 -0.5511  0.8119
  144OSM    C2S15803   5.853   2.896   6.585 -0.8119  0.7046  0.3761
  144OSM    H2S15804   5.753   2.866   6.547 -1.3283  1.6936  0.9132
  144OSM    C3S15805   5.880   2.772   6.676 -0.3934  0.5234 -0.3497
  144OSM    H3S15806   5.986   2.779   6.708 -1.0679  0.4195  2.0993
  144OSM     O315807   5.874   2.654   6.598  0.2540 -0.3516 -0.0173
  144OSM    HO315808   5.887   2.684   6.508  1.3538  1.6081  0.7444
  144OSM    C4S15809   5.790   2.762   6.806 -0.0019 -0.6255  0.1741
  144OSM    H4S15810   5.837   2.804   6.896 -0.5131 -3.6596  1.9946
  144OSM    C5S15811   5.667   2.719   6.818 -0.7393 -0.1555 -0.2347
  144OSM    H5S15812   5.616   2.662   6.739  0.1542 -1.6494  0.2208
  144OSM    C6S15813   5.578   2.732   6.940  0.1281 -0.0914  0.2323
  144OSM    H6S15814   5.504   2.650   6.950  1.6356 -1.6834 -1.0848
  144OSM    H6T15815   5.506   2.816   6.927  1.1830  0.5964 -1.5565
  144OSM    C7S15816   5.650   2.756   7.065 -0.1802 -0.5008  0.1167
  144OSM    H7S15817   5.694   2.858   7.064 -0.9662 -0.1253  1.4877
  144OSM    H7T15818   5.730   2.680   7.083 -0.4712 -1.2541 -1.5481
  144OSM    C8S15819   5.552   2.750   7.182  0.0559  0.2305 -1.0352
  144OSM    H8S15820   5.520   2.644   7.192  3.1763 -0.8038 -1.0264
  144OSM    H8T15821   5.465   2.818   7.173  0.2687  0.4154 -1.7265
  144OSM    C9S15822   5.630   2.766   7.309  0.0615 -0.4138 -0.5508
  144OSM    H9S15823   5.689   2.860   7.312 -2.0239  0.9215  0.5206
  144OSM    H9T15824   5.702   2.681   7.317  1.1115  0.4749 -0.4187
  144OSM   C10S15825   5.538   2.762   7.434 -0.2199  0.3832 -0.0001
  144OSM   H10S15826   5.462   2.683   7.422 -0.6504  0.9387 -1.0019
  144OSM   H10T15827   5.476   2.853   7.423 -1.9163 -0.7457 -0.1530
  144OSM   C11S15828   5.622   2.770   7.567 -0.0203 -0.0160  0.0298
  144OSM   H11S15829   5.677   2.865   7.581 -1.6908  1.0018 -0.0367
  144OSM   H11T15830   5.702   2.693   7.554 -0.7630 -0.8761  0.4493
  144OSM   C12S15831   5.536   2.747   7.689 -0.7555 -0.2462  0.1642
  144OSM   H12S15832   5.499   2.642   7.687 -0.7869 -0.3228  2.3856
  144OSM   H12T15833   5.448   2.816   7.692  1.0031  2.0748  1.7032
  144OSM   C13S15834   5.598   2.770   7.825  0.1898  0.0998 -0.0669
  144OSM   H13S15835   5.616   2.879   7.831  0.0895  0.2422 -1.8471
  144OSM   H13T15836   5.703   2.734   7.822  0.6948  1.5402 -0.7635
  144OSM   C14S15837   5.528   2.710   7.947  0.5684  0.1937 -0.0201
  144OSM   H14S15838   5.491   2.606   7.932  0.4467 -0.0012  1.5060
  144OSM   H14T15839   5.433   2.765   7.962  1.0839  1.1594 -0.2089
  144OSM   C15S15840   5.607   2.736   8.078  0.4591  0.2213 -0.5618
  144OSM   H15S15841   5.636   2.842   8.084  2.7047 -0.4278  1.4134
  144OSM   H15T15842   5.699   2.677   8.057  0.7225 -0.3638  1.9131
  144OSM   C16S15843   5.546   2.694   8.208  0.2336 -0.1315 -0.4017
  144OSM   H16S15844   5.443   2.735   8.221 -0.6117 -1.6691 -1.7500
  144OSM   H16T15845   5.609   2.737   8.289 -1.3151  0.3954  0.5705
  144OSM   C17S15846   5.551   2.538   8.221  0.2931 -0.1274  0.6589
  144OSM   H17S15847   5.652   2.496   8.243  0.6014 -0.6101 -1.4102
  144OSM   H17T15848   5.519   2.490   8.126  0.2388 -1.9206  1.5461
  144OSM   C18S15849   5.455   2.490   8.327  0.6969  0.4039 -0.2556
  144OSM   H18S15850   5.348   2.516   8.312  0.4398  0.8366  1.9960
  144OSM   H18T15851   5.478   2.517   8.433  3.3805 -0.7003 -0.4653
  144OSM   H18U15852   5.458   2.379   8.333  0.0696  0.4322  0.7772
  144OSM    C1F15853   5.780   3.127   6.604  0.1192 -0.2629 -0.1824
  144OSM     OF15854   5.721   3.129   6.493  0.3417 -0.1429  0.3682
  144OSM    C2F15855   5.789   3.259   6.681  0.5131  0.9428 -0.0420
  144OSM    H2F15856   5.824   3.337   6.611 -0.8985 -0.3872 -2.3551
  144OSM    H2G15857   5.844   3.256   6.778  0.3839  3.8255  0.2053
  144OSM    C3F15858   5.640   3.295   6.725 -0.3917  0.0583  0.1684
  144OSM    H3F15859   5.579   3.310   6.633 -0.1309 -1.4188 -0.2764
  144OSM    H3G15860   5.637   3.393   6.777  1.2889 -0.7916  1.9571
  144OSM    C4F15861   5.564   3.196   6.802  0.4193 -0.3820  0.0203
  144OSM    H4F15862   5.568   3.095   6.756 -0.4028  0.0030 -0.9434
  144OSM    H4G15863   5.460   3.232   6.814  0.0417 -1.2540 -0.5332
  144OSM    C5F15864   5.645   3.170   6.932  0.3514 -0.3834  0.2997
  144OSM    H5F15865   5.687   3.266   6.969  2.0748 -1.1055  0.2940
  144OSM    H5G15866   5.730   3.103   6.907  0.9698  1.1784 -2.1180
  144OSM    C6F15867   5.557   3.109   7.039  0.6231 -0.2796 -0.2716
  144OSM    H6F15868   5.620   3.059   7.116  1.5763  0.0688 -0.8127
  144OSM    H6G15869   5.485   3.041   6.988  1.7953 -2.6867  1.0792
  144OSM    C7F15870   5.470   3.205   7.118  0.4310 -0.2900  0.6230
  144OSM    H7F15871   5.414   3.267   7.045 -0.7235 -1.7231  0.2401
  144OSM    H7G15872   5.529   3.278   7.178  2.2468 -0.6189 -0.6884
  144OSM    C8F15873   5.376   3.132   7.210 -0.5038  0.3258  0.5307
  144OSM    H8F15874   5.441   3.071   7.276 -0.4243  0.2006  0.3397
  144OSM    H8G15875   5.310   3.061   7.156  0.2217 -0.9953  1.3258
  144OSM    C9F15876   5.290   3.225   7.285 -0.0373 -0.5493  0.2575
  144OSM    H9F15877   5.268   3.324   7.242  1.0517  0.4445  1.8792
  144OSM   C10F15878   5.223   3.190   7.398  0.1711  0.4271  0.2130
  144OSM   H10F15879   5.176   3.271   7.456 -1.4868  0.0770 -0.5860
  144OSM   C11F15880   5.229   3.055   7.470 -0.4428 -0.4814 -0.8338
  144OSM   H11F15881   5.313   2.994   7.432  0.1183 -0.2405 -0.0104
  144OSM   H11G15882   5.133   3.001   7.454 -1.2152  0.8702 -0.9428
  144OSM   C12F15883   5.253   3.070   7.623 -0.5016 -0.1396 -0.1693
  144OSM   H12F15884   5.321   3.153   7.652  1.7134 -2.3200  1.2842
  144OSM   H12G15885   5.294   2.972   7.656 -1.8802 -0.7322 -0.1558
  144OSM   C13F15886   5.128   3.082   7.708 -0.1244  0.0227 -0.6736
  144OSM   H13F15887   5.046   3.011   7.684 -1.0175 -0.6260  3.4664
  144OSM   H13G15888   5.089   3.185   7.691 -2.1034 -0.0650  2.4875
  144OSM   C14F15889   5.141   3.075   7.858  0.6115 -0.2997 -0.1853
  144OSM   H14F15890   5.215   3.151   7.890 -0.6431 -0.0735  2.5135
  144OSM   H14G15891   5.181   2.983   7.906  0.1329 -0.2180  0.3834
  144OSM   C15F15892   5.002   3.115   7.923 -0.4538  0.1059  0.0456
  144OSM   H15F15893   4.939   3.024   7.926  2.0009 -1.6850  0.2541
  144OSM   H15G15894   4.960   3.182   7.845  1.8258 -2.0822 -3.3228
  144OSM   C16F15895   5.017   3.180   8.064  0.4321  0.1170 -0.3335
  144OSM   H16F15896   5.085   3.117   8.125  1.2336  0.2740 -1.0283
  144OSM   H16G15897   4.925   3.174   8.126 -1.0858  0.3143 -2.4714
  144OSM   C17F15898   5.085   3.325   8.067 -0.2229  0.4713 -0.0700
  144OSM   H17F15899   5.009   3.384   8.011 -0.6935 -0.3017 -0.2569
  144OSM   H17G15900   5.178   3.319   8.008 -0.9369  0.7089 -1.2453
  144OSM   C18F15901   5.107   3.372   8.209  0.3766 -0.2232 -0.4436
  144OSM   H18F15902   5.015   3.388   8.268  0.5261  1.7693 -0.6730
  144OSM   H18G15903   5.145   3.474   8.186  0.6833 -0.3775 -0.6215
  144OSM   H18H15904   5.182   3.313   8.265  0.8359  0.4206 -0.3700
  145SAPE     N15905   1.184   5.041  10.886  0.7102 -0.5958  0.1007
  145SAPE   HN115906   1.091   5.076  10.915  0.3081 -1.5806  0.0488
  145SAPE   HN215907   1.178   4.940  10.860  1.7842 -1.4340  2.7545
  145SAPE   HN315908   1.243   5.055  10.971 -0.1044  1.4703  0.3799
  145SAPE   C1215909   1.229   5.128  10.777 -0.1089 -0.2094 -0.3967
  145SAPE  H12A15910   1.334   5.162  10.789 -0.2688  0.3871 -0.6494
  145SAPE  H12B15911   1.159   5.213  10.764  0.0643 -0.1854 -1.2420
  145SAPE   C1115912   1.223   5.052  10.641  0.1850 -0.4648 -0.5814
  145SAPE  H11A15913   1.286   5.111  10.570 -1.8408  0.9787 -1.3015
  145SAPE  H11B15914   1.118   5.066  10.607 -1.0298 -1.3571  2.5147
  145SAPE     P15915   1.404   4.878  10.645  0.2917 -0.1799 -0.3935
  145SAPE   O1315916   1.483   4.980  10.578 -0.1285  0.0863  0.6925
  145SAPE   O1415917   1.447   4.846  10.787 -0.0944  0.3399  0.1271
  145SAPE   O1215918   1.252   4.917  10.649 -0.0976  0.1486  0.0374
  145SAPE   O1115919   1.406   4.745  10.551 -0.6045 -0.0762 -0.2608
  145SAPE    C115920   1.290   4.655  10.539  0.2319  0.1438 -0.2651
  145SAPE    HA15921   1.312   4.553  10.577  0.4657  0.3048  0.0312
  145SAPE    HB15922   1.206   4.684  10.606  0.8829  0.5149  0.3999
  145SAPE    C215923   1.230   4.655  10.395  0.1104 -0.7025 -0.5112
  145SAPE    HS15924   1.144   4.585  10.387 -2.0149  1.7429 -0.7537
  145SAPE   O2115925   1.340   4.642  10.295  0.0893  0.3589  0.0576
  145SAPE   C2115926   1.372   4.509  10.299  0.1028 -0.2127 -0.7530
  145SAPE   O2215927   1.304   4.420  10.347 -0.1322  0.1096  1.0636
  145SAPE   C2215928   1.503   4.488  10.225  0.7385  0.1912  0.6507
  145SAPE   H2R15929   1.582   4.536  10.287 -1.3352  3.4870  0.9618
  145SAPE   H2S15930   1.529   4.382  10.204  1.2544 -0.1655  2.8281
  145SAPE    C315931   1.150   4.789  10.367  0.1999 -0.5687 -0.3234
  145SAPE    HX15932   1.229   4.867  10.373  0.0703 -0.5769  2.3134
  145SAPE    HY15933   1.067   4.810  10.438 -0.0075  3.1062 -1.4245
  145SAPE   O3115934   1.094   4.786  10.233 -0.1525  0.0655  0.2195
  145SAPE   C3115935   0.974   4.727  10.227  0.3126  0.4384  0.2720
  145SAPE   O3215936   0.923   4.661  10.315 -0.6091  0.6787 -0.4897
  145SAPE   C3215937   0.913   4.737  10.085 -0.1675  0.5115  0.4148
  145SAPE   H2X15938   0.978   4.809  10.030  0.8867 -0.6915  0.0200
  145SAPE   H2Y15939   0.811   4.772  10.111 -0.4169  0.0242  0.1177
  145SAPE   C2315940   1.487   4.568  10.093 -0.1827 -0.3733  0.1818
  145SAPE   H3R15941   1.480   4.677  10.108 -1.2070 -0.4222  0.1023
  145SAPE   H3S15942   1.390   4.547  10.044  0.0293  0.8645 -0.7914
  145SAPE   C2415943   1.598   4.541   9.983 -0.2282 -0.9947  0.1143
  145SAPE   H4R15944   1.691   4.594  10.014 -1.7832  2.5704 -0.8649
  145SAPE   H4S15945   1.579   4.617   9.905  2.6798  0.6036  0.8130
  145SAPE   C2515946   1.609   4.403   9.932  0.1830 -0.1116  0.3169
  145SAPE   H5R15947   1.640   4.323  10.000  0.7599 -0.5835 -0.4903
  145SAPE   C2615948   1.562   4.361   9.813  0.0887 -0.3293  0.5749
  145SAPE   H6R15949   1.568   4.254   9.788 -0.6287 -0.6687  1.7197
  145SAPE   C2715950   1.495   4.449   9.709 -0.2293  0.1928 -0.6801
  145SAPE   H7R15951   1.411   4.505   9.755 -0.7839 -1.0843 -0.0905
  145SAPE   H7S15952   1.457   4.377   9.633  0.7128  1.0826 -2.0653
  145SAPE   C2815953   1.575   4.556   9.649 -0.5390 -0.2112  0.2954
  145SAPE   H8R15954   1.602   4.643   9.711 -3.1168  0.5114  0.5280
  145SAPE   C2915955   1.629   4.559   9.524  0.3649 -0.4541  0.3211
  145SAPE   H9R15956   1.686   4.645   9.487  0.6079 -1.4174 -1.7044
  145SAPE  C21015957   1.612   4.450   9.417  0.5881 -0.3125  0.0661
  145SAPE  H10R15958   1.517   4.461   9.361  1.1709 -0.0339 -0.8838
  145SAPE  H10S15959   1.620   4.353   9.471  0.6319 -1.2714 -1.6162
  145SAPE  C21115960   1.717   4.443   9.304 -0.5200 -0.0859 -0.4993
  145SAPE  H11R15961   1.780   4.533   9.300  0.3346 -0.5005  1.8758
  145SAPE  C21215962   1.753   4.335   9.223  0.3391 -0.3615  0.3369
  145SAPE  H12R15963   1.836   4.342   9.152 -0.1246  1.4137 -0.0761
  145SAPE  C21315964   1.688   4.195   9.222 -0.8014 -0.5669  0.4336
  145SAPE  H13R15965   1.671   4.157   9.325  1.4992 -1.3464  0.5874
  145SAPE  H13S15966   1.765   4.125   9.183  0.6159 -0.4127  2.7454
  145SAPE  C21415967   1.569   4.197   9.126  0.3442 -0.3830  0.0978
  145SAPE  H14R15968   1.471   4.215   9.172 -0.7864 -2.0224 -1.5314
  145SAPE  C21515969   1.575   4.161   9.001  0.1619 -0.0899 -0.1844
  145SAPE  H15R15970   1.479   4.154   8.948 -0.3782 -0.9043  0.8591
  145SAPE  C21615971   1.702   4.123   8.926  0.8615  0.1650  0.1755
  145SAPE  H16R15972   1.793   4.152   8.983  0.1107  2.5253  0.3093
  145SAPE  H16S15973   1.708   4.200   8.846 -0.4236 -0.9087 -1.0078
  145SAPE  C21715974   1.709   3.977   8.867 -0.3354 -0.3221 -0.7423
  145SAPE  H17R15975   1.611   3.947   8.826 -0.2839 -0.5725 -0.6833
  145SAPE  H17S15976   1.723   3.909   8.954 -0.1241  1.5108  0.7185
  145SAPE  C21815977   1.813   3.962   8.755  0.7012  0.0166 -0.0953
  145SAPE  H18R15978   1.780   4.027   8.672  2.0448  0.4930 -0.2924
  145SAPE  H18S15979   1.823   3.860   8.712 -1.9804 -0.5273  0.3794
  145SAPE  C21915980   1.947   4.006   8.792  0.2097 -0.2593  0.2670
  145SAPE  H19R15981   1.948   4.104   8.845 -0.6180 -1.1938  2.1265
  145SAPE  H19S15982   2.018   4.016   8.707  0.5564  0.3780  0.6213
  145SAPE  C22015983   2.029   3.917   8.883 -0.3491 -0.0851 -0.5203
  145SAPE  H20R15984   2.116   3.977   8.920 -1.2422  0.5015  0.6882
  145SAPE  H20S15985   2.073   3.828   8.832 -1.0828  0.3894 -2.0341
  145SAPE  H20T15986   1.966   3.874   8.963 -0.1670  1.0469  0.2478
  145SAPE   C3315987   0.913   4.594  10.021 -0.6204  0.4373 -0.2013
  145SAPE   H3X15988   0.867   4.603   9.921  1.7555 -0.9220 -1.4960
  145SAPE   H3Y15989   0.870   4.512  10.083  0.2378  0.8785  1.0134
  145SAPE   C3415990   1.058   4.534  10.010 -0.2253 -0.3385  0.2319
  145SAPE   H4X15991   1.053   4.423  10.011 -3.3118 -0.2873  2.1736
  145SAPE   H4Y15992   1.110   4.562  10.104 -0.4506  0.2275  0.1932
  145SAPE   C3515993   1.131   4.598   9.884  0.5109  0.5001  0.1069
  145SAPE   H5X15994   1.238   4.568   9.890 -0.0106 -1.6921 -0.7360
  145SAPE   H5Y15995   1.134   4.709   9.891 -1.2133  0.5083  1.4480
  145SAPE   C3615996   1.063   4.548   9.755 -0.1594 -0.5112 -0.4570
  145SAPE   H6X15997   0.952   4.538   9.764  0.1710 -3.1462  1.9581
  145SAPE   H6Y15998   1.083   4.440   9.746 -0.6973 -0.5233 -1.8328
  145SAPE   C3715999   1.105   4.623   9.624 -0.3403  0.8637 -0.5399
  145SAPE   H7X16000   1.212   4.653   9.627 -0.9899  3.2947  0.9232
  145SAPE   H7Y16001   1.047   4.718   9.620 -2.6380 -0.4443 -0.4582
  145SAPE   C3816002   1.078   4.547   9.495 -0.6512  0.4222 -0.2566
  145SAPE   H8X16003   0.970   4.521   9.497 -0.4894 -0.3913 -1.3445
  145SAPE   H8Y16004   1.138   4.453   9.497 -1.3330 -0.0666  2.6223
  145SAPE   C3916005   1.104   4.630   9.369 -0.0441 -0.1432  0.0569
  145SAPE   H9X16006   1.208   4.670   9.373 -0.6625  1.6046 -0.5227
  145SAPE   H9Y16007   1.038   4.719   9.370 -2.1522 -1.6106  2.0056
  145SAPE  C31016008   1.060   4.566   9.236 -0.5673  0.1904  0.2198
  145SAPE  H10X16009   1.102   4.648   9.173  1.9464 -1.3998 -0.3039
  145SAPE  H10Y16010   0.951   4.560   9.215  0.0030 -0.0062 -3.3067
  145SAPE  C31116011   1.131   4.433   9.208 -0.8029 -0.0330  0.0730
  145SAPE  H11X16012   1.089   4.344   9.260  0.6385 -1.2391 -0.7303
  145SAPE  H11Y16013   1.236   4.443   9.243  0.2231 -4.4667 -1.1545
  145SAPE  C31216014   1.130   4.375   9.065  0.6860  0.2107  0.5375
  145SAPE  H12X16015   1.024   4.357   9.037  1.2159  0.3285 -1.6784
  145SAPE  H12Y16016   1.187   4.280   9.055  0.8992  0.4629 -0.8067
  145SAPE  C31316017   1.206   4.456   8.964 -0.4132 -0.1859  0.0276
  145SAPE  H13X16018   1.155   4.554   8.954 -1.0189 -0.5955 -1.0769
  145SAPE  H13Y16019   1.219   4.414   8.862  1.7562 -0.1750  0.2401
  145SAPE  C31416020   1.345   4.516   9.013 -0.1790 -0.3551 -0.1782
  145SAPE  H14X16021   1.412   4.436   9.051 -1.1058 -1.7677 -1.4129
  145SAPE  H14Y16022   1.338   4.578   9.106  3.7409 -0.7081  0.5153
  145SAPE  C31516023   1.408   4.600   8.895  0.4888 -0.3811 -1.1809
  145SAPE  H15X16024   1.340   4.688   8.891  1.8408  0.8093  0.6482
  145SAPE  H15Y16025   1.423   4.533   8.808  0.9975 -1.4521 -0.2910
  145SAPE  C31616026   1.551   4.653   8.929  0.2814 -0.3186 -0.5655
  145SAPE  H16X16027   1.592   4.702   8.838 -0.3223  1.2292 -0.0384
  145SAPE  H16Y16028   1.616   4.564   8.943  0.2345 -0.4727 -1.2886
  145SAPE  C31716029   1.567   4.729   9.067  0.7058 -0.4444 -0.4107
  145SAPE  H17X16030   1.671   4.720   9.104 -0.3020  2.1006  3.7513
  145SAPE  H17Y16031   1.501   4.686   9.145  2.8936 -1.2342  1.0840
  145SAPE  C31816032   1.537   4.884   9.048 -0.0034 -0.2291  0.2418
  145SAPE  H18X16033   1.586   4.923   8.956 -2.2948  1.5393 -0.3415
  145SAPE  H18Y16034   1.576   4.937   9.137  0.9248  1.2657 -1.0072
  145SAPE  H18Z16035   1.428   4.897   9.028 -0.0196 -0.5791  0.0975
  146SAPE     N16036   2.792   6.127  10.657  0.5760 -0.3253 -0.0831
  146SAPE   HN116037   2.819   6.132  10.757 -2.0943  0.3466  0.6821
  146SAPE   HN216038   2.854   6.191  10.604 -1.1677  0.6199 -1.0824
  146SAPE   HN316039   2.693   6.159  10.656  0.5545 -0.3481  0.7634
  146SAPE   C1216040   2.812   5.983  10.622  0.3463 -0.6582  0.8926
  146SAPE  H12A16041   2.809   5.976  10.511  0.0107 -1.6904  0.9515
  146SAPE  H12B16042   2.725   5.926  10.661 -1.8512 -0.2856 -2.9996
  146SAPE   C1116043   2.949   5.931  10.663 -0.3312 -0.3815 -0.6817
  146SAPE  H11A16044   2.982   5.839  10.610 -0.4845  0.0192 -1.4903
  146SAPE  H11B16045   2.934   5.897  10.768 -1.2359  1.3079 -0.2294
  146SAPE     P16046   3.190   6.039  10.656  0.1245  0.2607  0.1689
  146SAPE   O1316047   3.239   6.174  10.624 -0.4107 -0.2656  0.0839
  146SAPE   O1416048   3.219   5.979  10.792  0.3735 -0.0370  0.1157
  146SAPE   O1216049   3.036   6.046  10.651 -0.0189  0.3162  0.3967
  146SAPE   O1116050   3.225   5.932  10.547 -0.4283 -0.1602  0.3849
  146SAPE    C116051   3.366   5.886  10.549  0.0236  0.2311 -0.3043
  146SAPE    HA16052   3.439   5.963  10.583 -2.2084  0.5863  4.5832
  146SAPE    HB16053   3.371   5.802  10.621 -2.5368 -0.2212 -0.5676
  146SAPE    C216054   3.410   5.823  10.410 -0.1870 -0.4304 -0.2817
  146SAPE    HS16055   3.520   5.810  10.414 -0.1977 -0.4124  0.1563
  146SAPE   O2116056   3.366   5.907  10.305 -0.1025 -0.0737  0.3868
  146SAPE   C2116057   3.418   6.029  10.299  0.3635  0.4886 -0.3837
  146SAPE   O2216058   3.488   6.076  10.385 -0.5039 -0.7184 -0.2267
  146SAPE   C2216059   3.368   6.104  10.175 -0.5366 -0.6297 -0.7170
  146SAPE   H2R16060   3.282   6.045  10.137 -1.0618  0.4900 -1.3005
  146SAPE   H2S16061   3.322   6.201  10.199  2.5411  0.3424  2.0540
  146SAPE    C316062   3.337   5.695  10.381 -0.6989  0.3883 -0.2175
  146SAPE    HX16063   3.228   5.700  10.402 -0.6928  1.6956 -0.4035
  146SAPE    HY16064   3.378   5.621  10.454  0.1841 -0.7745 -1.8020
  146SAPE   O3116065   3.382   5.646  10.254 -0.1738 -0.4542 -0.2074
  146SAPE   C3116066   3.297   5.642  10.157  0.1761  0.6140 -0.5826
  146SAPE   O3216067   3.184   5.691  10.162  0.0588  0.2101 -0.0647
  146SAPE   C3216068   3.354   5.555  10.047  0.7721  0.2523  0.7767
  146SAPE   H2X16069   3.358   5.447  10.072 -0.0003 -0.6926 -2.6630
  146SAPE   H2Y16070   3.460   5.585  10.029  0.7970  0.3409  1.0637
  146SAPE   C2316071   3.488   6.119  10.075  0.0328  0.2456  0.3428
  146SAPE   H3R16072   3.568   6.043  10.089 -0.9993 -0.6088  1.9959
  146SAPE   H3S16073   3.542   6.211  10.108  0.4896  0.9225 -2.1333
  146SAPE   C2416074   3.454   6.135   9.925 -0.1541  0.1404 -0.3772
  146SAPE   H4R16075   3.529   6.197   9.870 -1.1009  0.2527 -1.5829
  146SAPE   H4S16076   3.361   6.195   9.921  0.6352  1.4174 -0.1587
  146SAPE   C2516077   3.441   6.005   9.848  0.3207 -0.5192 -0.4927
  146SAPE   H5R16078   3.367   5.934   9.889 -0.5549  1.7076  2.0814
  146SAPE   C2616079   3.490   5.975   9.733  0.8629  0.4398 -1.1214
  146SAPE   H6R16080   3.464   5.876   9.693 -0.7570  0.5431 -0.4025
  146SAPE   C2716081   3.580   6.055   9.642  0.2274  0.0838 -0.3039
  146SAPE   H7R16082   3.665   5.991   9.611  0.6008 -0.4250  1.6135
  146SAPE   H7S16083   3.619   6.146   9.692 -2.2799  1.7176 -1.1038
  146SAPE   C2816084   3.501   6.096   9.522  0.1138  0.4210 -0.6716
  146SAPE   H8R16085   3.423   6.172   9.537 -2.2075 -1.1485 -3.6855
  146SAPE   C2916086   3.523   6.050   9.398 -0.3374 -0.5000  0.1310
  146SAPE   H9R16087   3.458   6.085   9.317 -0.2547  0.4120  0.4501
  146SAPE  C21016088   3.630   5.955   9.340  0.7873 -0.4562 -0.5887
  146SAPE  H10R16089   3.713   5.946   9.413  0.1539 -1.1165  0.0648
  146SAPE  H10S16090   3.665   5.999   9.244 -1.6090  0.1305 -1.2603
  146SAPE  C21116091   3.582   5.809   9.316  0.4599 -0.5720  0.1730
  146SAPE  H11R16092   3.580   5.761   9.415  0.7177  0.3160  0.6238
  146SAPE  C21216093   3.556   5.739   9.201 -0.0788  0.1974 -0.4186
  146SAPE  H12R16094   3.519   5.636   9.216  0.1546  0.2582  0.6741
  146SAPE  C21316095   3.564   5.791   9.059 -0.0543  0.4487  0.1778
  146SAPE  H13R16096   3.588   5.900   9.058  0.7889  0.3032 -1.9741
  146SAPE  H13S16097   3.466   5.777   9.008 -1.4904  1.4558  2.5160
  146SAPE  C21416098   3.684   5.721   8.991 -0.3330  0.0188  0.3159
  146SAPE  H14R16099   3.786   5.747   9.024 -0.0742 -0.4107 -0.1290
  146SAPE  C21516100   3.677   5.623   8.894 -0.0489  0.4384 -0.2834
  146SAPE  H15R16101   3.769   5.589   8.844  0.1171  0.7421 -0.1886
  146SAPE  C21616102   3.561   5.559   8.818  0.3709  0.0137  0.3297
  146SAPE  H16R16103   3.462   5.579   8.866  0.7350  2.5239  0.1865
  146SAPE  H16S16104   3.571   5.449   8.821 -2.2172 -0.3100 -0.1275
  146SAPE  C21716105   3.552   5.606   8.672  0.0842  0.0821  0.8999
  146SAPE  H17R16106   3.462   5.556   8.630  1.0370  1.1114 -2.8042
  146SAPE  H17S16107   3.639   5.566   8.615  0.3969 -0.5610  1.8089
  146SAPE  C21816108   3.528   5.755   8.638  0.1442 -0.2117  0.5254
  146SAPE  H18R16109   3.618   5.819   8.645  1.2436 -1.7518  0.9021
  146SAPE  H18S16110   3.454   5.797   8.710 -1.3132 -0.5473 -0.7197
  146SAPE  C21916111   3.483   5.769   8.492  1.2536 -0.4047 -0.5996
  146SAPE  H19R16112   3.411   5.688   8.468  0.1062  0.5258 -0.4402
  146SAPE  H19S16113   3.571   5.760   8.425  0.2015 -0.2946 -2.0552
  146SAPE  C22016114   3.417   5.906   8.458  0.0519 -0.2733 -0.4295
  146SAPE  H20R16115   3.306   5.896   8.456  0.1077 -0.9223 -0.5235
  146SAPE  H20S16116   3.454   5.930   8.356 -1.5775  0.5570 -0.8555
  146SAPE  H20T16117   3.435   5.978   8.540 -0.3874 -2.5209  1.7420
  146SAPE   C3316118   3.266   5.568   9.921 -0.2880 -0.0746  0.0838
  146SAPE   H3X16119   3.213   5.664   9.905 -0.1359  0.0357  0.2324
  146SAPE   H3Y16120   3.179   5.501   9.938 -2.1837  1.5912 -2.4211
  146SAPE   C3416121   3.347   5.537   9.800 -0.4800 -0.5036  0.3332
  146SAPE   H4X16122   3.402   5.441   9.799 -0.3369 -0.4366 -0.9388
  146SAPE   H4Y16123   3.410   5.628   9.790  0.8137 -1.5410 -1.9922
  146SAPE   C3516124   3.255   5.512   9.679 -0.4912 -0.5183  0.1300
  146SAPE   H5X16125   3.171   5.583   9.668 -0.2158 -0.2305 -0.1417
  146SAPE   H5Y16126   3.210   5.415   9.709  0.9596 -1.0591  0.6401
  146SAPE   C3616127   3.321   5.487   9.552 -0.4131 -0.3501  0.1061
  146SAPE   H6X16128   3.394   5.404   9.563 -0.2306 -0.1568  0.3836
  146SAPE   H6Y16129   3.373   5.577   9.514 -0.3892  0.0596  1.0720
  146SAPE   C3716130   3.225   5.454   9.427 -0.7972 -0.4347 -0.4115
  146SAPE   H7X16131   3.136   5.519   9.440  0.1022  0.2101  4.4426
  146SAPE   H7Y16132   3.204   5.346   9.436 -3.2801  0.1576  2.6032
  146SAPE   C3816133   3.291   5.459   9.289 -0.9315  0.5128  0.6993
  146SAPE   H8X16134   3.383   5.398   9.292 -0.0361  1.7759  0.1030
  146SAPE   H8Y16135   3.308   5.566   9.263  0.4888  1.1811  3.9320
  146SAPE   C3916136   3.207   5.402   9.174  0.1907  0.1200 -0.3580
  146SAPE   H9X16137   3.125   5.472   9.148 -0.0616  0.3190  0.9155
  146SAPE   H9Y16138   3.166   5.306   9.213 -2.0885  1.1517 -0.0946
  146SAPE  C31016139   3.276   5.374   9.038 -0.0845  0.0398  0.0865
  146SAPE  H10X16140   3.349   5.292   9.056 -2.0079 -2.6562 -3.3224
  146SAPE  H10Y16141   3.337   5.459   8.999 -1.4465  1.4182  0.8319
  146SAPE  C31116142   3.187   5.334   8.923  0.1194  0.7262  0.2253
  146SAPE  H11X16143   3.118   5.419   8.904  0.4791  0.9042 -0.3008
  146SAPE  H11Y16144   3.134   5.241   8.953 -0.4970  0.9327 -0.2085
  146SAPE  C31216145   3.265   5.305   8.789  0.0425  0.0576 -0.7037
  146SAPE  H12X16146   3.318   5.398   8.759  0.6527  0.3440  1.1576
  146SAPE  H12Y16147   3.178   5.283   8.723 -0.4955  2.2590 -0.8227
  146SAPE  C31316148   3.370   5.188   8.787 -0.1628 -0.4253 -0.2376
  146SAPE  H13X16149   3.332   5.100   8.843  1.8671 -0.8355  0.5976
  146SAPE  H13Y16150   3.459   5.234   8.836 -1.1216  1.0493  0.1685
  146SAPE  C31416151   3.398   5.142   8.647 -0.4939 -0.1372  0.2199
  146SAPE  H14X16152   3.305   5.095   8.607 -0.9040 -0.8431  1.9212
  146SAPE  H14Y16153   3.466   5.054   8.654 -0.5949 -0.5388 -2.6850
  146SAPE  C31516154   3.455   5.248   8.560  0.1919  0.3297 -0.2713
  146SAPE  H15X16155   3.553   5.275   8.605  0.4446 -3.6814  2.1638
  146SAPE  H15Y16156   3.383   5.332   8.552 -1.6200 -0.9726  1.2587
  146SAPE  C31616157   3.503   5.202   8.421  0.2358 -0.3047 -0.1218
  146SAPE  H16X16158   3.413   5.191   8.357 -0.5861  0.1966  0.9115
  146SAPE  H16Y16159   3.564   5.110   8.439  0.1116 -0.7240 -1.7358
  146SAPE  C31716160   3.593   5.308   8.362 -0.9082  0.3806  0.8251
  146SAPE  H17X16161   3.685   5.314   8.425 -0.9469 -0.8245  1.0212
  146SAPE  H17Y16162   3.563   5.414   8.368  3.5861  1.8716  0.6191
  146SAPE  C31816163   3.649   5.275   8.214  0.1979  0.0619  0.6671
  146SAPE  H18X16164   3.554   5.239   8.169 -1.4799  2.8098  1.7241
  146SAPE  H18Y16165   3.732   5.203   8.202 -0.6012 -0.6998 -0.5501
  146SAPE  H18Z16166   3.671   5.370   8.160 -0.5030 -0.3522 -0.3689
  147SAPE     N16167   3.434   0.875  10.921  0.1149 -0.6959  0.2792
  147SAPE   HN116168   3.449   0.836  10.826 -1.6718  2.2334 -1.3655
  147SAPE   HN216169   3.487   0.963  10.907 -0.2245 -0.4357  0.5876
  147SAPE   HN316170   3.490   0.825  10.992 -1.0423 -0.5573  1.3122
  147SAPE   C1216171   3.293   0.909  10.962  0.9927  0.1004 -1.2752
  147SAPE  H12A16172   3.248   0.978  10.888 -1.9613  1.2685  1.3922
  147SAPE  H12B16173   3.301   0.963  11.059  0.0237 -2.4674  0.3314
  147SAPE   C1116174   3.223   0.775  10.990  0.1422 -0.2094 -0.5195
  147SAPE  H11A16175   3.116   0.794  11.014 -0.7351 -2.0966 -2.5609
  147SAPE  H11B16176   3.263   0.732  11.084 -1.3925 -2.1671 -0.6910
  147SAPE     P16177   3.151   0.633  10.776  0.4132  0.2841 -0.0471
  147SAPE   O1316178   3.208   0.526  10.684 -0.3605 -0.2652  0.1561
  147SAPE   O1416179   3.031   0.590  10.845  0.4771  0.4715 -0.4847
  147SAPE   O1216180   3.255   0.678  10.883 -0.0225 -0.7396  0.1726
  147SAPE   O1116181   3.126   0.760  10.691  0.2663 -0.2268 -0.7835
  147SAPE    C116182   3.223   0.810  10.604 -0.6156 -0.0221  0.0643
  147SAPE    HA16183   3.245   0.917  10.624 -0.3118 -0.4538  2.2904
  147SAPE    HB16184   3.325   0.770  10.622  0.0025  0.7742 -1.5407
  147SAPE    C216185   3.191   0.783  10.443  0.6811  0.1888 -0.0440
  147SAPE    HS16186   3.272   0.842  10.395  2.4911 -1.3410  1.0567
  147SAPE   O2116187   3.060   0.828  10.408  0.1207 -0.4389 -0.2661
  147SAPE   C2116188   3.045   0.966  10.400 -0.1901  0.3753  0.9563
  147SAPE   O2216189   3.134   1.051  10.423  0.0269 -0.4977  0.0242
  147SAPE   C2216190   2.892   0.996  10.380  0.5819 -0.4501  0.6894
  147SAPE   H2R16191   2.851   0.978  10.482 -0.8994  0.1399  0.2231
  147SAPE   H2S16192   2.884   1.102  10.347 -4.2208 -0.9057 -0.3606
  147SAPE    C316193   3.194   0.641  10.399 -0.6796  0.1894 -0.1982
  147SAPE    HX16194   3.122   0.580  10.458  1.2214 -0.8172  1.2041
  147SAPE    HY16195   3.294   0.601  10.429 -1.8631 -0.6368  3.1544
  147SAPE   O3116196   3.186   0.633  10.260  0.7495  0.4453  0.3119
  147SAPE   C3116197   3.133   0.524  10.211  0.1966  0.0723 -0.0526
  147SAPE   O3216198   3.076   0.435  10.273 -0.0315  0.4904  0.8005
  147SAPE   C3216199   3.166   0.527  10.061  0.2130 -0.2950  0.0567
  147SAPE   H2X16200   3.262   0.473  10.047 -0.1681 -0.9266 -0.1745
  147SAPE   H2Y16201   3.189   0.631  10.030 -0.5672 -0.4336 -1.0225
  147SAPE   C2316202   2.818   0.918  10.268  0.4509  0.1349  0.5623
  147SAPE   H3R16203   2.711   0.944  10.254 -0.5768 -2.9734  1.9327
  147SAPE   H3S16204   2.812   0.813  10.303 -0.1791 -0.5962 -1.5795
  147SAPE   C2416205   2.882   0.923  10.132  0.3041 -0.1166  0.3778
  147SAPE   H4R16206   2.831   0.850  10.066  0.2787 -1.2072  1.5611
  147SAPE   H4S16207   2.987   0.886  10.128 -0.1066 -1.2550 -0.3727
  147SAPE   C2516208   2.883   1.066  10.073 -0.5945 -0.3325  0.1710
  147SAPE   H5R16209   2.886   1.144  10.150  0.2992  0.2066 -0.3975
  147SAPE   C2616210   2.874   1.100   9.940 -0.1017  0.0455  0.0813
  147SAPE   H6R16211   2.880   1.209   9.925 -0.3735  1.2183  6.2172
  147SAPE   C2716212   2.858   1.017   9.815 -0.5649  0.4984  0.2844
  147SAPE   H7R16213   2.811   0.922   9.848  1.3461 -0.3579  0.7144
  147SAPE   H7S16214   2.960   0.980   9.792 -0.1252  0.5270  2.0256
  147SAPE   C2816215   2.777   1.063   9.702  0.1131  0.2530 -0.2876
  147SAPE   H8R16216   2.736   1.165   9.708 -1.4991 -0.3653 -0.2611
  147SAPE   C2916217   2.771   0.992   9.580  0.1787 -0.1019  0.1506
  147SAPE   H9R16218   2.712   1.031   9.496 -0.0820 -0.6142  0.0911
  147SAPE  C21016219   2.847   0.869   9.550 -0.1418  0.3333  0.2509
  147SAPE  H10R16220   2.776   0.784   9.532 -1.1876  1.0641  0.7942
  147SAPE  H10S16221   2.912   0.835   9.634 -0.2775  0.5832  0.4583
  147SAPE  C21116222   2.937   0.865   9.426 -0.8095  0.7835 -0.0366
  147SAPE  H11R16223   2.903   0.798   9.346  2.0530  0.6238 -1.2591
  147SAPE  C21216224   3.055   0.928   9.399 -0.5082 -0.1161 -0.3944
  147SAPE  H12R16225   3.104   0.911   9.302 -1.3538 -2.8025 -0.4118
  147SAPE  C21316226   3.134   1.017   9.491 -0.3282  0.3750 -0.5048
  147SAPE  H13R16227   3.069   1.073   9.562  1.2481 -0.4477  1.7100
  147SAPE  H13S16228   3.178   1.098   9.429 -0.2532 -0.0433 -1.0042
  147SAPE  C21416229   3.235   0.928   9.560 -0.5047 -0.4065  0.1051
  147SAPE  H14R16230   3.233   0.821   9.534  0.9215 -1.0621  2.3927
  147SAPE  C21516231   3.324   0.969   9.648  0.0263  0.9013 -0.1854
  147SAPE  H15R16232   3.388   0.892   9.694  1.6260  0.9938 -2.1253
  147SAPE  C21616233   3.325   1.111   9.703  0.3319 -0.0852  0.0009
  147SAPE  H16R16234   3.225   1.157   9.685  1.1835  1.1488 -1.9589
  147SAPE  H16S16235   3.388   1.174   9.637 -0.6623 -1.3652 -2.3460
  147SAPE  C21716236   3.369   1.123   9.851  0.5819  0.0080 -0.1604
  147SAPE  H17R16237   3.425   1.219   9.846  1.7217 -0.7012 -2.6401
  147SAPE  H17S16238   3.448   1.046   9.857  0.2453 -0.2632  0.9472
  147SAPE  C21816239   3.245   1.129   9.948  0.6308  0.7834  1.3033
  147SAPE  H18R16240   3.196   1.031   9.926  2.1607  0.2482 -0.0085
  147SAPE  H18S16241   3.185   1.219   9.925  0.9673  0.1989 -2.7019
  147SAPE  C21916242   3.291   1.127  10.092  0.4322 -0.5026  0.9967
  147SAPE  H19R16243   3.205   1.157  10.156  0.0464  0.7188 -0.0580
  147SAPE  H19S16244   3.374   1.201  10.095 -1.2098  1.4911 -0.1159
  147SAPE  C22016245   3.344   0.992  10.136 -0.3496  0.2471 -0.5504
  147SAPE  H20R16246   3.381   0.988  10.240 -0.3646 -0.5606 -0.5672
  147SAPE  H20S16247   3.418   0.955  10.061  0.8658  1.1780  0.1696
  147SAPE  H20T16248   3.257   0.924  10.119 -0.3302  0.3050 -0.8951
  147SAPE   C3316249   3.043   0.456   9.987  0.2171  0.2727 -0.8176
  147SAPE   H3X16250   2.956   0.500  10.040  0.0133 -3.8187  2.8143
  147SAPE   H3Y16251   3.044   0.346  10.001  0.0604  0.6094  2.5718
  147SAPE   C3416252   3.037   0.502   9.837  0.4721  1.3027 -0.1885
  147SAPE   H4X16253   3.134   0.483   9.787  0.6085 -1.0609  0.8645
  147SAPE   H4Y16254   3.007   0.609   9.832 -0.3217  1.0510 -1.2675
  147SAPE   C3516255   2.928   0.426   9.756  0.1133  0.0373  0.1864
  147SAPE   H5X16256   2.829   0.431   9.806 -0.4139 -0.4695 -0.7772
  147SAPE   H5Y16257   2.957   0.319   9.756 -0.7211 -0.2322  1.7717
  147SAPE   C3616258   2.926   0.486   9.614  0.4991 -0.2337 -0.1791
  147SAPE   H6X16259   2.946   0.595   9.612  1.4670 -0.4015 -0.6023
  147SAPE   H6Y16260   2.824   0.466   9.574  0.5674 -0.7474 -0.0994
  147SAPE   C3716261   3.025   0.414   9.515  0.5786  0.5243 -0.2440
  147SAPE   H7X16262   3.002   0.306   9.519  0.9349  0.4757  1.4521
  147SAPE   H7Y16263   3.129   0.435   9.548  0.3910  0.4817  0.3953
  147SAPE   C3816264   3.016   0.473   9.368  0.1714  0.3681  0.2372
  147SAPE   H8X16265   3.045   0.581   9.373  2.3106 -0.1159 -0.5878
  147SAPE   H8Y16266   2.911   0.471   9.333  0.0203  1.7429  0.5315
  147SAPE   C3916267   3.118   0.421   9.263 -0.1731 -0.2935  0.1475
  147SAPE   H9X16268   3.106   0.311   9.257  0.3962 -0.2996 -1.4886
  147SAPE   H9Y16269   3.219   0.439   9.306 -0.6861 -0.1202  1.3121
  147SAPE  C31016270   3.082   0.472   9.123  0.3787  0.3506 -0.2186
  147SAPE  H10X16271   2.972   0.472   9.109  0.4819 -0.6829 -1.1763
  147SAPE  H10Y16272   3.137   0.413   9.046 -0.2520 -0.9695  0.2989
  147SAPE  C31116273   3.127   0.616   9.100  0.6016  1.1035  0.4371
  147SAPE  H11X16274   3.229   0.623   9.143  0.6514 -2.0937  1.0609
  147SAPE  H11Y16275   3.062   0.680   9.163 -0.8433 -1.2392  1.4828
  147SAPE  C31216276   3.133   0.665   8.953  0.0578  0.5264  0.4920
  147SAPE  H12X16277   3.031   0.647   8.911  0.8337 -0.8166 -0.9499
  147SAPE  H12Y16278   3.201   0.594   8.901  1.2125  1.7694  0.2630
  147SAPE  C31316279   3.187   0.805   8.928  0.6154  0.2131 -0.2821
  147SAPE  H13X16280   3.282   0.798   8.872  2.2066  1.6496  2.0345
  147SAPE  H13Y16281   3.214   0.848   9.027  2.2479  1.3444 -1.1615
  147SAPE  C31416282   3.076   0.883   8.853 -0.3777 -0.8909  0.0671
  147SAPE  H14X16283   3.118   0.981   8.824  2.4588 -1.8062  0.8125
  147SAPE  H14Y16284   2.998   0.905   8.929 -1.8246 -2.4550 -0.8610
  147SAPE  C31516285   3.011   0.830   8.728 -0.3874 -0.1847  0.3104
  147SAPE  H15X16286   2.952   0.911   8.681  1.7145  0.0288 -2.2249
  147SAPE  H15Y16287   2.943   0.745   8.751 -1.2457  0.3888 -0.0700
  147SAPE  C31616288   3.111   0.786   8.613  0.4135 -0.1181 -0.7620
  147SAPE  H16X16289   3.167   0.698   8.650 -0.4924 -0.4941 -0.2360
  147SAPE  H16Y16290   3.189   0.863   8.596  2.1552 -1.9038 -1.1662
  147SAPE  C31716291   3.048   0.729   8.486 -0.1839  0.5329  0.0082
  147SAPE  H17X16292   2.972   0.799   8.447  0.8300 -0.0663 -3.3026
  147SAPE  H17Y16293   2.995   0.633   8.507 -0.8635  1.2366  1.6693
  147SAPE  C31816294   3.143   0.710   8.372 -0.0551 -0.1642  0.6651
  147SAPE  H18X16295   3.163   0.813   8.334 -1.5021 -0.1944 -0.2508
  147SAPE  H18Y16296   3.101   0.652   8.287 -1.5141  1.3467  0.2792
  147SAPE  H18Z16297   3.239   0.669   8.410 -0.4966  0.0455  2.0696
  148SAPE     N16298   3.604   4.494  10.650  0.5214 -0.6552  0.1064
  148SAPE   HN116299   3.628   4.475  10.551 -0.1476  0.4409 -0.2782
  148SAPE   HN216300   3.516   4.442  10.670  0.5391  0.1545  2.6272
  148SAPE   HN316301   3.596   4.595  10.672 -1.4988 -0.6271 -0.5475
  148SAPE   C1216302   3.712   4.424  10.733 -0.0587 -0.8758  0.1169
  148SAPE  H12A16303   3.702   4.459  10.839 -0.5551 -0.3535 -0.0979
  148SAPE  H12B16304   3.814   4.460  10.709  0.5000 -0.8863  2.2480
  148SAPE   C1116305   3.729   4.268  10.717  0.4296 -0.1938  0.3009
  148SAPE  H11A16306   3.639   4.218  10.759  0.2099 -0.5560 -0.5794
  148SAPE  H11B16307   3.815   4.240  10.781  1.1505 -1.0675 -1.0175
  148SAPE     P16308   3.736   4.075  10.537 -0.2852  0.4907  0.0509
  148SAPE   O1316309   3.662   3.993  10.637  0.1533 -0.2659 -0.1353
  148SAPE   O1416310   3.689   4.055  10.396  0.3346 -0.1782  0.4175
  148SAPE   O1216311   3.740   4.230  10.578 -0.2118 -0.2014 -0.1363
  148SAPE   O1116312   3.895   4.042  10.542 -0.0708 -0.5233 -0.0815
  148SAPE    C116313   4.004   4.125  10.507 -0.1085 -0.4754 -0.1864
  148SAPE    HA16314   3.982   4.233  10.522 -2.5470 -1.0675  1.0395
  148SAPE    HB16315   4.090   4.092  10.569  0.5435  1.2896 -0.0886
  148SAPE    C216316   4.043   4.108  10.366 -0.4026  0.3123  0.6941
  148SAPE    HS16317   4.139   4.162  10.350  0.2430 -0.4243  1.9409
  148SAPE   O2116318   3.939   4.157  10.279  0.0778 -0.0070 -1.2989
  148SAPE   C2116319   3.953   4.285  10.252  0.4849 -0.8654  0.4374
  148SAPE   O2216320   4.038   4.362  10.296 -0.2880  0.1802  0.4301
  148SAPE   C2216321   3.831   4.317  10.162  0.5096  0.4410 -0.3788
  148SAPE   H2R16322   3.793   4.228  10.107  0.2805  1.4361 -1.8976
  148SAPE   H2S16323   3.754   4.355  10.234  1.1946  0.6119  0.2771
  148SAPE    C316324   4.072   3.955  10.338  0.5454  0.3117  0.0519
  148SAPE    HX16325   3.974   3.904  10.351  0.8488 -0.7745 -1.6641
  148SAPE    HY16326   4.131   3.924  10.427 -1.8645 -1.7099  1.0738
  148SAPE   O3116327   4.133   3.929  10.206 -0.5589 -0.9585  0.0420
  148SAPE   C3116328   4.136   3.806  10.181  0.3513 -0.0154 -1.3110
  148SAPE   O3216329   4.098   3.713  10.249  0.4677  0.1831  0.3546
  148SAPE   C3216330   4.194   3.792  10.038  0.8727 -0.2255 -0.1854
  148SAPE   H2X16331   4.249   3.887  10.021  0.5721  0.1010  0.6148
  148SAPE   H2Y16332   4.108   3.780   9.968  0.9336  1.0719 -0.5097
  148SAPE   C2316333   3.861   4.435  10.067  0.3235 -0.2767  0.5723
  148SAPE   H3R16334   3.911   4.523  10.113 -5.6709  3.7912  0.4790
  148SAPE   H3S16335   3.763   4.479  10.038  0.1068 -1.2879 -0.3145
  148SAPE   C2416336   3.931   4.392   9.941 -0.3293 -0.3579  0.0478
  148SAPE   H4R16337   3.858   4.331   9.884  0.9465 -0.5927 -1.4065
  148SAPE   H4S16338   4.011   4.329   9.984  0.1015  2.1653  3.3393
  148SAPE   C2516339   3.984   4.507   9.850  0.7319  0.1713  0.3334
  148SAPE   H5R16340   4.012   4.599   9.902  0.2273 -0.4874  1.8334
  148SAPE   C2616341   3.973   4.507   9.716 -0.0559  0.1236  0.3074
  148SAPE   H6R16342   4.040   4.583   9.674 -2.1081  0.5700 -2.4415
  148SAPE   C2716343   3.920   4.402   9.628  0.0666  0.9860  0.1511
  148SAPE   H7R16344   3.830   4.351   9.667  0.1314  1.3034  0.7243
  148SAPE   H7S16345   3.996   4.320   9.627 -1.7745 -0.8210  1.0754
  148SAPE   C2816346   3.895   4.430   9.485  0.1282 -0.7710  0.0168
  148SAPE   H8R16347   3.787   4.439   9.469 -0.1622 -2.0118  1.0804
  148SAPE   C2916348   3.983   4.426   9.377  0.1211  0.4130 -0.1259
  148SAPE   H9R16349   3.942   4.433   9.276  1.3714  1.3165 -0.6080
  148SAPE  C21016350   4.131   4.392   9.379 -0.2045 -0.6673  0.6064
  148SAPE  H10R16351   4.127   4.292   9.329 -0.7923 -0.3995  0.1103
  148SAPE  H10S16352   4.177   4.386   9.480  1.0326 -0.6775  0.0666
  148SAPE  C21116353   4.200   4.499   9.297 -0.6194 -0.4123  0.6943
  148SAPE  H11R16354   4.206   4.596   9.348 -0.4874 -0.2162  0.3105
  148SAPE  C21216355   4.275   4.478   9.181  0.1009 -0.4450 -0.0605
  148SAPE  H12R16356   4.317   4.563   9.126  1.5198 -2.1866 -1.8056
  148SAPE  C21316357   4.281   4.345   9.100  0.8193 -0.3019  0.2825
  148SAPE  H13R16358   4.188   4.341   9.041  0.6970 -1.6909  0.5381
  148SAPE  H13S16359   4.273   4.260   9.171 -1.2285  0.9708  1.6916
  148SAPE  C21416360   4.399   4.320   9.009  0.3622 -1.0254  0.3275
  148SAPE  H14R16361   4.436   4.420   8.983 -1.1402 -0.3230  0.7163
  148SAPE  C21516362   4.441   4.203   8.951 -0.0124 -0.2762 -0.3407
  148SAPE  H15R16363   4.515   4.218   8.871  1.8340  1.1204  1.5158
  148SAPE  C21616364   4.391   4.065   8.957  0.5299 -0.7770 -0.9918
  148SAPE  H16R16365   4.315   4.056   9.038  0.7488 -0.1853 -0.7127
  148SAPE  H16S16366   4.473   3.998   8.989  0.0862 -1.7167 -1.7753
  148SAPE  C21716367   4.328   4.053   8.822 -0.1005  0.2311  0.3501
  148SAPE  H17R16368   4.255   4.136   8.811  0.3741  0.3259 -3.4057
  148SAPE  H17S16369   4.273   3.956   8.822 -0.0292  0.1880  0.5617
  148SAPE  C21816370   4.421   4.047   8.696 -0.4538 -0.2840 -0.4565
  148SAPE  H18R16371   4.507   4.000   8.748 -1.4671 -0.5480  1.0585
  148SAPE  H18S16372   4.445   4.153   8.671  0.2405  0.0613  1.4683
  148SAPE  C21916373   4.367   3.954   8.596 -1.6029 -0.5965 -0.1581
  148SAPE  H19R16374   4.303   4.013   8.526  1.0310  1.0249 -1.3330
  148SAPE  H19S16375   4.308   3.869   8.637 -0.8475 -1.6990 -1.2886
  148SAPE  C22016376   4.481   3.891   8.518 -0.2436 -0.4003 -0.1346
  148SAPE  H20R16377   4.547   3.823   8.577  0.4603  0.9802  0.7309
  148SAPE  H20S16378   4.542   3.976   8.482  1.5000 -1.7637 -0.5546
  148SAPE  H20T16379   4.441   3.824   8.439 -1.1409  1.2897 -1.1701
  148SAPE   C3316380   4.282   3.669  10.000  0.1120 -0.2118  0.3341
  148SAPE   H3X16381   4.232   3.581  10.046  0.2109  0.7290  2.3351
  148SAPE   H3Y16382   4.379   3.678  10.053  0.2060  3.8033 -0.1805
  148SAPE   C3416383   4.313   3.647   9.855 -0.3825 -0.1701 -1.2716
  148SAPE   H4X16384   4.396   3.574   9.846  1.0065  1.0190  0.9479
  148SAPE   H4Y16385   4.352   3.748   9.829  2.4523 -0.8658 -0.1042
  148SAPE   C3516386   4.197   3.620   9.760 -0.3093 -0.8007 -0.2908
  148SAPE   H5X16387   4.133   3.711   9.768  1.7402  0.6426  0.2145
  148SAPE   H5Y16388   4.140   3.535   9.803 -0.3456 -0.0450  1.2039
  148SAPE   C3616389   4.240   3.595   9.614 -0.2256  0.2169  0.6090
  148SAPE   H6X16390   4.142   3.572   9.567  0.0431  0.2983 -0.0077
  148SAPE   H6Y16391   4.296   3.500   9.602  1.0000  1.0253 -0.4034
  148SAPE   C3716392   4.312   3.704   9.545  0.1509 -0.3377  0.1207
  148SAPE   H7X16393   4.413   3.707   9.593  1.5147 -0.8754 -2.5489
  148SAPE   H7Y16394   4.260   3.801   9.558 -0.0901 -0.7058  2.2667
  148SAPE   C3816395   4.336   3.674   9.401  0.1451 -0.0407  0.5299
  148SAPE   H8X16396   4.236   3.662   9.356 -0.2072 -0.8164  1.4806
  148SAPE   H8Y16397   4.391   3.579   9.383  3.8774  1.8654  0.7276
  148SAPE   C3916398   4.406   3.789   9.332  0.5341 -0.5012  0.1624
  148SAPE   H9X16399   4.488   3.822   9.400 -1.4531  0.9250  2.0299
  148SAPE   H9Y16400   4.335   3.872   9.309 -0.7018 -1.7881 -0.8613
  148SAPE  C31016401   4.481   3.747   9.198  0.2237 -0.6311  0.0531
  148SAPE  H10X16402   4.540   3.657   9.224 -1.6351 -1.6859  0.8823
  148SAPE  H10Y16403   4.534   3.837   9.162 -1.4109  0.2855 -0.1919
  148SAPE  C31116404   4.383   3.698   9.092  0.6063  0.6466  0.1069
  148SAPE  H11X16405   4.322   3.783   9.057 -1.2259 -0.9320 -0.7121
  148SAPE  H11Y16406   4.312   3.621   9.129  0.1697  0.3630 -1.2655
  148SAPE  C31216407   4.455   3.642   8.963  0.4804  0.3182 -0.0599
  148SAPE  H12X16408   4.490   3.538   8.982  0.2422  0.2647  0.0849
  148SAPE  H12Y16409   4.548   3.702   8.951  1.0200 -0.1857  1.3411
  148SAPE  C31316410   4.363   3.626   8.842  0.0699 -0.2434 -0.4153
  148SAPE  H13X16411   4.333   3.725   8.801 -0.3844 -0.0600  0.3227
  148SAPE  H13Y16412   4.270   3.572   8.871  0.5486 -0.7466  0.2000
  148SAPE  C31416413   4.413   3.540   8.721 -0.5253 -0.1634  0.0410
  148SAPE  H14X16414   4.434   3.440   8.765 -2.0455  0.1420  1.5997
  148SAPE  H14Y16415   4.497   3.586   8.666 -1.0950  0.2099 -0.5363
  148SAPE  C31516416   4.299   3.500   8.623 -0.9944 -0.4830 -0.4453
  148SAPE  H15X16417   4.226   3.584   8.624  1.0520  1.4232 -1.7545
  148SAPE  H15Y16418   4.241   3.415   8.663 -1.9014  0.4873  0.3759
  148SAPE  C31616419   4.344   3.463   8.485  0.1881  1.5025  0.6824
  148SAPE  H16X16420   4.422   3.383   8.492 -1.9490 -0.6461  1.5300
  148SAPE  H16Y16421   4.395   3.551   8.442 -0.4174  1.6406  0.2363
  148SAPE  C31716422   4.236   3.411   8.393  0.1447 -0.6302  0.5901
  148SAPE  H17X16423   4.200   3.310   8.423  1.0497 -0.7715  1.2271
  148SAPE  H17Y16424   4.278   3.378   8.295 -1.5307 -0.2761 -0.2904
  148SAPE  C31816425   4.111   3.498   8.383 -0.5696  0.8061 -0.1397
  148SAPE  H18X16426   4.055   3.491   8.479  3.1364  2.7476  2.4558
  148SAPE  H18Y16427   4.044   3.469   8.300 -0.9708 -1.3862  0.8817
  148SAPE  H18Z16428   4.132   3.606   8.365 -0.4792  0.9380  0.7074
  149SAPE     N16429   6.267   4.404  11.272  0.2056  0.6012  0.0385
  149SAPE   HN116430   6.248   4.302  11.263  0.0057  0.5089  1.3660
  149SAPE   HN216431   6.351   4.420  11.332 -0.3920 -0.2186  1.1258
  149SAPE   HN316432   6.191   4.454  11.322  0.1816  0.7990 -0.1940
  149SAPE   C1216433   6.293   4.461  11.135 -0.5597  0.0234  0.1352
  149SAPE  H12A16434   6.365   4.394  11.085  0.5369  0.7719  0.6810
  149SAPE  H12B16435   6.344   4.557  11.158 -0.9240  0.1819  0.2879
  149SAPE   C1116436   6.173   4.477  11.046  0.3346  0.8797 -0.2905
  149SAPE  H11A16437   6.154   4.372  11.014 -0.8580  0.9964 -0.0402
  149SAPE  H11B16438   6.202   4.532  10.954 -0.6861 -1.1935 -1.9512
  149SAPE     P16439   6.054   4.686  11.136  0.2730 -0.0109  0.0971
  149SAPE   O1316440   6.093   4.715  11.278 -0.2250  0.1054 -0.0430
  149SAPE   O1416441   6.131   4.757  11.032  0.1566  0.0946  0.0919
  149SAPE   O1216442   6.053   4.529  11.113  0.4291 -0.3516  0.4888
  149SAPE   O1116443   5.904   4.730  11.119  0.0841  0.6441  0.2308
  149SAPE    C116444   5.822   4.702  11.008  0.3616  0.0856  0.3638
  149SAPE    HA16445   5.848   4.600  10.974  0.8263  0.3256 -0.0160
  149SAPE    HB16446   5.720   4.713  11.051  0.6960  4.2547  0.5432
  149SAPE    C216447   5.821   4.809  10.900 -0.7531  0.3588  0.5683
  149SAPE    HS16448   5.740   4.788  10.827  0.2500  0.7979 -0.6897
  149SAPE   O2116449   5.944   4.815  10.825 -0.7012  0.4936 -0.6877
  149SAPE   C2116450   5.965   4.709  10.747 -0.9884 -0.0990  0.2706
  149SAPE   O2216451   5.882   4.619  10.726  0.1546  0.4108  0.0943
  149SAPE   C2216452   6.106   4.714  10.681 -0.5257 -0.4777  0.7590
  149SAPE   H2R16453   6.084   4.769  10.586 -1.2785  0.0267  1.2206
  149SAPE   H2S16454   6.185   4.776  10.729  1.7004 -2.6042  0.0447
  149SAPE    C316455   5.782   4.945  10.967 -0.3275  0.1419  0.0587
  149SAPE    HX16456   5.863   4.994  11.025 -1.3722  2.2594 -0.2025
  149SAPE    HY16457   5.701   4.933  11.042  0.7890 -0.5889  1.1825
  149SAPE   O3116458   5.739   5.038  10.869 -0.6356 -0.5999  0.2434
  149SAPE   C3116459   5.618   5.012  10.806 -0.1066 -0.9665 -0.1817
  149SAPE   O3216460   5.537   4.928  10.829  0.1067  0.2059  0.0020
  149SAPE   C3216461   5.604   5.113  10.694  0.0909 -0.1364  0.2974
  149SAPE   H2X16462   5.658   5.207  10.718  0.5556 -0.6297  1.1927
  149SAPE   H2Y16463   5.496   5.138  10.700 -0.2005 -0.5067 -2.1045
  149SAPE   C2316464   6.161   4.571  10.651  0.0622  0.8336 -0.1162
  149SAPE   H3R16465   6.123   4.498  10.725  1.2306  0.4875  0.1625
  149SAPE   H3S16466   6.267   4.566  10.682 -0.6206  0.7885  2.3682
  149SAPE   C2416467   6.133   4.522  10.502 -0.5537  1.1650 -0.1701
  149SAPE   H4R16468   6.025   4.531  10.478 -0.5937  1.7169  0.2051
  149SAPE   H4S16469   6.149   4.413  10.516 -1.0900  1.1729  0.5932
  149SAPE   C2516470   6.231   4.580  10.406 -0.0163  0.1522  0.2170
  149SAPE   H5R16471   6.306   4.640  10.460 -1.2972  1.8662  0.1833
  149SAPE   C2616472   6.234   4.569  10.272  0.6857  0.5198  0.8389
  149SAPE   H6R16473   6.302   4.623  10.205 -0.9293 -0.8811 -2.1119
  149SAPE   C2716474   6.129   4.492  10.203 -0.5342 -0.1693 -0.5563
  149SAPE   H7R16475   6.050   4.567  10.175  1.9461  2.7806 -0.1766
  149SAPE   H7S16476   6.087   4.413  10.268 -3.0933  1.4965 -0.0296
  149SAPE   C2816477   6.189   4.438  10.069 -0.6021 -0.1436  0.4116
  149SAPE   H8R16478   6.205   4.329  10.069 -3.0554 -0.6313 -2.5918
  149SAPE   C2916479   6.208   4.494   9.951 -0.5391 -0.7033 -0.3319
  149SAPE   H9R16480   6.247   4.432   9.868 -0.9640 -1.8777  0.3354
  149SAPE  C21016481   6.182   4.640   9.927 -0.1915 -0.2928 -0.5507
  149SAPE  H10R16482   6.207   4.696  10.019 -2.8039 -1.2957  0.8805
  149SAPE  H10S16483   6.072   4.652   9.914 -0.4958 -1.0339  1.0932
  149SAPE  C21116484   6.260   4.701   9.815 -1.0275  0.3773  0.5163
  149SAPE  H11R16485   6.353   4.748   9.848 -0.7157 -0.3079  0.6277
  149SAPE  C21216486   6.225   4.700   9.684  0.3862  0.2689  0.6372
  149SAPE  H12R16487   6.288   4.758   9.616 -0.2752  1.6192  1.1181
  149SAPE  C21316488   6.098   4.634   9.619  0.1358  0.1118  0.3665
  149SAPE  H13R16489   6.042   4.711   9.562 -1.2309 -0.0696  1.4040
  149SAPE  H13S16490   6.031   4.601   9.702 -0.1314  1.7466  0.8533
  149SAPE  C21416491   6.153   4.523   9.536 -0.3478  0.0136  0.7133
  149SAPE  H14R16492   6.231   4.457   9.577 -1.0522 -1.5335 -0.3259
  149SAPE  C21516493   6.118   4.508   9.410  0.6092  0.6796  0.2822
  149SAPE  H15R16494   6.155   4.425   9.348 -3.0201  0.7215 -2.2425
  149SAPE  C21616495   6.024   4.593   9.327 -0.3728 -0.1252 -0.0980
  149SAPE  H16R16496   5.939   4.624   9.392  0.1965 -1.0890  1.1517
  149SAPE  H16S16497   5.977   4.525   9.252 -3.0399 -2.3016  3.2337
  149SAPE  C21716498   6.075   4.722   9.270 -0.2962  0.1182  0.2643
  149SAPE  H17R16499   6.118   4.780   9.354  0.7714 -0.4468  0.1323
  149SAPE  H17S16500   5.986   4.774   9.230 -0.3049 -1.1949 -1.5434
  149SAPE  C21816501   6.178   4.695   9.165  0.0482  0.0562 -0.8351
  149SAPE  H18R16502   6.139   4.621   9.092  1.6958 -1.4827 -0.2012
  149SAPE  H18S16503   6.267   4.642   9.204 -0.5077 -0.5851 -0.4201
  149SAPE  C21916504   6.233   4.819   9.091  0.7772 -0.3283 -0.3403
  149SAPE  H19R16505   6.286   4.885   9.163  0.0867 -0.6310  0.4609
  149SAPE  H19S16506   6.146   4.882   9.063  1.0682  1.9556  3.1133
  149SAPE  C22016507   6.314   4.796   8.965 -0.5870 -0.4196 -0.2815
  149SAPE  H20R16508   6.391   4.717   8.984 -2.5635 -2.5056 -0.4909
  149SAPE  H20S16509   6.349   4.894   8.927 -1.9488  1.3842  2.7625
  149SAPE  H20T16510   6.238   4.762   8.891 -2.9268  1.4007  1.1424
  149SAPE   C3316511   5.628   5.050  10.555  0.3927  0.2493  0.3628
  149SAPE   H3X16512   5.611   5.119  10.470  0.3062 -2.1397 -1.6697
  149SAPE   H3Y16513   5.573   4.954  10.543 -0.6620  0.9980 -0.9142
  149SAPE   C3416514   5.780   5.024  10.535 -0.6352  0.3789  0.3970
  149SAPE   H4X16515   5.803   4.946  10.612  0.4248 -2.0249 -2.1732
  149SAPE   H4Y16516   5.835   5.117  10.562  3.0775 -2.0801  2.3771
  149SAPE   C3516517   5.822   4.964  10.401 -0.3585  0.0035  0.8620
  149SAPE   H5X16518   5.734   4.906  10.367  1.2878 -1.0799 -1.9881
  149SAPE   H5Y16519   5.911   4.898  10.415  0.6131  1.0444 -0.1471
  149SAPE   C3616520   5.851   5.071  10.297 -0.0826  0.0807 -0.2057
  149SAPE   H6X16521   5.923   5.145  10.340  0.9801 -0.8350 -0.3590
  149SAPE   H6Y16522   5.754   5.119  10.273 -0.5782 -0.3575  0.8345
  149SAPE   C3716523   5.904   4.995  10.170  0.0205 -0.3435 -0.4033
  149SAPE   H7X16524   5.827   4.917  10.150 -0.5745  0.6730 -2.3566
  149SAPE   H7Y16525   6.005   4.950  10.182  0.0842 -0.4440 -1.2621
  149SAPE   C3816526   5.916   5.085  10.050  0.3042  0.0539 -0.1287
  149SAPE   H8X16527   5.987   5.165  10.080  2.0790 -1.2397 -0.6932
  149SAPE   H8Y16528   5.818   5.134  10.031  0.5775  0.1175 -1.5120
  149SAPE   C3916529   5.972   5.007   9.926  0.2265  0.4317 -0.3117
  149SAPE   H9X16530   5.884   4.942   9.905 -0.5639  0.7050  1.9351
  149SAPE   H9Y16531   6.060   4.946   9.953  1.6181  2.5903  0.2962
  149SAPE  C31016532   6.007   5.099   9.802  0.4778 -0.3620 -0.8674
  149SAPE  H10X16533   6.101   5.159   9.805  0.0019  0.5517 -2.5759
  149SAPE  H10Y16534   5.922   5.171   9.804  0.2196 -0.6808 -0.3775
  149SAPE  C31116535   6.010   5.029   9.671 -0.1180  0.8749  0.5320
  149SAPE  H11X16536   5.930   4.952   9.674  0.3228  0.3896 -0.0473
  149SAPE  H11Y16537   6.102   4.971   9.651 -0.3280  0.8027 -0.2355
  149SAPE  C31216538   6.005   5.119   9.544 -0.3590 -0.2150 -0.0252
  149SAPE  H12X16539   6.099   5.178   9.554 -0.9577  0.6775  0.4580
  149SAPE  H12Y16540   5.921   5.191   9.546  0.9133  1.3146  0.2552
  149SAPE  C31316541   6.007   5.045   9.413 -0.3653 -0.3523  0.0604
  149SAPE  H13X16542   5.939   4.957   9.404 -0.6628 -0.2278  0.9647
  149SAPE  H13Y16543   6.108   5.015   9.380 -1.7240 -3.7969 -1.4665
  149SAPE  C31416544   5.960   5.127   9.291  0.1786 -0.5928  0.3623
  149SAPE  H14X16545   5.873   5.186   9.327  0.7250  2.5193 -2.7508
  149SAPE  H14Y16546   5.940   5.058   9.206 -0.0566  1.0818 -1.0125
  149SAPE  C31516547   6.074   5.220   9.251  0.0314 -0.0237  0.3309
  149SAPE  H15X16548   6.146   5.143   9.219 -1.1247  0.3419 -3.7471
  149SAPE  H15Y16549   6.106   5.286   9.335  0.9648 -2.4462  1.9600
  149SAPE  C31616550   6.039   5.323   9.134 -0.2640 -0.3047 -0.2578
  149SAPE  H16X16551   6.034   5.261   9.042 -0.3050  0.0581 -0.5008
  149SAPE  H16Y16552   6.126   5.390   9.116 -1.8951  2.1967  0.5682
  149SAPE  C31716553   5.918   5.408   9.159  0.4345  0.8165  0.6929
  149SAPE  H17X16554   5.910   5.457   9.258 -2.6449 -0.3888  1.1793
  149SAPE  H17Y16555   5.828   5.343   9.149  1.4579 -0.3937 -1.2782
  149SAPE  C31816556   5.889   5.526   9.060  0.0913 -0.1419 -0.0975
  149SAPE  H18X16557   5.815   5.588   9.113 -0.3694  0.9432 -1.9101
  149SAPE  H18Y16558   5.858   5.485   8.961  0.8811 -0.4814 -0.2226
  149SAPE  H18Z16559   5.977   5.593   9.047  1.4481 -1.8625 -0.3178
  150SAPE     N16560   2.071   3.806  11.009 -0.6982 -0.3391 -0.6265
  150SAPE   HN116561   1.982   3.760  11.037 -0.4176 -0.3130  0.3163
  150SAPE   HN216562   2.146   3.743  11.042 -0.4868  1.2796  2.2828
  150SAPE   HN316563   2.089   3.882  11.077 -0.6355  1.4101 -2.4773
  150SAPE   C1216564   2.071   3.851  10.868 -0.0148 -0.4361 -0.3251
  150SAPE  H12A16565   1.969   3.883  10.840 -0.3962 -1.6001 -0.3249
  150SAPE  H12B16566   2.073   3.755  10.814 -0.7524 -0.1026 -0.9633
  150SAPE   C1116567   2.184   3.959  10.847  0.3682  1.0252 -0.4644
  150SAPE  H11A16568   2.196   3.977  10.738  0.5118 -1.2311 -0.8700
  150SAPE  H11B16569   2.274   3.912  10.892 -1.5905  1.1368  4.0486
  150SAPE     P16570   2.057   4.184  10.886  0.3526 -0.0548 -0.0692
  150SAPE   O1316571   1.916   4.126  10.896  0.4267 -0.2138 -0.2070
  150SAPE   O1416572   2.093   4.315  10.957  0.0229  0.2917  0.3336
  150SAPE   O1216573   2.158   4.074  10.929 -0.3771 -0.5288 -0.1950
  150SAPE   O1116574   2.097   4.206  10.735  0.0860  0.8137 -0.0624
  150SAPE    C116575   2.000   4.263  10.650  1.1599  0.4194  0.9167
  150SAPE    HA16576   1.916   4.322  10.692 -0.0287  0.1765 -1.0069
  150SAPE    HB16577   2.056   4.319  10.573  1.4034 -1.2413 -0.1651
  150SAPE    C216578   1.919   4.147  10.573 -0.0109  0.0285  0.6594
  150SAPE    HS16579   1.896   4.075  10.654 -2.5715  0.1250  0.1263
  150SAPE   O2116580   1.998   4.109  10.455  0.1118  0.1030  0.6132
  150SAPE   C2116581   1.991   3.976  10.435 -0.6400  0.0313  0.6823
  150SAPE   O2216582   1.942   3.899  10.511  0.6016  0.2361  1.0366
  150SAPE   C2216583   2.023   3.958  10.288  0.2500 -0.2572 -0.2142
  150SAPE   H2R16584   2.133   3.970  10.278  0.1580  0.7723 -0.0472
  150SAPE   H2S16585   1.999   3.855  10.251 -0.5802 -0.9313  2.0392
  150SAPE    C316586   1.786   4.193  10.521  0.6011  0.7759 -0.0937
  150SAPE    HX16587   1.798   4.263  10.435 -2.6976  2.3772  0.5647
  150SAPE    HY16588   1.740   4.254  10.602  1.6970  2.5886 -0.7560
  150SAPE   O3116589   1.699   4.081  10.497  0.9917  0.0810  0.0477
  150SAPE   C3116590   1.606   4.096  10.406  0.2262  0.6844 -0.1837
  150SAPE   O3216591   1.585   4.197  10.346 -0.2008 -0.9100 -0.2446
  150SAPE   C3216592   1.531   3.966  10.388 -0.2256 -0.3696  0.7124
  150SAPE   H2X16593   1.430   3.992  10.428 -0.1421  0.0705  0.6395
  150SAPE   H2Y16594   1.563   3.873  10.440 -2.4719 -2.8243 -1.9187
  150SAPE   C2316595   1.957   4.062  10.198  0.1063  0.0223 -0.2750
  150SAPE   H3R16596   1.868   4.098  10.254 -0.3953 -1.8438  0.1867
  150SAPE   H3S16597   1.924   4.002  10.110  0.8743 -0.9367  0.0710
  150SAPE   C2416598   2.036   4.189  10.163  0.1499  0.9603  0.5656
  150SAPE   H4R16599   2.099   4.162  10.076 -1.3807  0.0773 -0.3310
  150SAPE   H4S16600   2.088   4.227  10.253  0.7642 -1.3703  1.2534
  150SAPE   C2516601   1.940   4.292  10.115 -0.6520 -0.5949 -0.2028
  150SAPE   H5R16602   1.880   4.342  10.192 -2.3298 -0.0279 -1.8170
  150SAPE   C2616603   1.917   4.325   9.983 -0.1958  0.4060  0.0561
  150SAPE   H6R16604   1.850   4.409   9.960  3.3699  3.4793 -0.0810
  150SAPE   C2716605   1.982   4.264   9.860  0.4385 -0.1376  0.5494
  150SAPE   H7R16606   1.991   4.154   9.873  0.9458 -0.3007 -1.0316
  150SAPE   H7S16607   2.085   4.305   9.863  0.7619 -0.8988  0.0577
  150SAPE   C2816608   1.916   4.288   9.725  0.5247 -0.1734  0.9012
  150SAPE   H8R16609   1.807   4.276   9.723  0.6612 -1.5999  0.8980
  150SAPE   C2916610   1.973   4.318   9.607  0.0221  0.1983 -0.4885
  150SAPE   H9R16611   1.908   4.340   9.521 -0.1269 -2.3826 -1.1226
  150SAPE  C21016612   2.117   4.332   9.582 -0.6008  0.3493 -0.3640
  150SAPE  H10R16613   2.128   4.317   9.473 -1.3076  1.9661 -0.6937
  150SAPE  H10S16614   2.159   4.239   9.625 -2.5596  1.2592  4.1480
  150SAPE  C21116615   2.184   4.454   9.633 -0.0766  0.2548 -0.0399
  150SAPE  H11R16616   2.254   4.446   9.717  0.6933 -1.3777 -0.7830
  150SAPE  C21216617   2.175   4.576   9.575  0.1274 -0.0840  0.2352
  150SAPE  H12R16618   2.211   4.665   9.629 -1.0314 -0.4050  1.5842
  150SAPE  C21316619   2.093   4.608   9.452 -0.2741 -0.0594  0.3534
  150SAPE  H13R16620   1.993   4.632   9.493 -1.1493 -1.8259 -0.6170
  150SAPE  H13S16621   2.078   4.522   9.384  0.8884 -0.5670  0.7071
  150SAPE  C21416622   2.168   4.711   9.370  0.0235 -0.1070  0.1685
  150SAPE  H14R16623   2.266   4.673   9.337  0.4503  0.3676  0.8602
  150SAPE  C21516624   2.128   4.838   9.334 -0.3865 -0.4402 -0.0266
  150SAPE  H15R16625   2.202   4.901   9.281  0.4736 -3.1861 -2.3518
  150SAPE  C21616626   2.000   4.906   9.375  0.0046 -0.4833 -0.5167
  150SAPE  H16R16627   1.922   4.832   9.405 -1.1959  0.8592 -0.2207
  150SAPE  H16S16628   1.951   4.944   9.282  0.0442  0.4162 -0.1770
  150SAPE  C21716629   1.994   5.010   9.489 -0.2576  0.1563  0.1685
  150SAPE  H17R16630   1.892   5.055   9.491  0.1033  1.1118  3.2440
  150SAPE  H17S16631   2.064   5.094   9.469 -0.9285  0.5235 -0.6998
  150SAPE  C21816632   2.018   4.958   9.628  0.6941  0.2562 -0.2642
  150SAPE  H18R16633   2.081   5.018   9.696 -1.4566  1.2416  0.9553
  150SAPE  H18S16634   2.063   4.858   9.612 -1.1767 -1.1412  2.4432
  150SAPE  C21916635   1.885   4.937   9.699  0.8310 -0.1417  0.0556
  150SAPE  H19R16636   1.803   4.935   9.623 -0.0018  2.5863  0.7837
  150SAPE  H19S16637   1.869   5.031   9.756  0.9625  0.2860 -0.5921
  150SAPE  C22016638   1.865   4.809   9.782  0.1158  0.1970  0.2741
  150SAPE  H20R16639   1.791   4.818   9.865 -1.6874 -2.7374 -0.8452
  150SAPE  H20S16640   1.965   4.801   9.829  1.3710  0.1076 -2.2955
  150SAPE  H20T16641   1.844   4.712   9.733 -0.3477 -0.4201  1.6333
  150SAPE   C3316642   1.521   3.936  10.238  0.7225  0.5781  0.6931
  150SAPE   H3X16643   1.455   4.015  10.198  0.0349 -0.1792  0.3237
  150SAPE   H3Y16644   1.464   3.841  10.224 -1.6564  2.1463 -0.9631
  150SAPE   C3416645   1.648   3.927  10.164 -0.6908  0.1385 -0.2225
  150SAPE   H4X16646   1.721   3.878  10.231 -0.7302  0.9222  0.4209
  150SAPE   H4Y16647   1.674   4.028  10.125 -0.9122 -0.4979 -2.1530
  150SAPE   C3516648   1.628   3.839  10.042 -0.3078 -0.2182  0.6080
  150SAPE   H5X16649   1.529   3.866  10.000  0.0445 -0.4711 -0.4273
  150SAPE   H5Y16650   1.620   3.736  10.081  0.3157  0.2296  1.9752
  150SAPE   C3616651   1.722   3.853   9.916  0.0038 -0.0848  0.3104
  150SAPE   H6X16652   1.825   3.813   9.928 -0.5329 -1.3102  1.0217
  150SAPE   H6Y16653   1.747   3.960   9.902  2.0172 -0.5947 -0.2955
  150SAPE   C3716654   1.657   3.797   9.790  0.3965  0.3040  0.5106
  150SAPE   H7X16655   1.571   3.859   9.760  0.1756  0.5922  1.7165
  150SAPE   H7Y16656   1.611   3.698   9.810  1.0699 -0.3319 -0.8870
  150SAPE   C3816657   1.751   3.785   9.668  0.9989  0.4447 -0.2610
  150SAPE   H8X16658   1.828   3.709   9.690 -0.1564 -0.7755 -0.3113
  150SAPE   H8Y16659   1.793   3.888   9.661 -2.0769  1.9011  0.6883
  150SAPE   C3916660   1.673   3.750   9.543  0.2354 -0.0060  0.0966
  150SAPE   H9X16661   1.587   3.815   9.517  0.6465  0.5738  0.1829
  150SAPE   H9Y16662   1.629   3.648   9.546  1.2217 -0.4614 -0.3539
  150SAPE  C31016663   1.770   3.746   9.421 -0.5104 -0.3582 -0.4454
  150SAPE  H10X16664   1.867   3.704   9.455 -0.0469  1.5016  0.6470
  150SAPE  H10Y16665   1.792   3.854   9.408 -1.1018 -0.3012 -1.0288
  150SAPE  C31116666   1.715   3.670   9.299 -0.4633 -0.8415 -0.4696
  150SAPE  H11X16667   1.629   3.729   9.260 -0.3812  1.6274  2.7027
  150SAPE  H11Y16668   1.671   3.579   9.346 -1.1730 -0.1423  0.2642
  150SAPE  C31216669   1.828   3.649   9.200  0.6344 -0.1723  0.8527
  150SAPE  H12X16670   1.912   3.600   9.255 -1.0311 -3.3835  0.7713
  150SAPE  H12Y16671   1.846   3.754   9.169 -1.8821 -0.2063 -1.0224
  150SAPE  C31316672   1.788   3.560   9.074 -0.5003  0.0360  0.5833
  150SAPE  H13X16673   1.868   3.568   8.998 -1.1899  2.9828  0.0364
  150SAPE  H13Y16674   1.698   3.613   9.039  0.7967  0.6050 -2.1354
  150SAPE  C31416675   1.765   3.421   9.114 -0.1045  0.0824 -0.4343
  150SAPE  H14X16676   1.704   3.406   9.206  0.3834 -0.1003 -0.1344
  150SAPE  H14Y16677   1.866   3.377   9.124  0.1873  0.8505  0.0644
  150SAPE  C31516678   1.678   3.338   9.013 -0.8368 -0.8705  0.5131
  150SAPE  H15X16679   1.586   3.399   9.012  0.3114  0.9365  0.9667
  150SAPE  H15Y16680   1.659   3.243   9.068 -1.7935  0.2472  2.1721
  150SAPE  C31616681   1.753   3.319   8.886 -0.5353  0.0543 -0.6875
  150SAPE  H16X16682   1.859   3.299   8.913 -0.8135  1.4601  1.7524
  150SAPE  H16Y16683   1.761   3.416   8.831  2.4717  0.3963  0.1638
  150SAPE  C31716684   1.713   3.202   8.788  0.1109  0.5303 -0.3844
  150SAPE  H17X16685   1.602   3.203   8.776 -0.0641 -1.1214  0.8141
  150SAPE  H17Y16686   1.730   3.108   8.844 -1.6188 -0.6355 -1.6956
  150SAPE  C31816687   1.793   3.215   8.656 -0.3638 -0.4017 -0.0940
  150SAPE  H18X16688   1.776   3.312   8.605 -0.1899 -0.5959 -0.5293
  150SAPE  H18Y16689   1.773   3.129   8.587  1.3980 -0.3532 -0.7317
  150SAPE  H18Z16690   1.902   3.216   8.678 -0.3465  1.9160 -0.0598
  151SAPE     N16691   6.279   1.671  10.783 -0.1364 -0.7150 -0.3892
  151SAPE   HN116692   6.335   1.731  10.847  0.8356  0.4014 -2.2100
  151SAPE   HN216693   6.215   1.732  10.728 -1.5423 -1.3674  0.4643
  151SAPE   HN316694   6.220   1.614  10.848 -0.0985 -1.7901 -1.2671
  151SAPE   C1216695   6.373   1.590  10.696 -0.1195 -0.0333  0.4329
  151SAPE  H12A16696   6.389   1.495  10.750  1.1796 -0.9583 -1.4731
  151SAPE  H12B16697   6.464   1.651  10.678 -0.7885  1.2609  1.2850
  151SAPE   C1116698   6.318   1.562  10.560 -0.0538  0.8329  0.1033
  151SAPE  H11A16699   6.394   1.498  10.510  0.7854  2.3977 -0.6791
  151SAPE  H11B16700   6.301   1.652  10.498 -1.9926  1.3796  1.3189
  151SAPE     P16701   6.138   1.368  10.584 -0.1388  0.2556  0.2699
  151SAPE   O1316702   6.207   1.326  10.707  0.6210  0.4134 -0.1841
  151SAPE   O1416703   5.991   1.371  10.587 -0.4542  0.0598  0.3659
  151SAPE   O1216704   6.185   1.516  10.558  0.1381  0.0162  0.6467
  151SAPE   O1116705   6.186   1.282  10.459  0.8000  0.0849 -0.0228
  151SAPE    C116706   6.215   1.347  10.339 -0.0309 -0.3017  0.7194
  151SAPE    HA16707   6.171   1.450  10.337 -0.4804 -0.4723  1.2873
  151SAPE    HB16708   6.325   1.350  10.330 -0.1828  1.3325 -1.6212
  151SAPE    C216709   6.143   1.280  10.223 -0.1449  0.7292  0.2303
  151SAPE    HS16710   6.162   1.173  10.245  1.0461  0.5784 -1.3382
  151SAPE   O2116711   6.218   1.312  10.111 -0.1485  0.3128  0.5038
  151SAPE   C2116712   6.200   1.232  10.012 -0.2414  0.1627  0.8313
  151SAPE   O2216713   6.131   1.130  10.016  0.0224 -0.4025 -0.4520
  151SAPE   C2216714   6.258   1.287   9.883 -0.4729 -0.2393  0.4362
  151SAPE   H2R16715   6.170   1.325   9.827 -0.2952  1.7974  1.4489
  151SAPE   H2S16716   6.328   1.366   9.918  0.5256 -1.1362  0.5331
  151SAPE    C316717   5.988   1.322  10.228  0.7979  0.2894 -0.1854
  151SAPE    HX16718   5.953   1.293  10.330  0.3956 -1.7396 -0.8520
  151SAPE    HY16719   5.931   1.257  10.158 -2.3522  1.5359  1.0146
  151SAPE   O3116720   5.963   1.460  10.190  0.5163  0.7021  0.3177
  151SAPE   C3116721   5.833   1.473  10.156  0.2286 -1.0394  0.0695
  151SAPE   O3216722   5.748   1.391  10.184  0.5726  0.4892 -0.4531
  151SAPE   C3216723   5.818   1.618  10.099 -0.0288 -0.2351  0.3173
  151SAPE   H2X16724   5.850   1.688  10.179  1.6620  0.2920 -0.7581
  151SAPE   H2Y16725   5.709   1.628  10.081 -0.0825 -1.1581  0.0708
  151SAPE   C2316726   6.333   1.173   9.807  0.0525 -0.3459  0.4053
  151SAPE   H3R16727   6.267   1.092   9.771  2.5830 -2.3856  0.0470
  151SAPE   H3S16728   6.406   1.124   9.875  2.7555  1.4578 -1.0254
  151SAPE   C2416729   6.420   1.221   9.689 -0.0635  0.6033  0.5980
  151SAPE   H4R16730   6.503   1.149   9.670 -0.2420  0.7547 -0.8295
  151SAPE   H4S16731   6.478   1.308   9.727 -0.4052  1.2801 -0.4038
  151SAPE   C2516732   6.340   1.259   9.569 -0.2172 -0.3570  0.0439
  151SAPE   H5R16733   6.270   1.343   9.574 -0.7073 -0.5822 -2.2051
  151SAPE   C2616734   6.336   1.194   9.454  0.7787 -0.2275 -0.3126
  151SAPE   H6R16735   6.274   1.241   9.376  1.4036  2.0546  0.5036
  151SAPE   C2716736   6.412   1.073   9.396 -0.7506 -0.2063 -0.5995
  151SAPE   H7R16737   6.448   1.022   9.488 -1.8811 -0.8777 -0.5131
  151SAPE   H7S16738   6.505   1.104   9.344 -0.9426 -1.0782 -1.4943
  151SAPE   C2816739   6.334   0.972   9.322 -0.3042 -0.2748  0.2204
  151SAPE   H8R16740   6.258   0.921   9.382 -1.1967  2.0994  1.2167
  151SAPE   C2916741   6.350   0.933   9.194 -0.2661  0.1534 -0.2032
  151SAPE   H9R16742   6.295   0.843   9.164 -0.9027  0.8303 -1.1262
  151SAPE  C21016743   6.438   0.993   9.091  0.3251  0.0724  0.0913
  151SAPE  H10R16744   6.446   0.927   9.001 -0.3846  1.2227 -0.8525
  151SAPE  H10S16745   6.542   1.003   9.128  0.9851  0.4783 -1.7440
  151SAPE  C21116746   6.399   1.132   9.045 -1.3500  0.2775 -0.0722
  151SAPE  H11R16747   6.378   1.201   9.128 -2.5519  0.3677 -0.4275
  151SAPE  C21216748   6.393   1.169   8.911 -0.3400 -0.3270  0.6902
  151SAPE  H12R16749   6.356   1.267   8.877  0.1899 -0.6329 -0.8559
  151SAPE  C21316750   6.412   1.083   8.783  0.1558  0.5051  0.2406
  151SAPE  H13R16751   6.319   1.102   8.727 -1.3617 -2.7480  1.3956
  151SAPE  H13S16752   6.397   0.976   8.809 -0.6662  0.3620 -0.7688
  151SAPE  C21416753   6.538   1.101   8.707  0.4247  0.0112 -0.5309
  151SAPE  H14R16754   6.632   1.080   8.761  0.8113  0.1284 -1.1470
  151SAPE  C21516755   6.556   1.127   8.582 -0.3242 -0.1789  0.8419
  151SAPE  H15R16756   6.654   1.157   8.542  0.4093 -0.0223  2.6756
  151SAPE  C21616757   6.446   1.141   8.479  0.3779 -0.2984 -0.2822
  151SAPE  H16R16758   6.462   1.221   8.404  2.1895 -2.1595 -2.0082
  151SAPE  H16S16759   6.346   1.160   8.522  0.2936 -1.8302  0.2823
  151SAPE  C21716760   6.431   1.014   8.394 -0.7388 -0.4669 -0.1179
  151SAPE  H17R16761   6.332   1.024   8.343 -2.0307 -0.9387  2.1584
  151SAPE  H17S16762   6.433   0.924   8.459  0.8547 -0.2896  0.1037
  151SAPE  C21816763   6.549   1.004   8.301  0.1899  0.3278 -0.5715
  151SAPE  H18R16764   6.590   1.105   8.280  1.5131 -0.1767 -0.5388
  151SAPE  H18S16765   6.500   0.970   8.208  1.5911 -0.1256 -1.1719
  151SAPE  C21916766   6.655   0.895   8.342  0.3842 -0.4660 -0.3199
  151SAPE  H19R16767   6.618   0.791   8.354 -0.9677  0.1495  1.3024
  151SAPE  H19S16768   6.711   0.932   8.431  1.9866 -0.0338 -1.4682
  151SAPE  C22016769   6.766   0.882   8.232  0.8159 -0.2288 -0.4588
  151SAPE  H20R16770   6.819   0.979   8.227 -2.5816  2.1487  3.2421
  151SAPE  H20S16771   6.714   0.867   8.135  1.9222 -1.4868 -0.8824
  151SAPE  H20T16772   6.833   0.796   8.250 -1.3096 -1.7969  0.4295
  151SAPE   C3316773   5.894   1.636   9.968  0.0550 -0.3864 -0.4966
  151SAPE   H3X16774   5.994   1.588   9.981 -0.0154 -0.0162  1.6477
  151SAPE   H3Y16775   5.929   1.741   9.960  2.9173 -1.2697 -0.6105
  151SAPE   C3416776   5.815   1.600   9.847  0.3221  0.8088  0.2991
  151SAPE   H4X16777   5.718   1.653   9.860 -0.0291 -0.4380  3.9455
  151SAPE   H4Y16778   5.793   1.492   9.840  0.6359  0.8484 -4.5517
  151SAPE   C3516779   5.889   1.645   9.711 -0.3738 -0.8131 -0.1464
  151SAPE   H5X16780   5.994   1.608   9.720  0.4073  1.4833  0.9610
  151SAPE   H5Y16781   5.903   1.755   9.712 -0.4538 -0.8000 -0.4418
  151SAPE   C3616782   5.811   1.626   9.588  0.4154  0.3691 -0.6695
  151SAPE   H6X16783   5.710   1.670   9.594 -0.6566 -1.7064 -2.0374
  151SAPE   H6Y16784   5.784   1.519   9.572 -4.9739  1.2952  0.3285
  151SAPE   C3716785   5.873   1.672   9.457 -0.2649 -0.1453  0.1301
  151SAPE   H7X16786   5.961   1.606   9.441  0.5591  1.1645 -0.9507
  151SAPE   H7Y16787   5.905   1.777   9.475 -2.0168  0.4764 -0.2605
  151SAPE   C3816788   5.779   1.683   9.337 -0.9900  0.5001  0.0500
  151SAPE   H8X16789   5.699   1.760   9.349 -1.3192  0.7662 -3.0444
  151SAPE   H8Y16790   5.728   1.585   9.343  0.6983 -0.3740  4.4161
  151SAPE   C3916791   5.850   1.718   9.205  0.4100  0.3022 -0.3945
  151SAPE   H9X16792   5.944   1.662   9.191  0.3183 -0.4625  1.6273
  151SAPE   H9Y16793   5.871   1.827   9.213  2.9198  0.0494 -2.4021
  151SAPE  C31016794   5.762   1.712   9.073  0.0485 -0.4178  0.0957
  151SAPE  H10X16795   5.664   1.744   9.114  0.9664  2.7128  0.1050
  151SAPE  H10Y16796   5.760   1.609   9.030  3.6252 -0.2872 -0.7339
  151SAPE  C31116797   5.803   1.816   8.975 -0.4183  0.2397 -0.2873
  151SAPE  H11X16798   5.911   1.795   8.961 -0.2197  0.1963  1.1811
  151SAPE  H11Y16799   5.787   1.913   9.028  2.9655  0.5773  0.3144
  151SAPE  C31216800   5.713   1.815   8.853  0.1953  0.2449  0.5533
  151SAPE  H12X16801   5.609   1.824   8.891 -1.9220 -4.0950 -3.2696
  151SAPE  H12Y16802   5.714   1.712   8.813 -0.3269 -0.4316  2.2145
  151SAPE  C31316803   5.748   1.923   8.756 -0.7026 -0.3373 -0.1072
  151SAPE  H13X16804   5.773   2.019   8.807 -0.7152 -0.7962  0.7864
  151SAPE  H13Y16805   5.661   1.947   8.691 -1.2735 -1.2922  0.2864
  151SAPE  C31416806   5.865   1.886   8.659  0.1698 -0.4623 -0.0479
  151SAPE  H14X16807   5.832   1.789   8.618 -2.2152  0.5943 -0.8371
  151SAPE  H14Y16808   5.955   1.862   8.719 -0.9613  1.5874  2.7214
  151SAPE  C31516809   5.883   1.980   8.542  0.3867 -0.6877  0.4699
  151SAPE  H15X16810   5.963   1.937   8.479 -1.7525 -3.3406 -0.6315
  151SAPE  H15Y16811   5.919   2.076   8.585 -2.6546 -0.0402  1.8715
  151SAPE  C31616812   5.746   2.002   8.468  0.2365  0.2966 -0.0520
  151SAPE  H16X16813   5.680   2.061   8.534  1.2119  3.3026 -1.5800
  151SAPE  H16Y16814   5.702   1.903   8.444 -1.1510  1.0404 -0.6931
  151SAPE  C31716815   5.756   2.073   8.334 -0.2774 -0.9993  0.6249
  151SAPE  H17X16816   5.836   2.035   8.267  0.1744  0.2182  0.4527
  151SAPE  H17Y16817   5.803   2.173   8.347  0.3453 -1.2673  0.4507
  151SAPE  C31816818   5.622   2.095   8.267 -0.2982 -0.1108  0.5693
  151SAPE  H18X16819   5.644   2.128   8.163  0.9408 -0.7161  0.6160
  151SAPE  H18Y16820   5.552   2.167   8.313 -2.4769 -1.0087 -1.1613
  151SAPE  H18Z16821   5.578   1.994   8.250 -1.7080  0.8878 -2.3386
  152SAPE     N16822   0.587   1.654  10.726 -0.5338 -0.1629  0.4709
  152SAPE   HN116823   0.675   1.668  10.672 -0.9250  1.8480  0.2640
  152SAPE   HN216824   0.597   1.577  10.795  3.3753 -0.1700  0.1294
  152SAPE   HN316825   0.514   1.630  10.656  1.5583 -1.0578 -1.5390
  152SAPE   C1216826   0.548   1.783  10.788 -0.4934 -0.2521 -0.0091
  152SAPE  H12A16827   0.607   1.799  10.880 -1.0937 -0.8109  0.4822
  152SAPE  H12B16828   0.442   1.781  10.821 -0.3806 -1.6515  0.3614
  152SAPE   C1116829   0.569   1.898  10.693 -0.4241 -0.0687  0.5555
  152SAPE  H11A16830   0.543   1.992  10.748  0.5032  1.2247 -1.1174
  152SAPE  H11B16831   0.499   1.892  10.607 -1.2642 -0.5842  1.2594
  152SAPE     P16832   0.739   2.043  10.569 -0.3179  0.0314  0.2549
  152SAPE   O1316833   0.704   2.159  10.652  0.0039 -0.3566  0.1213
  152SAPE   O1416834   0.880   2.043  10.518 -0.8926  0.1074  0.0158
  152SAPE   O1216835   0.702   1.908  10.642 -0.0661 -0.1881  0.5191
  152SAPE   O1116836   0.641   2.032  10.447  0.2275 -0.5633  0.1988
  152SAPE    C116837   0.645   1.930  10.349  0.9224 -0.8375 -0.4148
  152SAPE    HA16838   0.713   1.847  10.376  2.6221  0.6502  0.0957
  152SAPE    HB16839   0.545   1.884  10.337 -0.8457  2.3134  0.9303
  152SAPE    C216840   0.689   1.980  10.216  0.0108 -0.4234 -0.6927
  152SAPE    HS16841   0.760   2.063  10.238  0.0106 -0.3479 -0.9709
  152SAPE   O2116842   0.579   2.022  10.139 -0.1779 -0.4934 -0.0892
  152SAPE   C2116843   0.608   2.105  10.044 -0.1922  0.2469  0.5890
  152SAPE   O2216844   0.716   2.158  10.014 -0.2295 -0.2431 -0.5561
  152SAPE   C2216845   0.475   2.131   9.971 -0.0810  0.4052 -0.3730
  152SAPE   H2R16846   0.412   2.040   9.969  0.1139  0.2507  0.1228
  152SAPE   H2S16847   0.432   2.214  10.031 -2.9739 -0.9001 -0.4871
  152SAPE    C316848   0.777   1.866  10.140  0.0438  0.0355 -0.4257
  152SAPE    HX16849   0.709   1.781  10.118 -0.1125  0.3414 -1.1505
  152SAPE    HY16850   0.860   1.838  10.209 -0.1391  1.2954  0.3344
  152SAPE   O3116851   0.831   1.920  10.018  0.8828  0.0544  0.3738
  152SAPE   C3116852   0.943   1.987  10.024 -0.4455  0.0899 -0.0673
  152SAPE   O3216853   1.006   2.007  10.128  0.0216 -0.1532  0.6705
  152SAPE   C3216854   1.006   2.013   9.887 -0.2796  0.6178 -0.2106
  152SAPE   H2X16855   1.044   1.916   9.848  0.8289 -0.4787  3.2794
  152SAPE   H2Y16856   1.089   2.078   9.922  0.4581 -1.0395  1.2150
  152SAPE   C2316857   0.496   2.191   9.832  0.1761  0.0024 -0.6165
  152SAPE   H3R16858   0.556   2.117   9.774 -1.0551 -1.5472  0.0040
  152SAPE   H3S16859   0.555   2.285   9.827 -0.4872  0.3648 -2.7807
  152SAPE   C2416860   0.363   2.233   9.762  0.0026 -0.0881  0.1398
  152SAPE   H4R16861   0.308   2.302   9.829  0.8531  1.0656 -0.3111
  152SAPE   H4S16862   0.301   2.143   9.740  1.1658 -0.7892 -0.3579
  152SAPE   C2516863   0.401   2.305   9.637 -0.6077  0.0184 -0.4190
  152SAPE   H5R16864   0.434   2.229   9.565  2.5892 -0.2456  1.1596
  152SAPE   C2616865   0.412   2.436   9.609  0.8566 -0.9637 -0.1006
  152SAPE   H6R16866   0.441   2.461   9.506 -0.0077 -0.8624 -0.3291
  152SAPE   C2716867   0.381   2.560   9.694 -0.1458 -0.0264  0.4349
  152SAPE   H7R16868   0.367   2.539   9.802 -0.2095 -0.7785  0.2852
  152SAPE   H7S16869   0.286   2.611   9.670  0.3517  1.8626  2.1386
  152SAPE   C2816870   0.507   2.650   9.696  0.1627 -0.2770  0.4170
  152SAPE   H8R16871   0.575   2.620   9.777 -1.1712  1.6670  2.3707
  152SAPE   C2916872   0.547   2.743   9.607  0.5961  0.2220 -0.0962
  152SAPE   H9R16873   0.648   2.783   9.619  0.4589  0.9323 -1.1868
  152SAPE  C21016874   0.464   2.789   9.487  0.5810  0.4578  0.0089
  152SAPE  H10R16875   0.482   2.896   9.461  0.0096  0.3333 -0.9463
  152SAPE  H10S16876   0.355   2.788   9.508  0.6360  3.2110  0.7741
  152SAPE  C21116877   0.491   2.712   9.361  0.6065 -0.8778 -0.0515
  152SAPE  H11R16878   0.552   2.621   9.370  2.7844  0.4834 -0.3822
  152SAPE  C21216879   0.430   2.738   9.242  0.0578  0.3790  0.4597
  152SAPE  H12R16880   0.447   2.671   9.156  0.8907 -0.3112  1.1404
  152SAPE  C21316881   0.340   2.856   9.210  0.0088 -0.6321  0.3520
  152SAPE  H13R16882   0.370   2.903   9.114 -2.0748 -1.4564 -0.7835
  152SAPE  H13S16883   0.367   2.928   9.290 -2.2297  0.7716 -0.0489
  152SAPE  C21416884   0.194   2.822   9.219  0.3846  0.3618  0.2282
  152SAPE  H14R16885   0.174   2.744   9.295 -1.8724  1.7629  1.1693
  152SAPE  C21516886   0.087   2.863   9.146 -0.2727  0.4733 -0.0472
  152SAPE  H15R16887  -0.012   2.821   9.163 -0.4939  1.3036  0.8162
  152SAPE  C21616888   0.097   2.962   9.040 -0.2764  0.0412  0.3645
  152SAPE  H16R16889   0.197   3.007   9.022 -0.6688  0.0115 -2.1978
  152SAPE  H16S16890   0.027   3.046   9.061 -0.2264 -0.2525  1.8611
  152SAPE  C21716891   0.069   2.897   8.901  0.0503 -0.8768 -0.1342
  152SAPE  H17R16892  -0.035   2.858   8.901  0.5601 -2.3372  1.1068
  152SAPE  H17S16893   0.130   2.807   8.876  1.5074 -0.1175  0.5769
  152SAPE  C21816894   0.075   2.992   8.779  0.4002  0.0028 -0.4094
  152SAPE  H18R16895   0.183   3.006   8.760  0.1382  0.2592 -1.9062
  152SAPE  H18S16896   0.035   3.094   8.800 -0.9748 -0.3775 -1.0065
  152SAPE  C21916897  -0.001   2.953   8.647 -0.0768 -0.2342  0.5763
  152SAPE  H19R16898  -0.110   2.944   8.669 -0.0809  0.9914  1.1130
  152SAPE  H19S16899   0.029   2.851   8.614 -0.3605  0.4336 -1.9683
  152SAPE  C22016900   0.018   3.039   8.522 -0.3151  0.5878  0.7614
  152SAPE  H20R16901  -0.033   3.137   8.535  0.1083  0.6723  1.9210
  152SAPE  H20S16902  -0.006   2.981   8.431 -1.7003 -2.9373  3.1726
  152SAPE  H20T16903   0.126   3.059   8.503  0.2593 -0.8980  2.1967
  152SAPE   C3316904   0.914   2.086   9.781 -0.0187  0.1751 -0.4839
  152SAPE   H3X16905   0.888   2.189   9.815 -1.4040 -0.0814 -0.7041
  152SAPE   H3Y16906   0.816   2.035   9.774 -1.0476  2.2136 -2.3704
  152SAPE   C3416907   0.968   2.104   9.641 -0.0387 -0.9020 -0.3849
  152SAPE   H4X16908   1.062   2.162   9.649 -0.0187 -0.9275 -0.4395
  152SAPE   H4Y16909   0.895   2.167   9.587  0.6576 -0.0735 -0.3762
  152SAPE   C3516910   0.992   1.973   9.561  0.3119 -0.2519 -0.3074
  152SAPE   H5X16911   0.903   1.908   9.572 -0.2776  0.5036 -0.5053
  152SAPE   H5Y16912   1.082   1.922   9.602 -0.0425 -0.8696 -0.2805
  152SAPE   C3616913   1.009   2.016   9.421  0.3903 -0.2792 -0.9046
  152SAPE   H6X16914   1.104   2.074   9.417 -0.5392  1.4718  0.8805
  152SAPE   H6Y16915   0.931   2.083   9.379  0.1539 -0.4396 -0.7158
  152SAPE   C3716916   1.027   1.897   9.330 -0.4109  0.0541  0.2791
  152SAPE   H7X16917   0.942   1.829   9.348 -1.0632  0.8422  0.2206
  152SAPE   H7Y16918   1.124   1.846   9.348 -0.3959  0.0490  0.1875
  152SAPE   C3816919   1.041   1.940   9.182 -0.5750  0.3747  0.4371
  152SAPE   H8X16920   1.118   2.020   9.170  1.3116 -1.4897 -0.5861
  152SAPE   H8Y16921   0.945   1.984   9.148 -1.4121 -0.9377  1.0543
  152SAPE   C3916922   1.101   1.824   9.103 -0.1092  0.2088 -0.3556
  152SAPE   H9X16923   1.036   1.735   9.115 -0.2442  0.2183 -0.9826
  152SAPE   H9Y16924   1.194   1.785   9.149 -1.0915 -0.4997  1.0798
  152SAPE  C31016925   1.129   1.857   8.953  0.4272  0.3629  0.1470
  152SAPE  H10X16926   1.200   1.780   8.917 -0.9355 -1.0381  0.3617
  152SAPE  H10Y16927   1.163   1.961   8.936 -1.4019  0.8745 -0.6203
  152SAPE  C31116928   1.006   1.844   8.870  0.3312  0.2554  0.1489
  152SAPE  H11X16929   0.923   1.899   8.920  1.4715  0.3200  2.0658
  152SAPE  H11Y16930   0.957   1.745   8.876 -0.5462  0.4099 -2.9352
  152SAPE  C31216931   1.028   1.885   8.719  0.3388 -0.5573 -0.6187
  152SAPE  H12X16932   1.107   1.963   8.719  0.5293 -0.6945  1.4155
  152SAPE  H12Y16933   0.933   1.923   8.676  1.5210  1.4875 -1.5901
  152SAPE  C31316934   1.062   1.769   8.631  0.2136  0.1323  0.6475
  152SAPE  H13X16935   1.018   1.676   8.674  2.4773 -0.7400  1.2202
  152SAPE  H13Y16936   1.172   1.757   8.626  0.3331  1.5754 -1.1467
  152SAPE  C31416937   1.006   1.781   8.489 -0.1503  0.5087 -0.9426
  152SAPE  H14X16938   0.901   1.817   8.494 -0.2161  0.2686 -0.5227
  152SAPE  H14Y16939   0.998   1.681   8.442 -1.0529 -0.5651  1.3424
  152SAPE  C31516940   1.086   1.877   8.396  0.3478  1.0337 -1.0349
  152SAPE  H15X16941   1.172   1.921   8.451 -2.3474  2.7434  2.1825
  152SAPE  H15Y16942   1.018   1.964   8.382 -2.2595 -0.5458  0.9456
  152SAPE  C31616943   1.121   1.812   8.262  0.2000  0.4406  0.3056
  152SAPE  H16X16944   1.031   1.763   8.220 -0.8334 -0.1881  3.0410
  152SAPE  H16Y16945   1.197   1.731   8.268 -0.1860 -0.0127 -0.6438
  152SAPE  C31716946   1.164   1.918   8.159  0.1853 -0.2097  0.7205
  152SAPE  H17X16947   1.096   2.005   8.153 -0.0583 -0.3274  1.6730
  152SAPE  H17Y16948   1.176   1.872   8.058  0.2624  1.1374  0.0891
  152SAPE  C31816949   1.313   1.957   8.190  0.0065 -0.0919 -0.3706
  152SAPE  H18X16950   1.377   1.868   8.173 -0.7326 -0.8288  0.5722
  152SAPE  H18Y16951   1.315   1.998   8.294 -3.1825 -2.0058  0.5942
  152SAPE  H18Z16952   1.349   2.041   8.127  3.6415 -0.1344  1.4083
  153SAPE     N16953   2.183   2.019  10.502 -0.1573  0.2044  0.5522
  153SAPE   HN116954   2.250   1.942  10.481  1.8466  1.8316  0.6541
  153SAPE   HN216955   2.242   2.101  10.528 -0.8371  0.1618  2.3430
  153SAPE   HN316956   2.120   1.989  10.578 -1.6531  0.3414 -0.5914
  153SAPE   C1216957   2.103   2.066  10.382 -0.1196  0.0351  0.2930
  153SAPE  H12A16958   2.045   1.978  10.345 -0.9072  0.7791 -0.2807
  153SAPE  H12B16959   2.173   2.102  10.305  1.6727 -1.2154  1.2774
  153SAPE   C1116960   2.008   2.177  10.436 -0.5659  0.4887  0.6102
  153SAPE  H11A16961   1.945   2.204  10.349 -0.7747  0.1980  0.6721
  153SAPE  H11B16962   2.078   2.263  10.449  1.4796 -0.9139 -0.4677
  153SAPE     P16963   1.840   2.248  10.618 -0.3915  0.3066 -0.0763
  153SAPE   O1316964   1.742   2.165  10.689  0.4888 -0.1537 -0.4030
  153SAPE   O1416965   1.926   2.344  10.697 -0.0518 -0.1502  0.1211
  153SAPE   O1216966   1.936   2.147  10.552  0.0698 -0.5350 -0.4182
  153SAPE   O1116967   1.766   2.319  10.503  0.2499 -0.3944 -0.0083
  153SAPE    C116968   1.659   2.261  10.436  0.2103  0.0538 -0.1934
  153SAPE    HA16969   1.695   2.173  10.379  0.5117 -0.9188  1.4411
  153SAPE    HB16970   1.579   2.233  10.508 -0.2521 -0.3609 -0.8490
  153SAPE    C216971   1.607   2.357  10.323 -0.2751 -0.6377 -0.4805
  153SAPE    HS16972   1.577   2.446  10.383  1.9293 -0.1163 -0.0673
  153SAPE   O2116973   1.502   2.286  10.259 -0.0700 -0.2536 -0.4800
  153SAPE   C2116974   1.427   2.357  10.173  0.9705 -0.0529 -0.5208
  153SAPE   O2216975   1.442   2.476  10.149  0.0772  0.3814 -0.4867
  153SAPE   C2216976   1.334   2.264  10.092  0.2388 -0.0968 -0.0330
  153SAPE   H2R16977   1.366   2.157  10.090 -1.3009 -0.5926 -2.0939
  153SAPE   H2S16978   1.241   2.260  10.151  0.7936 -2.2169  0.7917
  153SAPE    C316979   1.719   2.396  10.214  0.0376  0.2226 -0.5053
  153SAPE    HX16980   1.807   2.430  10.272 -0.7712  2.7591 -0.6443
  153SAPE    HY16981   1.675   2.482  10.159  0.4339  1.1264  0.5642
  153SAPE   O3116982   1.757   2.284  10.124 -0.2426  0.0096 -0.2563
  153SAPE   C3116983   1.829   2.333  10.022  0.3955 -0.1863 -0.7171
  153SAPE   O3216984   1.870   2.444  10.011  0.8530 -0.1914 -0.3554
  153SAPE   C3216985   1.861   2.221   9.923 -0.0232 -0.1037  0.8500
  153SAPE   H2X16986   1.783   2.142   9.919 -1.0130  0.8806  0.1117
  153SAPE   H2Y16987   1.961   2.179   9.951 -0.2815 -2.5292 -1.4362
  153SAPE   C2316988   1.326   2.325   9.944 -0.3744  0.0402  0.1833
  153SAPE   H3R16989   1.288   2.429   9.945 -4.2739 -1.2501  0.8742
  153SAPE   H3S16990   1.260   2.271   9.873 -0.5186  0.3794  0.0570
  153SAPE   C2416991   1.463   2.326   9.874 -0.0919 -0.4863 -0.4710
  153SAPE   H4R16992   1.535   2.386   9.934  0.1893  0.4956 -1.7301
  153SAPE   H4S16993   1.451   2.374   9.774 -0.2503 -0.2661 -0.3475
  153SAPE   C2516994   1.520   2.183   9.867  0.4732 -0.8700 -1.0245
  153SAPE   H5R16995   1.544   2.141   9.965 -1.7694 -0.3739 -0.1939
  153SAPE   C2616996   1.538   2.107   9.758  0.2713  1.0549  0.0022
  153SAPE   H6R16997   1.566   2.004   9.785  3.2347  1.7020 -0.2376
  153SAPE   C2716998   1.518   2.130   9.614 -0.0906 -0.2448  0.3125
  153SAPE   H7R16999   1.609   2.122   9.551 -1.6258  1.1411 -2.2687
  153SAPE   H7S17000   1.493   2.238   9.597  2.9634  0.5532  0.2925
  153SAPE   C2817001   1.404   2.044   9.556  0.2849 -0.0082 -0.0559
  153SAPE   H8R17002   1.335   1.995   9.627 -0.8505  1.0803 -0.3640
  153SAPE   C2917003   1.390   2.039   9.420 -0.1215 -0.5756  0.7270
  153SAPE   H9R17004   1.296   2.006   9.373 -1.2986  1.1042  1.7689
  153SAPE  C21017005   1.475   2.103   9.309  0.4927  0.4509 -0.7171
  153SAPE  H10R17006   1.518   2.196   9.351  0.5312  0.4681 -0.7961
  153SAPE  H10S17007   1.399   2.122   9.231  1.1181 -0.9059 -1.6940
  153SAPE  C21117008   1.579   2.016   9.261 -0.3519 -0.0135 -0.1735
  153SAPE  H11R17009   1.665   2.005   9.329 -1.0077 -2.4711  0.3508
  153SAPE  C21217010   1.574   1.948   9.146 -1.2132  0.1343  0.3887
  153SAPE  H12R17011   1.665   1.890   9.124  0.1456  1.6716  1.6410
  153SAPE  C21317012   1.464   1.953   9.048  0.1188  0.2443 -0.1256
  153SAPE  H13R17013   1.465   2.039   8.978  1.6398 -1.2035 -2.0188
  153SAPE  H13S17014   1.365   1.955   9.099  0.5126  0.6056  0.6271
  153SAPE  C21417015   1.477   1.834   8.956  0.0498 -0.2555  0.6709
  153SAPE  H14R17016   1.410   1.753   8.990 -2.2893  1.6053  0.7307
  153SAPE  C21517017   1.553   1.813   8.847 -0.2086 -0.2496  0.3055
  153SAPE  H15R17018   1.556   1.711   8.806 -2.8089 -0.1152 -0.4059
  153SAPE  C21617019   1.645   1.925   8.797 -0.2702 -0.2333 -0.3849
  153SAPE  H16R17020   1.750   1.897   8.771  0.0872  0.5919  0.1335
  153SAPE  H16S17021   1.656   2.007   8.871  1.3276 -0.5645 -0.2125
  153SAPE  C21717022   1.592   1.987   8.666  0.2397 -0.3576 -0.9297
  153SAPE  H17R17023   1.590   1.914   8.583  0.0569  0.2120 -1.4346
  153SAPE  H17S17024   1.663   2.067   8.637 -0.7876 -0.3412 -3.6759
  153SAPE  C21817025   1.460   2.053   8.675  0.2184 -0.6983  0.5855
  153SAPE  H18R17026   1.458   2.137   8.747 -1.0199  1.4596 -1.7960
  153SAPE  H18S17027   1.377   1.980   8.690 -0.0266 -0.3513  0.9481
  153SAPE  C21917028   1.426   2.131   8.539 -0.5756 -1.1311 -0.4168
  153SAPE  H19R17029   1.412   2.062   8.452  0.8381  0.1146 -1.6870
  153SAPE  H19S17030   1.509   2.197   8.507 -0.3729 -1.3526 -0.3494
  153SAPE  C22017031   1.308   2.215   8.556  0.0951 -0.2488 -1.4035
  153SAPE  H20R17032   1.285   2.273   8.464  5.3827  1.3537 -2.0848
  153SAPE  H20S17033   1.340   2.287   8.635 -1.7781 -1.5078  0.5966
  153SAPE  H20T17034   1.217   2.160   8.588  0.4869 -0.0549  0.1574
  153SAPE   C3317035   1.868   2.275   9.771  0.8078  0.2852 -1.0126
  153SAPE   H3X17036   1.949   2.350   9.759  1.2496 -0.2138 -1.2305
  153SAPE   H3Y17037   1.769   2.315   9.739 -0.2377  0.4938  2.1338
  153SAPE   C3417038   1.893   2.160   9.675 -0.6790  0.0135 -0.7185
  153SAPE   H4X17039   1.797   2.115   9.643 -1.7428 -1.1157  3.4548
  153SAPE   H4Y17040   1.961   2.080   9.713 -2.4288 -1.1100  0.1573
  153SAPE   C3517041   1.950   2.205   9.541 -0.3080 -0.5750  0.2329
  153SAPE   H5X17042   2.051   2.244   9.565 -1.3591  1.0361  2.3700
  153SAPE   H5Y17043   1.892   2.294   9.509  1.3119  0.0827 -1.0299
  153SAPE   C3617044   1.955   2.099   9.434 -0.2250  0.2673 -0.2416
  153SAPE   H6X17045   1.859   2.073   9.385  0.6704 -2.9231 -0.4840
  153SAPE   H6Y17046   1.982   2.003   9.482  1.0615  1.7689  2.2818
  153SAPE   C3717047   2.053   2.130   9.318 -0.5575 -0.2613 -0.0012
  153SAPE   H7X17048   2.156   2.119   9.356 -0.2680  0.3961 -0.5583
  153SAPE   H7Y17049   2.042   2.237   9.290  0.4987 -0.4187 -1.1106
  153SAPE   C3817050   2.026   2.042   9.195  0.0965 -0.0270  0.3409
  153SAPE   H8X17051   1.917   2.029   9.177  0.5409 -2.7284 -0.8600
  153SAPE   H8Y17052   2.072   1.942   9.212  0.3727 -0.2931 -1.6914
  153SAPE   C3917053   2.065   2.112   9.064 -0.2192  0.2047  0.2780
  153SAPE   H9X17054   2.174   2.131   9.069 -0.1288 -0.3883  0.6447
  153SAPE   H9Y17055   2.004   2.204   9.051  3.9298  3.0466 -1.3800
  153SAPE  C31017056   2.048   2.017   8.941 -0.0151  0.2856  0.1689
  153SAPE  H10X17057   1.942   1.985   8.945  1.0291 -3.7683  0.5252
  153SAPE  H10Y17058   2.110   1.925   8.954  2.0547  1.9012  2.9957
  153SAPE  C31117059   2.061   2.087   8.805  0.0390 -0.7425  0.7108
  153SAPE  H11X17060   2.003   2.181   8.818  1.3250 -0.1169  2.1094
  153SAPE  H11Y17061   2.020   2.025   8.722 -1.2564 -0.3847  1.0702
  153SAPE  C31217062   2.207   2.129   8.774  0.2147 -0.2523 -0.0422
  153SAPE  H12X17063   2.255   2.193   8.851  0.3371  0.2443 -0.5298
  153SAPE  H12Y17064   2.208   2.183   8.678 -0.4897 -0.3842 -0.1296
  153SAPE  C31317065   2.297   2.006   8.752 -0.0052  0.5988  0.3810
  153SAPE  H13X17066   2.259   1.939   8.672  0.4052 -0.5559  1.1301
  153SAPE  H13Y17067   2.297   1.945   8.845 -0.1533 -1.3896 -0.8632
  153SAPE  C31417068   2.446   2.043   8.722  0.3892 -0.5934  0.0901
  153SAPE  H14X17069   2.481   2.125   8.789 -0.5563 -1.5813  1.8874
  153SAPE  H14Y17070   2.447   2.077   8.617 -1.1945  0.0402  0.2431
  153SAPE  C31517071   2.544   1.930   8.722 -0.4453 -0.0062  0.2869
  153SAPE  H15X17072   2.514   1.853   8.648  0.8831 -1.1230  0.8681
  153SAPE  H15Y17073   2.533   1.871   8.816  2.5027 -1.3461 -0.1143
  153SAPE  C31617074   2.691   1.970   8.715  0.5237  0.6150  0.2875
  153SAPE  H16X17075   2.732   1.872   8.746  1.1129  0.7352 -0.1047
  153SAPE  H16Y17076   2.714   2.038   8.801  1.0980 -0.2893  0.8619
  153SAPE  C31717077   2.740   2.013   8.576  0.7932 -0.4329 -0.3305
  153SAPE  H17X17078   2.670   2.089   8.537  0.5450 -0.2342  0.4749
  153SAPE  H17Y17079   2.733   1.922   8.513 -0.0040 -0.2370 -0.5361
  153SAPE  C31817080   2.877   2.059   8.578 -0.1008  0.1690  0.4793
  153SAPE  H18X17081   2.931   2.083   8.484  0.6385 -1.0737  0.5721
  153SAPE  H18Y17082   2.941   1.973   8.607 -1.1299 -1.7189 -2.4532
  153SAPE  H18Z17083   2.896   2.137   8.655  0.6067 -0.1697  0.6601
  154SAPE     N17084   2.548   1.933  10.861  0.0508  0.5833  0.2125
  154SAPE   HN117085   2.609   1.998  10.915  0.0568  1.3426 -0.6825
  154SAPE   HN217086   2.592   1.839  10.864 -1.9314 -0.3812  1.0262
  154SAPE   HN317087   2.537   1.970  10.764  0.4259  3.6554  1.2058
  154SAPE   C1217088   2.419   1.941  10.933 -0.8486 -0.1397  0.2877
  154SAPE  H12A17089   2.376   2.043  10.919 -0.9631 -0.2277 -0.0230
  154SAPE  H12B17090   2.431   1.928  11.042 -1.1715  0.8684  0.4517
  154SAPE   C1117091   2.324   1.834  10.887  0.6587  0.4743  0.1582
  154SAPE  H11A17092   2.361   1.740  10.933 -0.8003 -0.8931 -1.3285
  154SAPE  H11B17093   2.337   1.834  10.777 -0.7848  1.8024 -0.0484
  154SAPE     P17094   2.086   1.956  10.853 -0.0906  0.2090  0.1052
  154SAPE   O1317095   1.955   1.964  10.922 -0.0770 -0.5892 -0.0160
  154SAPE   O1417096   2.146   2.085  10.815 -0.4717  0.2602 -0.1034
  154SAPE   O1217097   2.190   1.861  10.930 -0.1339  0.3184 -0.1028
  154SAPE   O1117098   2.064   1.885  10.713 -0.0143 -0.3785 -0.4626
  154SAPE    C117099   2.031   1.746  10.705  0.0269  0.3436 -0.0793
  154SAPE    HA17100   2.121   1.687  10.678  0.7104  0.2667  2.1239
  154SAPE    HB17101   2.019   1.703  10.807 -0.9174 -0.9348 -0.7016
  154SAPE    C217102   1.913   1.718  10.610 -0.1034  0.1390  0.3395
  154SAPE    HS17103   1.881   1.614  10.630  1.6857 -0.3884  0.6860
  154SAPE   O2117104   1.965   1.738  10.477 -0.1654  0.3768 -0.0176
  154SAPE   C2117105   1.910   1.663  10.384  0.3598  0.0164 -0.3274
  154SAPE   O2217106   1.848   1.562  10.403  0.0249  0.0059  0.1918
  154SAPE   C2217107   1.948   1.710  10.246 -0.2095 -0.2887 -0.5858
  154SAPE   H2R17108   1.879   1.789  10.210 -0.0783  0.1618  0.1371
  154SAPE   H2S17109   2.047   1.759  10.247 -0.0522 -0.6150  0.3664
  154SAPE    C317110   1.790   1.819  10.641 -0.7095  0.2071  0.1402
  154SAPE    HX17111   1.828   1.918  10.609 -1.4455  0.1699 -0.9248
  154SAPE    HY17112   1.763   1.804  10.747 -2.5007 -2.1415 -0.5543
  154SAPE   O3117113   1.667   1.785  10.573  0.1251  0.7736 -0.6011
  154SAPE   C3117114   1.639   1.853  10.465 -0.0030  0.6990  0.3967
  154SAPE   O3217115   1.706   1.940  10.414  0.1977 -0.6702 -0.0534
  154SAPE   C3217116   1.507   1.807  10.399  0.4338  0.4452  0.4756
  154SAPE   H2X17117   1.480   1.899  10.342 -0.4731  0.2341  0.5493
  154SAPE   H2Y17118   1.432   1.778  10.475 -1.3132  1.3762 -0.7980
  154SAPE   C2317119   1.947   1.597  10.138 -0.1470 -0.0556 -1.1432
  154SAPE   H3R17120   1.842   1.571  10.112 -0.5915  1.1803 -0.6615
  154SAPE   H3S17121   1.992   1.504  10.178  2.4178  1.9288  0.8721
  154SAPE   C2417122   2.021   1.625  10.006 -0.1085 -0.0516  0.1781
  154SAPE   H4R17123   2.025   1.535   9.940 -0.6559 -0.9634  1.3541
  154SAPE   H4S17124   2.126   1.653  10.027 -0.1330 -0.2794  0.6088
  154SAPE   C2517125   1.932   1.732   9.940 -0.1696 -0.0073  0.0938
  154SAPE   H5R17126   1.884   1.803  10.009 -0.1780  0.3182 -0.2493
  154SAPE   C2617127   1.896   1.740   9.806 -0.5998 -0.1153  0.3213
  154SAPE   H6R17128   1.821   1.816   9.778  1.5711  3.0502  2.3952
  154SAPE   C2717129   1.946   1.649   9.693 -0.9602  0.3305  0.0538
  154SAPE   H7R17130   2.031   1.590   9.735 -1.1620  1.1526  1.7126
  154SAPE   H7S17131   1.999   1.698   9.609 -0.0061  0.2537  0.5970
  154SAPE   C2817132   1.840   1.559   9.650 -0.0600  0.0137  0.2947
  154SAPE   H8R17133   1.794   1.501   9.732  0.1013 -0.6746 -0.0915
  154SAPE   C2917134   1.781   1.553   9.528 -0.3123  0.1817 -0.5539
  154SAPE   H9R17135   1.710   1.471   9.513  0.9794 -1.4232  1.4203
  154SAPE  C21017136   1.804   1.634   9.402  0.7579  0.2072  0.3761
  154SAPE  H10R17137   1.894   1.585   9.359  0.4898 -0.6644  0.7843
  154SAPE  H10S17138   1.836   1.740   9.408  1.1219  0.3438 -2.4963
  154SAPE  C21117139   1.685   1.621   9.313 -0.4927  0.0830 -0.2282
  154SAPE  H11R17140   1.586   1.611   9.360 -1.5044  1.1865 -2.0292
  154SAPE  C21217141   1.685   1.632   9.182  0.0909 -0.5922  0.4576
  154SAPE  H12R17142   1.586   1.610   9.141 -0.4187 -0.3516  1.5280
  154SAPE  C21317143   1.801   1.658   9.096  0.5159  0.6035 -0.5776
  154SAPE  H13R17144   1.868   1.733   9.144  0.2649  1.7880 -2.0213
  154SAPE  H13S17145   1.775   1.697   8.996 -0.2478  1.7610  0.0447
  154SAPE  C21417146   1.887   1.536   9.079 -0.1962 -0.2072 -0.0239
  154SAPE  H14R17147   1.885   1.454   9.152  2.2882  0.4462  0.8726
  154SAPE  C21517148   1.988   1.531   8.982 -0.0246  0.1635  0.1591
  154SAPE  H15R17149   2.055   1.444   8.981  1.5336  1.2793 -2.6288
  154SAPE  C21617150   2.014   1.617   8.853 -0.1633  0.1658 -0.4689
  154SAPE  H16R17151   2.112   1.670   8.855  0.3387 -0.7293 -0.7325
  154SAPE  H16S17152   1.933   1.688   8.827  1.7703  2.6636 -0.0695
  154SAPE  C21717153   2.030   1.541   8.715  0.9856 -0.0847  0.8998
  154SAPE  H17R17154   1.938   1.483   8.694  1.1044  0.2595 -0.6871
  154SAPE  H17S17155   2.116   1.472   8.728  0.0462 -1.7063 -0.9374
  154SAPE  C21817156   2.065   1.639   8.598 -0.4064 -0.3325 -0.4244
  154SAPE  H18R17157   2.135   1.593   8.525  2.0835  2.9914 -0.3607
  154SAPE  H18S17158   2.128   1.717   8.646  0.2322 -0.9744 -0.1875
  154SAPE  C21917159   1.944   1.686   8.524 -0.0517 -0.1614  0.2000
  154SAPE  H19R17160   1.873   1.723   8.602  0.0955 -1.9169  1.2131
  154SAPE  H19S17161   1.901   1.609   8.457  2.6580  0.3799 -2.3716
  154SAPE  C22017162   1.981   1.813   8.443 -0.2974 -0.5749 -0.1332
  154SAPE  H20R17163   2.053   1.783   8.364 -0.0754 -0.4077  0.0063
  154SAPE  H20S17164   2.020   1.897   8.504 -2.2355  1.0910 -1.0635
  154SAPE  H20T17165   1.889   1.866   8.411 -1.0218  0.3520  3.1278
  154SAPE   C3317166   1.519   1.677  10.318 -0.1265 -0.3113 -0.2434
  154SAPE   H3X17167   1.591   1.605  10.363 -0.2217 -0.1337  0.1937
  154SAPE   H3Y17168   1.568   1.701  10.221  2.2952 -0.4560  0.8635
  154SAPE   C3417169   1.389   1.604  10.300 -0.3652  0.0178  0.6296
  154SAPE   H4X17170   1.375   1.545  10.393  1.2490 -1.9973 -0.3027
  154SAPE   H4Y17171   1.404   1.530  10.219  1.1595 -1.1874  1.9253
  154SAPE   C3517172   1.268   1.689  10.263  0.2465 -0.4195  0.4145
  154SAPE   H5X17173   1.247   1.756  10.349 -0.4095 -0.1053  0.0186
  154SAPE   H5Y17174   1.181   1.619  10.257  1.7347 -2.4219  1.0448
  154SAPE   C3617175   1.293   1.769  10.133  0.1108 -0.5374  0.3153
  154SAPE   H6X17176   1.388   1.825  10.147 -0.3268 -0.4544  3.6680
  154SAPE   H6Y17177   1.217   1.849  10.117  0.3334 -0.1663  1.0722
  154SAPE   C3717178   1.314   1.667  10.010  0.2238  0.3878  0.1412
  154SAPE   H7X17179   1.252   1.579  10.034 -0.6015  0.2538 -2.2246
  154SAPE   H7Y17180   1.421   1.636  10.009 -0.0202 -0.5434 -1.8215
  154SAPE   C3817181   1.264   1.713   9.870  0.4344  0.3927  0.3285
  154SAPE   H8X17182   1.313   1.813   9.862 -0.3496  0.8686  1.2507
  154SAPE   H8Y17183   1.153   1.714   9.872  0.4337  0.6093  0.1355
  154SAPE   C3917184   1.299   1.615   9.750  0.2221  0.0656  0.0487
  154SAPE   H9X17185   1.256   1.515   9.772  0.3545  0.2854  1.4065
  154SAPE   H9Y17186   1.409   1.598   9.748 -0.1155 -2.5725  0.1702
  154SAPE  C31017187   1.253   1.662   9.610  0.3605 -0.2907  0.3091
  154SAPE  H10X17188   1.298   1.761   9.590 -2.0002  0.7775 -0.0397
  154SAPE  H10Y17189   1.142   1.674   9.602  0.1195 -2.2373  0.2983
  154SAPE  C31117190   1.304   1.565   9.508 -0.1756 -0.0482 -0.2155
  154SAPE  H11X17191   1.283   1.464   9.550 -1.0896  0.6391  1.0473
  154SAPE  H11Y17192   1.414   1.578   9.499 -0.1981  0.0027 -0.4123
  154SAPE  C31217193   1.242   1.560   9.370  0.3641 -0.0117  0.2267
  154SAPE  H12X17194   1.262   1.659   9.324  2.6073 -0.8608 -0.7667
  154SAPE  H12Y17195   1.131   1.555   9.372 -0.2300  5.5108  2.6150
  154SAPE  C31317196   1.295   1.454   9.277  0.1007 -0.5165 -0.3450
  154SAPE  H13X17197   1.253   1.357   9.311 -2.7093  1.0482  1.0322
  154SAPE  H13Y17198   1.405   1.441   9.287 -0.0229  0.1478  2.7157
  154SAPE  C31417199   1.248   1.463   9.134  0.9274 -0.3431  0.0729
  154SAPE  H14X17200   1.265   1.563   9.091 -1.8459  0.0562 -0.2990
  154SAPE  H14Y17201   1.137   1.454   9.135  0.7361  0.8992  3.5371
  154SAPE  C31517202   1.303   1.356   9.036 -0.0622  0.6930  0.4519
  154SAPE  H15X17203   1.251   1.356   8.938  4.2135 -0.1549 -2.1125
  154SAPE  H15Y17204   1.282   1.258   9.084 -1.0537  1.6004  1.9652
  154SAPE  C31617205   1.451   1.364   9.003  0.4266 -0.0542 -0.1702
  154SAPE  H16X17206   1.510   1.346   9.096 -2.2253 -1.3394  1.3848
  154SAPE  H16Y17207   1.470   1.468   8.970 -0.7505  0.2973  0.2450
  154SAPE  C31717208   1.483   1.278   8.884 -0.5213  0.1605  0.4148
  154SAPE  H17X17209   1.417   1.304   8.799 -2.5119  0.1766  1.9121
  154SAPE  H17Y17210   1.471   1.170   8.910 -0.5326  0.3287  1.1180
  154SAPE  C31817211   1.638   1.302   8.857 -0.6575  0.1526  0.3133
  154SAPE  H18X17212   1.695   1.262   8.944  1.1145  2.1155  0.1247
  154SAPE  H18Y17213   1.675   1.406   8.844 -0.4570 -0.2164 -2.6392
  154SAPE  H18Z17214   1.660   1.231   8.774 -1.7236 -0.7390  0.7638
  155SAPE     N17215   2.530   2.790  10.648 -0.1460  0.3823 -0.4704
  155SAPE   HN117216   2.541   2.880  10.598  0.6874 -0.7706 -2.5036
  155SAPE   HN217217   2.524   2.707  10.585  0.4624 -0.8178  0.9768
  155SAPE   HN317218   2.433   2.805  10.682 -0.4876 -2.4735  0.0978
  155SAPE   C1217219   2.627   2.767  10.762 -0.4607  0.3707  0.5784
  155SAPE  H12A17220   2.605   2.667  10.804 -1.3025  1.5586  3.2168
  155SAPE  H12B17221   2.616   2.847  10.839  0.8276  1.2157 -0.0729
  155SAPE   C1117222   2.769   2.776  10.717 -0.0595 -0.1549  0.0632
  155SAPE  H11A17223   2.766   2.878  10.672  0.7105 -0.2749 -0.2679
  155SAPE  H11B17224   2.798   2.704  10.638 -0.7920 -0.8741  0.4432
  155SAPE     P17225   2.892   2.874  10.922 -0.0528 -0.2432  0.0141
  155SAPE   O1317226   2.771   2.924  10.985  0.0471 -0.6183  0.4426
  155SAPE   O1417227   2.992   2.810  11.009 -0.3169  0.6346 -0.2473
  155SAPE   O1217228   2.861   2.765  10.819 -0.0413  0.0665 -0.5792
  155SAPE   O1117229   2.962   2.990  10.837  0.3685 -0.3987  0.4007
  155SAPE    C117230   3.057   2.953  10.739  0.5049  0.3936  0.1070
  155SAPE    HA17231   3.109   2.859  10.768 -1.9684 -1.3981 -0.8630
  155SAPE    HB17232   3.025   2.930  10.634  1.5084 -1.4873  0.1692
  155SAPE    C217233   3.163   3.063  10.741 -0.5228  0.0559  0.0221
  155SAPE    HS17234   3.175   3.091  10.848  2.2861  0.3700 -0.3180
  155SAPE   O2117235   3.101   3.168  10.675 -0.0276 -0.8263 -0.4715
  155SAPE   C2117236   3.157   3.285  10.679  0.1967  0.0873 -0.3678
  155SAPE   O2217237   3.253   3.310  10.749 -0.4333 -0.3716 -0.2691
  155SAPE   C2217238   3.091   3.385  10.599  0.2778 -0.6485  0.0176
  155SAPE   H2R17239   3.107   3.369  10.490  2.3178 -1.9648  0.4517
  155SAPE   H2S17240   2.981   3.386  10.605  0.3516  0.6189  1.9612
  155SAPE    C317241   3.289   3.017  10.672  0.0070  0.0546 -0.3273
  155SAPE    HX17242   3.348   2.957  10.744  2.8626 -0.5613 -2.9387
  155SAPE    HY17243   3.356   3.106  10.668 -1.5519  1.2998  0.2652
  155SAPE   O3117244   3.274   2.941  10.552 -0.5631 -0.0863 -0.0558
  155SAPE   C3117245   3.252   3.008  10.441  0.6590 -0.4081 -0.8216
  155SAPE   O3217246   3.245   3.128  10.431 -0.1552 -0.2072  0.3350
  155SAPE   C3217247   3.264   2.916  10.313 -0.1342  0.2848 -0.1018
  155SAPE   H2X17248   3.179   2.844  10.318 -1.5139  1.9585  3.2654
  155SAPE   H2Y17249   3.367   2.875  10.319  0.1708  1.2484  3.1305
  155SAPE   C2317250   3.131   3.528  10.631 -0.1340  0.1863 -0.4983
  155SAPE   H3R17251   3.237   3.560  10.616  0.0722 -0.9284 -1.5456
  155SAPE   H3S17252   3.122   3.554  10.739 -2.4398  0.0307 -0.6101
  155SAPE   C2417253   3.045   3.627  10.545 -0.6288 -0.5148  0.3301
  155SAPE   H4R17254   3.031   3.595  10.440 -1.1277  0.9983 -0.0902
  155SAPE   H4S17255   3.089   3.729  10.539 -1.6107 -0.0151  1.1956
  155SAPE   C2517256   2.916   3.646  10.618 -0.1660  1.0279  0.1698
  155SAPE   H5R17257   2.939   3.674  10.722  1.9982  0.2479 -0.0441
  155SAPE   C2617258   2.790   3.633  10.572  0.3131 -0.6467  0.5915
  155SAPE   H6R17259   2.709   3.637  10.647 -1.5364 -1.9607 -1.2145
  155SAPE   C2717260   2.724   3.605  10.434  0.1408 -0.4061 -0.5583
  155SAPE   H7R17261   2.639   3.536  10.451  0.4606 -0.7142 -0.2200
  155SAPE   H7S17262   2.794   3.549  10.369  0.0796  0.4551 -1.4005
  155SAPE   C2817263   2.680   3.730  10.370 -0.0580 -0.1773 -0.2933
  155SAPE   H8R17264   2.743   3.820  10.380 -3.3832  2.4306 -0.9788
  155SAPE   C2917265   2.559   3.753  10.309  0.0145  0.3867  0.2944
  155SAPE   H9R17266   2.536   3.848  10.259  0.1503  0.0169 -0.4793
  155SAPE  C21017267   2.445   3.655  10.282  0.5712  0.5042 -0.6743
  155SAPE  H10R17268   2.344   3.697  10.260 -0.2490  0.9399  3.1833
  155SAPE  H10S17269   2.411   3.606  10.376 -0.0859  0.6434 -0.8308
  155SAPE  C21117270   2.484   3.542  10.192  0.3619  0.0455  0.1224
  155SAPE  H11R17271   2.564   3.479  10.233  1.4395 -0.9991 -3.2675
  155SAPE  C21217272   2.452   3.529  10.059  0.1291  0.0734  0.2936
  155SAPE  H12R17273   2.489   3.446   9.998  0.4257  0.8010 -0.5375
  155SAPE  C21317274   2.361   3.624   9.985 -0.1008 -0.5305  0.5000
  155SAPE  H13R17275   2.368   3.613   9.875  1.4744  2.8079  0.1325
  155SAPE  H13S17276   2.392   3.729  10.006 -0.7311 -0.1322 -0.4783
  155SAPE  C21417277   2.210   3.622  10.017 -0.3627  0.1729  0.6934
  155SAPE  H14R17278   2.190   3.545  10.093  3.9932 -1.2082  0.7343
  155SAPE  C21517279   2.109   3.702   9.969  0.0957  0.0097  0.4340
  155SAPE  H15R17280   2.005   3.701  10.004 -1.0658  1.4529 -2.6179
  155SAPE  C21617281   2.124   3.806   9.863 -0.6582 -0.2991 -0.6154
  155SAPE  H16R17282   2.216   3.862   9.893  1.2405 -2.6780 -1.6223
  155SAPE  H16S17283   2.030   3.865   9.858 -1.2627 -1.0716  0.8369
  155SAPE  C21717284   2.157   3.753   9.727  0.3056  0.4939  0.6909
  155SAPE  H17R17285   2.083   3.678   9.691  1.8211 -0.7960  0.1053
  155SAPE  H17S17286   2.252   3.695   9.726  1.3825  1.7204 -5.2855
  155SAPE  C21817287   2.161   3.867   9.618 -0.3991  0.2640 -1.2525
  155SAPE  H18R17288   2.233   3.944   9.653  1.1417 -1.5376 -0.2866
  155SAPE  H18S17289   2.060   3.912   9.607 -0.7622 -0.7610 -2.3840
  155SAPE  C21917290   2.217   3.816   9.482  0.0328  0.4280  0.1220
  155SAPE  H19R17291   2.167   3.719   9.460  3.1932 -1.2513 -0.2178
  155SAPE  H19S17292   2.325   3.796   9.496  0.1805  1.0790 -0.0745
  155SAPE  C22017293   2.177   3.907   9.372 -0.0030  0.1058 -0.2238
  155SAPE  H20R17294   2.237   3.999   9.383 -0.8418  0.5900  0.4338
  155SAPE  H20S17295   2.066   3.918   9.364 -0.0096  0.0803 -0.1739
  155SAPE  H20T17296   2.211   3.849   9.284  1.1160 -0.0507  0.3017
  155SAPE   C3317297   3.244   2.999  10.188 -0.1054 -0.4144 -0.1270
  155SAPE   H3X17298   3.312   3.087  10.183 -1.6470  0.9173  1.0595
  155SAPE   H3Y17299   3.142   3.043  10.201  0.3363 -0.0148  2.5558
  155SAPE   C3417300   3.237   2.924  10.057 -0.3793  0.8393 -0.7747
  155SAPE   H4X17301   3.170   2.836  10.071  1.4611 -0.4609  0.2120
  155SAPE   H4Y17302   3.334   2.878  10.028 -0.0202 -0.6098  2.3140
  155SAPE   C3517303   3.178   3.020   9.949  0.3713 -0.4582  0.0446
  155SAPE   H5X17304   3.245   3.108   9.958 -0.1133 -0.1573  0.8732
  155SAPE   H5Y17305   3.071   3.042   9.973  0.2639  1.1586 -1.7120
  155SAPE   C3617306   3.181   2.958   9.808  0.6075 -0.7561 -0.7425
  155SAPE   H6X17307   3.145   2.853   9.813  1.5158 -1.1110 -1.4809
  155SAPE   H6Y17308   3.289   2.957   9.782  0.8497  2.1215 -0.1300
  155SAPE   C3717309   3.112   3.045   9.701 -0.3366  0.6799 -0.4798
  155SAPE   H7X17310   3.134   3.151   9.727 -0.8419  0.7072 -0.1677
  155SAPE   H7Y17311   3.003   3.056   9.717 -0.3050  0.2273  0.0850
  155SAPE   C3817312   3.154   3.013   9.559 -0.3129 -0.8536 -0.4306
  155SAPE   H8X17313   3.122   2.911   9.526 -0.0718 -1.5843  1.4464
  155SAPE   H8Y17314   3.264   3.003   9.561 -0.2936 -0.6006  1.3668
  155SAPE   C3917315   3.124   3.118   9.451 -0.0900  0.5426  0.3060
  155SAPE   H9X17316   3.166   3.220   9.462  0.4162  0.5150 -1.0845
  155SAPE   H9Y17317   3.014   3.128   9.457 -0.1531  0.7080 -0.8821
  155SAPE  C31017318   3.157   3.072   9.309  0.3961 -0.8744  0.7673
  155SAPE  H10X17319   3.135   2.964   9.298  2.8281 -1.2693 -0.8692
  155SAPE  H10Y17320   3.260   3.097   9.276 -0.8097  0.5486 -2.2771
  155SAPE  C31117321   3.066   3.146   9.201 -0.5753  0.8011  0.2521
  155SAPE  H11X17322   3.091   3.254   9.214 -1.0707  1.3696 -2.7940
  155SAPE  H11Y17323   2.962   3.128   9.235  0.0415 -2.5050  0.7363
  155SAPE  C31217324   3.100   3.110   9.060 -0.4702 -0.6928 -0.4143
  155SAPE  H12X17325   3.209   3.131   9.058 -0.5079 -0.2935  0.9384
  155SAPE  H12Y17326   3.052   3.177   8.986  0.5172  0.3951 -0.0986
  155SAPE  C31317327   3.084   2.964   9.024  0.2961 -0.7632 -0.0805
  155SAPE  H13X17328   2.974   2.946   9.028  0.3317 -0.8434  0.8295
  155SAPE  H13Y17329   3.130   2.901   9.103  1.2820  1.4862  1.2318
  155SAPE  C31417330   3.155   2.935   8.887  0.5771 -0.7942  0.3153
  155SAPE  H14X17331   3.107   2.989   8.803  0.3136 -1.3841  0.0836
  155SAPE  H14Y17332   3.150   2.825   8.872  1.6751 -0.5760 -2.2294
  155SAPE  C31517333   3.304   2.977   8.899 -0.4440 -0.2270  0.7005
  155SAPE  H15X17334   3.349   2.947   8.997  1.2817 -1.8254 -0.5088
  155SAPE  H15Y17335   3.310   3.084   8.872 -0.7367 -0.0436  1.3324
  155SAPE  C31617336   3.393   2.908   8.788 -0.9338  0.3193 -0.1810
  155SAPE  H16X17337   3.388   2.797   8.786  0.3394  0.2586 -0.8995
  155SAPE  H16Y17338   3.494   2.948   8.810 -1.4223  1.2987  0.3260
  155SAPE  C31717339   3.367   2.948   8.641 -0.1090  0.0328  0.5458
  155SAPE  H17X17340   3.376   3.058   8.625  1.5075 -0.3670 -1.7818
  155SAPE  H17Y17341   3.259   2.922   8.634  0.0479 -0.8830  1.3630
  155SAPE  C31817342   3.451   2.872   8.542 -0.1400  0.4392 -0.3667
  155SAPE  H18X17343   3.442   2.765   8.572  0.9384  1.0724  2.6289
  155SAPE  H18Y17344   3.558   2.902   8.547 -0.4865  1.5941  0.8081
  155SAPE  H18Z17345   3.415   2.872   8.437  0.1400  4.1981 -0.5916
  156SAPE     N17346   0.670   1.060  10.532 -0.2274 -0.7440 -0.0967
  156SAPE   HN117347   0.681   1.160  10.560 -0.9080 -0.2060 -1.6749
  156SAPE   HN217348   0.764   1.023  10.556  0.5731  1.4289  0.4416
  156SAPE   HN317349   0.662   1.056  10.429  2.4959  1.5886 -0.5584
  156SAPE   C1217350   0.564   0.991  10.618  0.1534  0.2199 -0.0223
  156SAPE  H12A17351   0.560   1.051  10.711 -0.1666  0.8990 -0.4754
  156SAPE  H12B17352   0.581   0.882  10.636 -0.0224  0.4541  1.8354
  156SAPE   C1117353   0.430   1.022  10.554 -0.2560  0.2661 -0.2363
  156SAPE  H11A17354   0.351   0.964  10.606 -0.4426  0.1395 -0.6567
  156SAPE  H11B17355   0.439   0.986  10.449 -0.9573  0.8235 -0.4920
  156SAPE     P17356   0.275   1.218  10.475  0.0950  0.6289  0.2606
  156SAPE   O1317357   0.222   1.112  10.383  0.4383  0.1372 -1.0812
  156SAPE   O1417358   0.187   1.274  10.574 -0.2031 -0.9491 -0.3491
  156SAPE   O1217359   0.404   1.165  10.548  0.1610 -0.5826  0.2359
  156SAPE   O1117360   0.325   1.341  10.388 -0.2663  0.1568  0.3782
  156SAPE    C117361   0.452   1.404  10.408 -0.4600 -0.1713  0.5658
  156SAPE    HA17362   0.459   1.439  10.513  0.2803 -0.3625  0.5862
  156SAPE    HB17363   0.537   1.337  10.382  0.8898  1.3271  0.9308
  156SAPE    C217364   0.480   1.527  10.311 -0.0782  0.2615 -0.1217
  156SAPE    HS17365   0.560   1.590  10.356 -0.4911 -1.0388  2.5975
  156SAPE   O2117366   0.355   1.599  10.291 -0.0111  0.1393 -0.3527
  156SAPE   C2117367   0.325   1.688  10.384  0.2852  0.0853 -0.7486
  156SAPE   O2217368   0.389   1.707  10.485  0.0570 -0.2859  0.3493
  156SAPE   C2217369   0.190   1.755  10.353 -0.0497  0.0363 -0.0876
  156SAPE   H2R17370   0.117   1.704  10.418 -0.3000  0.7147  0.1753
  156SAPE   H2S17371   0.209   1.854  10.401  0.7638 -0.8630  1.5309
  156SAPE    C317372   0.542   1.484  10.173  0.7973  0.1015  0.3311
  156SAPE    HX17373   0.484   1.401  10.126  3.0305 -0.0157 -2.4993
  156SAPE    HY17374   0.641   1.441  10.200 -0.4986 -3.1195  0.4627
  156SAPE   O3117375   0.557   1.588  10.085 -0.7516  0.3121 -0.4727
  156SAPE   C3117376   0.592   1.557   9.962  0.3273  0.1304 -0.2105
  156SAPE   O3217377   0.617   1.442   9.919 -0.6108 -0.1624  0.0033
  156SAPE   C3217378   0.540   1.671   9.875 -0.0595  0.1717  1.0757
  156SAPE   H2X17379   0.604   1.761   9.886 -0.1399  0.1330  1.9722
  156SAPE   H2Y17380   0.436   1.683   9.912 -0.8724 -3.9101  0.6515
  156SAPE   C2317381   0.161   1.765  10.209 -0.2945 -0.0967 -0.4629
  156SAPE   H3R17382   0.061   1.812  10.199  1.8075  5.4845  0.4784
  156SAPE   H3S17383   0.167   1.669  10.154  0.2192  0.1470 -0.8397
  156SAPE   C2417384   0.259   1.864  10.134 -0.1142  0.7857 -0.2887
  156SAPE   H4R17385   0.234   1.849  10.027 -0.7625 -2.5249  0.2203
  156SAPE   H4S17386   0.364   1.827  10.136  0.8984  3.4613 -0.0368
  156SAPE   C2517387   0.246   2.007  10.176  0.1836  0.5350  0.5171
  156SAPE   H5R17388   0.295   2.026  10.273 -0.5399 -0.3613  1.0822
  156SAPE   C2617389   0.168   2.102  10.120  0.5135  0.5826  0.2231
  156SAPE   H6R17390   0.148   2.199  10.168 -1.4129  0.8930 -1.1124
  156SAPE   C2717391   0.082   2.089   9.997  1.4190 -0.1859 -0.2907
  156SAPE   H7R17392   0.128   2.020   9.923  0.7121 -2.6826  1.4720
  156SAPE   H7S17393   0.074   2.192   9.954  1.7722  0.8254  1.9263
  156SAPE   C2817394  -0.052   2.029  10.023 -0.4630  0.5143 -0.1277
  156SAPE   H8R17395  -0.049   1.946  10.095  1.4062 -1.2244 -2.0851
  156SAPE   C2917396  -0.168   2.047   9.951  0.7857  0.0916 -0.8577
  156SAPE   H9R17397  -0.258   2.004   9.997  0.8958  0.9140  0.1837
  156SAPE  C21017398  -0.184   2.132   9.827  0.4006  0.1353  0.4723
  156SAPE  H10R17399  -0.124   2.225   9.831  0.3049  0.3443 -1.5142
  156SAPE  H10S17400  -0.289   2.168   9.828  0.5620  0.6019  0.6770
  156SAPE  C21117401  -0.143   2.081   9.690 -0.4597 -0.5099 -0.5157
  156SAPE  H11R17402  -0.058   2.012   9.703 -1.0456 -0.7544  3.1243
  156SAPE  C21217403  -0.193   2.116   9.568  0.1196 -0.3146 -0.2717
  156SAPE  H12R17404  -0.148   2.057   9.488 -2.0157 -2.0019 -0.2944
  156SAPE  C21317405  -0.309   2.205   9.537  0.4778 -0.2707 -0.1347
  156SAPE  H13R17406  -0.264   2.304   9.516 -0.0550 -0.1738 -0.8799
  156SAPE  H13S17407  -0.367   2.220   9.630  1.6870 -1.6786  0.8845
  156SAPE  C21417408  -0.395   2.158   9.416 -0.8816  0.7140  0.1560
  156SAPE  H14R17409  -0.500   2.159   9.447 -0.2379 -0.0056  2.5835
  156SAPE  C21517410  -0.361   2.152   9.279  0.0463 -0.3131 -0.4782
  156SAPE  H15R17411  -0.414   2.087   9.208 -0.8044 -0.3923  0.2143
  156SAPE  C21617412  -0.224   2.181   9.223  0.2703 -0.0656 -0.1695
  156SAPE  H16R17413  -0.143   2.194   9.298  1.9280 -2.7226 -1.3861
  156SAPE  H16S17414  -0.230   2.268   9.155  0.0080  0.6562  0.7493
  156SAPE  C21717415  -0.178   2.057   9.140 -0.3715 -0.4120 -0.4434
  156SAPE  H17R17416  -0.257   2.061   9.062 -0.1282  2.5844 -0.6399
  156SAPE  H17S17417  -0.177   1.964   9.200 -0.8369 -2.5064 -3.4602
  156SAPE  C21817418  -0.038   2.077   9.082 -0.2981  0.5965 -0.7907
  156SAPE  H18R17419   0.047   2.100   9.150 -1.2414  0.7692  0.3480
  156SAPE  H18S17420  -0.028   2.168   9.020 -0.9987  0.9405 -0.4087
  156SAPE  C21917421  -0.006   1.959   8.984  0.0254  0.2340  0.6708
  156SAPE  H19R17422   0.079   1.981   8.916 -0.0655  0.2420  0.5593
  156SAPE  H19S17423  -0.092   1.944   8.915 -1.2928  0.8666  2.1191
  156SAPE  C22017424   0.048   1.836   9.056 -0.5573 -0.4694 -1.0437
  156SAPE  H20R17425   0.135   1.860   9.121  0.0804 -2.9743 -0.8679
  156SAPE  H20S17426   0.088   1.758   8.987  0.8678 -1.0428  0.3574
  156SAPE  H20T17427  -0.023   1.778   9.118 -2.3293  0.3799 -2.2237
  156SAPE   C3317428   0.514   1.627   9.730  0.1776 -0.6078  0.1531
  156SAPE   H3X17429   0.442   1.542   9.726  0.7448 -1.0394 -2.4593
  156SAPE   H3Y17430   0.611   1.603   9.683 -0.8999 -1.4571 -1.7434
  156SAPE   C3417431   0.457   1.740   9.645 -0.1106 -0.2831  0.3459
  156SAPE   H4X17432   0.498   1.840   9.670 -1.2364 -0.3050  2.5210
  156SAPE   H4Y17433   0.349   1.739   9.671 -0.5660 -0.6415 -1.4207
  156SAPE   C3517434   0.486   1.716   9.499  0.2674  0.0855 -0.2804
  156SAPE   H5X17435   0.437   1.625   9.457  0.3817 -0.8062  1.4578
  156SAPE   H5Y17436   0.597   1.715   9.492  0.1699  0.1966 -2.8164
  156SAPE   C3617437   0.438   1.840   9.416 -0.3111 -0.1023  0.6348
  156SAPE   H6X17438   0.494   1.922   9.465  1.6529 -0.9248 -0.1338
  156SAPE   H6Y17439   0.328   1.846   9.430 -0.0988 -0.1911  2.6421
  156SAPE   C3717440   0.470   1.832   9.261  0.2450 -0.4069  0.7306
  156SAPE   H7X17441   0.455   1.924   9.200  1.4012 -1.7615 -1.7288
  156SAPE   H7Y17442   0.412   1.751   9.212  0.7607 -0.1402 -0.3569
  156SAPE   C3817443   0.616   1.806   9.227  0.0697  0.0193 -0.8886
  156SAPE   H8X17444   0.653   1.723   9.291  0.2849  1.6631  1.2761
  156SAPE   H8Y17445   0.668   1.899   9.261 -1.7764  0.2639  1.5640
  156SAPE   C3917446   0.649   1.769   9.081 -0.1123  0.5667  0.0495
  156SAPE   H9X17447   0.591   1.685   9.037  0.4970  0.1858 -0.0317
  156SAPE   H9Y17448   0.751   1.725   9.085 -0.3781 -0.1385 -0.5525
  156SAPE  C31017449   0.626   1.886   8.979  0.2005  0.5427  0.6491
  156SAPE  H10X17450   0.677   1.976   9.021 -0.4355  0.6894  1.1221
  156SAPE  H10Y17451   0.518   1.909   8.979 -0.3015 -1.4456 -1.2739
  156SAPE  C31117452   0.656   1.862   8.834 -0.5337  0.5962  0.2749
  156SAPE  H11X17453   0.582   1.789   8.795 -1.7051  1.1426  1.3969
  156SAPE  H11Y17454   0.755   1.814   8.823 -0.0151  1.6682  0.0865
  156SAPE  C31217455   0.652   1.973   8.728  0.2641  0.1105  0.1993
  156SAPE  H12X17456   0.652   1.929   8.626  0.7587 -2.3378  1.1845
  156SAPE  H12Y17457   0.741   2.036   8.745  2.1458 -2.0436 -1.1249
  156SAPE  C31317458   0.527   2.059   8.735  0.9048 -0.0411 -0.1525
  156SAPE  H13X17459   0.526   2.112   8.638 -1.8757 -0.5585 -0.4807
  156SAPE  H13Y17460   0.531   2.138   8.813 -1.1874 -1.0762  1.0859
  156SAPE  C31417461   0.394   1.991   8.745  0.9136 -0.6558  0.5784
  156SAPE  H14X17462   0.316   2.070   8.740  0.1021 -1.4611  0.1584
  156SAPE  H14Y17463   0.384   1.942   8.844  1.8921  1.1256  1.5940
  156SAPE  C31517464   0.378   1.888   8.629 -0.7967 -0.5484 -0.2963
  156SAPE  H15X17465   0.461   1.815   8.640  0.4283  0.8286 -0.0459
  156SAPE  H15Y17466   0.401   1.927   8.527  5.0916 -1.8260  0.2062
  156SAPE  C31617467   0.240   1.813   8.630  0.0630  0.1202  0.4394
  156SAPE  H16X17468   0.226   1.761   8.728 -1.6205 -0.4604 -0.0864
  156SAPE  H16Y17469   0.237   1.739   8.547 -1.1604  3.9008 -3.2268
  156SAPE  C31717470   0.128   1.911   8.604  0.4288  0.0542  0.1767
  156SAPE  H17X17471   0.137   1.939   8.498  0.2496 -0.2302  0.0858
  156SAPE  H17Y17472   0.146   1.997   8.672  3.7314 -0.7439  0.4877
  156SAPE  C31817473  -0.006   1.842   8.622  0.2976  0.3137 -0.3394
  156SAPE  H18X17474  -0.098   1.899   8.597  0.6601  0.9889 -0.1636
  156SAPE  H18Y17475  -0.028   1.832   8.731 -1.1199 -2.9763 -0.8088
  156SAPE  H18Z17476  -0.012   1.735   8.592 -3.1216 -1.1928  4.4786
  157SAPE     N17477   4.874   1.697  10.539 -0.3757  0.0850 -0.1283
  157SAPE   HN117478   4.790   1.712  10.480 -1.0206  1.4715  1.0917
  157SAPE   HN217479   4.906   1.779  10.593 -1.2920 -0.4658  1.3195
  157SAPE   HN317480   4.952   1.678  10.473 -0.0522  1.5540 -0.1965
  157SAPE   C1217481   4.848   1.584  10.636  0.5298 -0.4395 -0.2842
  157SAPE  H12A17482   4.739   1.567  10.652  0.5067 -0.7142 -0.7113
  157SAPE  H12B17483   4.888   1.606  10.737  0.9804 -0.7148 -0.3997
  157SAPE   C1117484   4.903   1.452  10.584  0.3794  0.8198 -0.1864
  157SAPE  H11A17485   4.884   1.436  10.475 -0.3371 -0.8694  0.1488
  157SAPE  H11B17486   4.859   1.369  10.643  1.0394  1.7668  1.6994
  157SAPE     P17487   5.123   1.397  10.724 -0.2186 -0.0037 -0.4504
  157SAPE   O1317488   5.264   1.372  10.687  0.1832  0.1914  0.2817
  157SAPE   O1417489   5.091   1.494  10.827  0.1973 -0.5568  0.4053
  157SAPE   O1217490   5.049   1.449  10.587  0.5241  0.4033  0.5345
  157SAPE   O1117491   5.042   1.268  10.754 -0.0945  0.0281  1.0522
  157SAPE    C117492   5.085   1.144  10.697  0.0858  0.5193  0.4227
  157SAPE    HA17493   5.185   1.110  10.731 -0.2332 -3.0053 -1.6592
  157SAPE    HB17494   5.019   1.060  10.729 -2.9270  0.2049 -5.1814
  157SAPE    C217495   5.071   1.135  10.540 -0.7023  0.4484 -1.0038
  157SAPE    HS17496   5.138   1.212  10.496  1.2346 -0.3098  0.5026
  157SAPE   O2117497   4.931   1.138  10.496 -0.1201 -0.3900  0.0197
  157SAPE   C2117498   4.904   1.158  10.366 -0.4365 -0.0563 -0.3057
  157SAPE   O2217499   4.987   1.218  10.295 -0.5189 -0.0684  0.7870
  157SAPE   C2217500   4.762   1.107  10.329 -0.3760  0.0473  0.2745
  157SAPE   H2R17501   4.726   1.035  10.406 -0.6546  1.2126  1.2823
  157SAPE   H2S17502   4.695   1.196  10.327 -1.3430 -0.6724 -0.1418
  157SAPE    C317503   5.130   0.991  10.497  0.2055 -0.3207  0.6167
  157SAPE    HX17504   5.065   0.921  10.553 -2.3843 -0.0826 -1.8415
  157SAPE    HY17505   5.235   0.974  10.529  1.0991  0.7338 -1.5243
  157SAPE   O3117506   5.117   0.978  10.349  0.1363 -0.5632  0.0783
  157SAPE   C3117507   5.205   1.051  10.276  0.3154  0.5564  0.0074
  157SAPE   O3217508   5.297   1.116  10.321  0.0875 -0.0380 -0.6526
  157SAPE   C3217509   5.188   1.017  10.131 -0.3480 -0.0450  0.1237
  157SAPE   H2X17510   5.084   1.048  10.104 -0.8546 -0.3703  1.6306
  157SAPE   H2Y17511   5.197   0.907  10.116  0.2811  0.0791 -0.4670
  157SAPE   C2317512   4.772   1.041  10.190  0.1078 -0.6417 -0.3181
  157SAPE   H3R17513   4.704   0.953  10.194  1.7541 -1.9816 -0.5959
  157SAPE   H3S17514   4.875   1.011  10.162  0.2871 -0.2492 -0.0864
  157SAPE   C2417515   4.715   1.136  10.084  0.0338  0.0822 -0.4309
  157SAPE   H4R17516   4.607   1.156  10.100 -0.3590 -0.2276 -2.3832
  157SAPE   H4S17517   4.715   1.087   9.984 -0.1999 -0.5808 -0.1088
  157SAPE   C2517518   4.791   1.268  10.074  0.5519 -0.3286 -0.5371
  157SAPE   H5R17519   4.768   1.328  10.164  0.2732 -2.1259  0.6463
  157SAPE   C2617520   4.863   1.308   9.979 -0.2731 -0.1284  0.8628
  157SAPE   H6R17521   4.926   1.396   9.992  0.7801 -0.9282  1.3170
  157SAPE   C2717522   4.903   1.235   9.854  0.0830  0.8507  0.1210
  157SAPE   H7R17523   4.905   1.128   9.885  1.7187  0.9793  0.5608
  157SAPE   H7S17524   5.011   1.254   9.836  0.3320  1.1146  1.6955
  157SAPE   C2817525   4.810   1.250   9.737 -0.4295 -0.2325 -0.0342
  157SAPE   H8R17526   4.707   1.237   9.773 -0.0478  2.2509  2.2658
  157SAPE   C2917527   4.839   1.261   9.607 -0.0596 -0.1602  0.4736
  157SAPE   H9R17528   4.749   1.271   9.546 -1.0721 -0.9066  1.7848
  157SAPE  C21017529   4.980   1.267   9.548  0.1174  0.0349 -0.3823
  157SAPE  H10R17530   5.065   1.227   9.607 -0.1139 -1.1744 -0.8179
  157SAPE  H10S17531   5.007   1.371   9.520 -1.8586  0.5741 -0.4362
  157SAPE  C21117532   4.977   1.185   9.423  0.4366 -0.3219  0.0766
  157SAPE  H11R17533   4.983   1.076   9.433 -1.5609 -0.8613 -3.1501
  157SAPE  C21217534   4.988   1.222   9.292  0.0012 -0.5172  0.2443
  157SAPE  H12R17535   4.998   1.149   9.211 -1.2681 -0.4191 -0.0165
  157SAPE  C21317536   4.986   1.359   9.238 -0.0779  0.0488 -0.1805
  157SAPE  H13R17537   5.084   1.398   9.203 -0.7198  1.7729 -0.1081
  157SAPE  H13S17538   4.944   1.431   9.310 -0.4487  0.6984 -1.0289
  157SAPE  C21417539   4.898   1.374   9.110 -0.1532 -0.1530 -0.0474
  157SAPE  H14R17540   4.797   1.415   9.124  0.1285  0.8858 -0.9719
  157SAPE  C21517541   4.945   1.344   8.987  0.0485 -0.9731  0.3137
  157SAPE  H15R17542   4.878   1.351   8.900  1.7130 -0.1139 -0.9511
  157SAPE  C21617543   5.078   1.291   8.940 -0.7224  0.4053  0.1572
  157SAPE  H16R17544   5.155   1.295   9.019  1.0154 -0.3571 -1.4225
  157SAPE  H16S17545   5.113   1.352   8.854  0.2918 -1.2471 -0.6562
  157SAPE  C21717546   5.107   1.138   8.907  0.0779 -0.0682 -0.5879
  157SAPE  H17R17547   5.115   1.079   9.001 -2.2186  0.8597  0.2548
  157SAPE  H17S17548   5.212   1.118   8.876  0.6466 -1.4432  1.9576
  157SAPE  C21817549   5.010   1.059   8.820  0.4319 -0.5641 -0.2552
  157SAPE  H18R17550   4.997   1.102   8.718 -1.5652 -1.4205 -0.3932
  157SAPE  H18S17551   4.912   1.033   8.866 -0.1349  0.7522 -0.6684
  157SAPE  C21917552   5.080   0.919   8.778 -0.0433  0.1536 -0.9114
  157SAPE  H19R17553   5.091   0.866   8.875  1.1099  0.5115 -0.8407
  157SAPE  H19S17554   5.174   0.946   8.725  1.2202  0.0919  1.1917
  157SAPE  C22017555   4.990   0.837   8.677  0.1983 -0.5814  0.8263
  157SAPE  H20R17556   4.994   0.872   8.571  1.6466 -0.4297  0.9116
  157SAPE  H20S17557   4.884   0.848   8.707  0.3320  0.6491  0.8930
  157SAPE  H20T17558   5.011   0.728   8.679 -1.9742 -1.0356  1.3064
  157SAPE   C3317559   5.289   1.101  10.043  0.4881  0.4091 -0.0935
  157SAPE   H3X17560   5.388   1.086  10.090  0.0747 -3.6131 -0.1861
  157SAPE   H3Y17561   5.263   1.209  10.038 -0.3127  0.2964  1.0670
  157SAPE   C3417562   5.304   1.038   9.904  0.1093  0.7619  0.5506
  157SAPE   H4X17563   5.211   0.985   9.873  1.5056 -0.3865 -2.0372
  157SAPE   H4Y17564   5.381   0.957   9.911  0.6032  1.3467  2.4302
  157SAPE   C3517565   5.341   1.158   9.814 -0.0334 -0.3174 -0.1043
  157SAPE   H5X17566   5.436   1.198   9.856 -0.8191  0.1557  1.2934
  157SAPE   H5Y17567   5.262   1.234   9.832  0.3614 -0.3934  2.3377
  157SAPE   C3617568   5.358   1.129   9.666  0.2252 -0.6631 -0.3026
  157SAPE   H6X17569   5.262   1.081   9.637 -0.7091  1.4575 -0.9453
  157SAPE   H6Y17570   5.440   1.056   9.650  1.9020  1.3177 -1.2945
  157SAPE   C3717571   5.379   1.256   9.588 -0.2151  0.3286 -0.1623
  157SAPE   H7X17572   5.456   1.314   9.644 -1.5412 -0.1039  2.2271
  157SAPE   H7Y17573   5.283   1.313   9.595 -0.8814 -0.8627  0.6092
  157SAPE   C3817574   5.414   1.232   9.447 -0.5461 -0.0259 -0.1299
  157SAPE   H8X17575   5.368   1.141   9.403  1.6192 -0.7134 -1.0914
  157SAPE   H8Y17576   5.522   1.209   9.432 -0.2035  1.7590 -0.6790
  157SAPE   C3917577   5.406   1.350   9.358 -0.6225 -0.2603  0.8404
  157SAPE   H9X17578   5.464   1.425   9.415  1.8090 -0.9367 -0.5913
  157SAPE   H9Y17579   5.299   1.375   9.340 -0.7981 -2.5949 -2.2398
  157SAPE  C31017580   5.472   1.322   9.220 -0.1810 -0.5756 -0.6450
  157SAPE  H10X17581   5.436   1.226   9.179  0.1550 -0.1949 -1.8784
  157SAPE  H10Y17582   5.581   1.310   9.236 -0.3400 -0.5913  0.4818
  157SAPE  C31117583   5.438   1.440   9.131  0.0592 -0.3754  0.6713
  157SAPE  H11X17584   5.485   1.537   9.157  1.0962  0.2479 -2.9725
  157SAPE  H11Y17585   5.328   1.449   9.124  0.1642 -0.1763 -1.0572
  157SAPE  C31217586   5.483   1.400   8.984 -0.2006 -0.2943  0.2095
  157SAPE  H12X17587   5.449   1.296   8.963  0.8872 -0.8028  0.9133
  157SAPE  H12Y17588   5.592   1.420   8.992 -0.3258 -0.2443  2.6010
  157SAPE  C31317589   5.410   1.491   8.888  0.5626 -0.7420 -0.1530
  157SAPE  H13X17590   5.446   1.593   8.911 -2.0100  0.0637  0.6438
  157SAPE  H13Y17591   5.299   1.497   8.889  0.5288  0.1813 -2.4366
  157SAPE  C31417592   5.449   1.465   8.735  0.6818  0.1967 -0.3369
  157SAPE  H14X17593   5.554   1.430   8.743  0.0568 -1.3847  1.4709
  157SAPE  H14Y17594   5.446   1.552   8.665  2.5784  0.3103 -0.3237
  157SAPE  C31517595   5.355   1.355   8.671 -0.2721  0.0865  0.3686
  157SAPE  H15X17596   5.250   1.390   8.669 -0.2706  0.0811 -0.0170
  157SAPE  H15Y17597   5.362   1.273   8.746 -2.5632  1.2075  1.9318
  157SAPE  C31617598   5.394   1.308   8.524 -1.0690  0.1783  0.2698
  157SAPE  H16X17599   5.326   1.353   8.449  1.2325  1.4294 -1.2041
  157SAPE  H16Y17600   5.382   1.198   8.518  1.5035 -0.0818 -1.6248
  157SAPE  C31717601   5.534   1.334   8.489 -0.0294  0.1645 -0.1933
  157SAPE  H17X17602   5.615   1.286   8.548  0.8695 -0.2401 -1.6942
  157SAPE  H17Y17603   5.552   1.443   8.497 -0.4444  0.1999  0.2682
  157SAPE  C31817604   5.547   1.299   8.346 -0.7040  0.3794 -0.7328
  157SAPE  H18X17605   5.653   1.275   8.320 -1.0599 -1.7055 -0.4253
  157SAPE  H18Y17606   5.517   1.383   8.280 -1.6519  1.5087  1.0586
  157SAPE  H18Z17607   5.495   1.203   8.326  0.5182 -0.4975  0.1283
  158SAPE     N17608   1.117   2.707  10.355 -0.3399  0.2580  0.7735
  158SAPE   HN117609   1.129   2.606  10.379  2.6565  0.7313  1.7575
  158SAPE   HN217610   1.172   2.731  10.270  0.3449  1.7862  1.6031
  158SAPE   HN317611   1.175   2.759  10.424 -0.5303  1.8496 -0.2419
  158SAPE   C1217612   0.976   2.748  10.348  0.5984  0.4268 -0.5796
  158SAPE  H12A17613   0.926   2.734  10.446 -0.5694  0.8335 -1.1004
  158SAPE  H12B17614   0.924   2.668  10.292 -2.6216  2.3401 -0.5472
  158SAPE   C1117615   0.961   2.894  10.293 -0.1552 -0.3120  0.4139
  158SAPE  H11A17616   0.858   2.930  10.271 -0.5502 -1.4496  0.3745
  158SAPE  H11B17617   1.009   2.884  10.193  0.3133 -2.9973  0.8364
  158SAPE     P17618   0.960   3.043  10.509  0.2316 -0.1040 -0.0660
  158SAPE   O1317619   0.955   2.930  10.607 -0.0452 -0.5918  0.5553
  158SAPE   O1417620   1.023   3.166  10.553  0.3989  0.4405  0.5200
  158SAPE   O1217621   1.034   2.984  10.380  0.7269 -0.1712 -0.0098
  158SAPE   O1117622   0.815   3.072  10.467 -0.6250  0.0268  0.7192
  158SAPE    C117623   0.796   3.206  10.399  0.9629 -0.0091  0.8402
  158SAPE    HA17624   0.798   3.284  10.478 -0.3726 -0.1671  1.0441
  158SAPE    HB17625   0.877   3.226  10.326  0.1169  2.3043  0.4789
  158SAPE    C217626   0.661   3.203  10.335  1.2582 -0.7090 -0.4265
  158SAPE    HS17627   0.597   3.160  10.415  1.5709  2.1890  1.5297
  158SAPE   O2117628   0.672   3.110  10.214  0.5160 -0.3211 -0.2381
  158SAPE   C2117629   0.546   3.071  10.174 -1.0731  0.5334 -0.8002
  158SAPE   O2217630   0.449   3.096  10.243 -0.4821 -0.0894  0.7238
  158SAPE   C2217631   0.539   3.002  10.040  0.2799  0.5921  0.1092
  158SAPE   H2R17632   0.635   3.025   9.988  0.3534  0.3956  0.1572
  158SAPE   H2S17633   0.538   2.893  10.059 -0.1481  0.4989 -0.4155
  158SAPE    C317634   0.613   3.344  10.296  1.0647  0.4675 -0.0832
  158SAPE    HX17635   0.613   3.409  10.387  0.9997  1.7136 -0.9446
  158SAPE    HY17636   0.511   3.333  10.255  0.9252 -0.2097  0.4246
  158SAPE   O3117637   0.686   3.400  10.186  0.1763  0.1714  0.2821
  158SAPE   C3117638   0.711   3.528  10.194 -0.1505  0.3033  0.3230
  158SAPE   O3217639   0.656   3.606  10.267 -0.0609 -0.0969  0.5513
  158SAPE   C3217640   0.839   3.568  10.107 -0.0817 -0.1347 -0.2852
  158SAPE   H2X17641   0.922   3.548  10.179  1.2547  1.8628 -1.1626
  158SAPE   H2Y17642   0.829   3.675  10.078  1.7661  0.4496  1.0233
  158SAPE   C2317643   0.419   3.044   9.960  0.2284 -0.8771  0.2973
  158SAPE   H3R17644   0.322   3.010  10.000  0.7635 -0.5956  1.9145
  158SAPE   H3S17645   0.433   3.003   9.858  1.3784  0.2748 -0.0362
  158SAPE   C2417646   0.406   3.198   9.932 -0.4866  0.0465  1.2152
  158SAPE   H4R17647   0.387   3.248  10.030 -0.1544 -2.3528  2.5752
  158SAPE   H4S17648   0.310   3.214   9.879 -0.9496 -2.9666  1.0235
  158SAPE   C2517649   0.527   3.253   9.860 -0.5219  0.9221 -0.1849
  158SAPE   H5R17650   0.623   3.236   9.912 -0.4083  0.2240 -0.6019
  158SAPE   C2617651   0.530   3.318   9.741 -0.8717 -0.1461  0.3741
  158SAPE   H6R17652   0.628   3.343   9.696 -0.2569 -0.5776  1.4445
  158SAPE   C2717653   0.414   3.332   9.641 -0.0093  0.4658  0.1570
  158SAPE   H7R17654   0.440   3.408   9.565 -0.0859  0.3160 -0.0185
  158SAPE   H7S17655   0.337   3.374   9.709  1.0556  0.7358  1.2405
  158SAPE   C2817656   0.362   3.203   9.584  0.2571  0.0041 -0.1391
  158SAPE   H8R17657   0.361   3.120   9.656  3.1627  0.8985  1.0622
  158SAPE   C2917658   0.343   3.182   9.456 -0.1394 -0.1959 -0.5360
  158SAPE   H9R17659   0.283   3.091   9.437  0.2388 -0.4225 -0.6657
  158SAPE  C21017660   0.359   3.279   9.340 -1.1394  0.2164  0.4827
  158SAPE  H10R17661   0.458   3.271   9.291 -0.6373  2.3078  1.0742
  158SAPE  H10S17662   0.360   3.384   9.375 -1.0103  0.7696 -1.0949
  158SAPE  C21117663   0.250   3.253   9.247  0.3746 -0.7063 -0.6268
  158SAPE  H11R17664   0.155   3.212   9.284  0.7319 -1.4389 -0.4912
  158SAPE  C21217665   0.251   3.283   9.118 -0.0829  0.0682 -0.1569
  158SAPE  H12R17666   0.165   3.256   9.054  0.7803  0.5241 -1.5663
  158SAPE  C21317667   0.364   3.347   9.047  0.9128  0.2805 -0.3265
  158SAPE  H13R17668   0.460   3.342   9.103  0.4746  0.3756  0.4577
  158SAPE  H13S17669   0.347   3.454   9.026  0.8655  0.3899  0.2347
  158SAPE  C21417670   0.384   3.268   8.916 -0.8424 -0.4108 -0.6351
  158SAPE  H14R17671   0.438   3.172   8.926 -0.1253 -0.2980 -2.9737
  158SAPE  C21517672   0.332   3.295   8.793 -0.5485  0.1007 -0.7125
  158SAPE  H15R17673   0.355   3.223   8.713 -0.2092 -1.0031  0.3443
  158SAPE  C21617674   0.231   3.407   8.773 -0.1533  0.3654  0.3184
  158SAPE  H16R17675   0.225   3.490   8.846  0.5718  0.0897  0.6941
  158SAPE  H16S17676   0.135   3.352   8.766  0.1246 -0.0559 -0.3322
  158SAPE  C21717677   0.250   3.465   8.632  0.0218  0.7132  0.0227
  158SAPE  H17R17678   0.244   3.382   8.560  2.9703 -0.1439  0.6338
  158SAPE  H17S17679   0.352   3.502   8.611 -0.8834  2.5271 -1.4523
  158SAPE  C21817680   0.159   3.587   8.600 -0.2103  0.1640  0.6613
  158SAPE  H18R17681   0.173   3.665   8.678 -2.0892  2.3296 -1.0298
  158SAPE  H18S17682   0.054   3.550   8.590 -0.3432  1.0344 -1.6316
  158SAPE  C21917683   0.202   3.645   8.464  0.1773 -1.0989 -0.5944
  158SAPE  H19R17684   0.297   3.700   8.475  0.8280 -1.7596 -2.4623
  158SAPE  H19S17685   0.122   3.718   8.435 -1.4528 -2.1183  1.1372
  158SAPE  C22017686   0.221   3.541   8.353 -0.1670 -0.4717  0.1099
  158SAPE  H20R17687   0.141   3.464   8.354 -2.6183  1.9287  0.7656
  158SAPE  H20S17688   0.314   3.484   8.370 -0.6319 -1.6935 -1.1861
  158SAPE  H20T17689   0.225   3.592   8.254 -2.1495 -0.2091  0.1069
  158SAPE   C3317690   0.856   3.496   9.972 -0.0691  0.6117  0.2327
  158SAPE   H3X17691   0.918   3.552   9.900 -0.5855  1.0404  0.1159
  158SAPE   H3Y17692   0.752   3.495   9.933 -1.0536 -1.2304  2.5984
  158SAPE   C3417693   0.887   3.348   9.995  0.4835  0.3372  0.1989
  158SAPE   H4X17694   0.808   3.284  10.040 -0.2981  0.3553 -1.0990
  158SAPE   H4Y17695   0.976   3.318  10.055 -0.5053  0.0045  1.5380
  158SAPE   C3517696   0.912   3.285   9.859  0.9861  0.7331  0.4902
  158SAPE   H5X17697   1.012   3.309   9.819  0.6158 -0.7797 -1.4872
  158SAPE   H5Y17698   0.829   3.315   9.792  1.9932 -0.4023 -1.3402
  158SAPE   C3617699   0.912   3.133   9.874 -0.4775 -0.1638  0.6119
  158SAPE   H6X17700   0.811   3.099   9.906 -0.3423  0.2838  1.5517
  158SAPE   H6Y17701   0.977   3.105   9.959 -0.4985 -0.4629  0.5317
  158SAPE   C3717702   0.963   3.055   9.751  0.0329 -0.0308  0.8454
  158SAPE   H7X17703   0.988   2.955   9.792 -0.6873  0.4783  2.6260
  158SAPE   H7Y17704   1.059   3.094   9.712  0.6292 -2.3086 -0.1260
  158SAPE   C3817705   0.868   3.054   9.631  0.2080 -0.1188 -0.1618
  158SAPE   H8X17706   0.839   3.154   9.591 -2.1144 -0.7027 -0.0824
  158SAPE   H8Y17707   0.770   3.008   9.656  0.1892 -1.3148 -2.2795
  158SAPE   C3917708   0.932   2.971   9.517 -0.0294  0.9414 -0.3049
  158SAPE   H9X17709   0.927   2.867   9.555  0.9314  0.8645 -0.3588
  158SAPE   H9Y17710   1.040   2.998   9.510  0.3856  0.2517  2.3826
  158SAPE  C31017711   0.842   2.953   9.390  0.5533 -0.0673 -0.2289
  158SAPE  H10X17712   0.828   3.059   9.358 -1.2928  0.3359  1.6796
  158SAPE  H10Y17713   0.735   2.924   9.402  0.3184 -0.1444 -2.1447
  158SAPE  C31117714   0.905   2.859   9.286  0.2722 -0.2257  0.0525
  158SAPE  H11X17715   0.882   2.756   9.321  0.2778 -0.1234  0.3593
  158SAPE  H11Y17716   1.015   2.872   9.283  0.1497  0.8376 -0.1965
  158SAPE  C31217717   0.890   2.900   9.136 -0.4348 -0.0427 -0.3595
  158SAPE  H12X17718   0.947   2.816   9.091 -0.1482  0.1824 -0.4122
  158SAPE  H12Y17719   0.957   2.985   9.112 -1.6903  1.0301 -0.1714
  158SAPE  C31317720   0.744   2.913   9.078 -0.1766 -0.1302  0.2517
  158SAPE  H13X17721   0.694   2.995   9.134  0.8758 -1.5883  3.5820
  158SAPE  H13Y17722   0.670   2.831   9.087 -0.1707 -0.2212 -0.4953
  158SAPE  C31417723   0.746   2.939   8.926 -0.2657 -0.5068  0.5425
  158SAPE  H14X17724   0.818   2.873   8.873 -1.1877 -0.5486 -0.6986
  158SAPE  H14Y17725   0.778   3.045   8.922 -0.8879 -0.3429 -0.3767
  158SAPE  C31517726   0.605   2.921   8.861 -0.1670 -0.0773 -0.0089
  158SAPE  H15X17727   0.600   2.988   8.773  1.4226 -0.3597 -0.3430
  158SAPE  H15Y17728   0.531   2.966   8.931  1.1816  0.0819  1.3653
  158SAPE  C31617729   0.575   2.778   8.819  0.0978  0.1105 -0.0109
  158SAPE  H16X17730   0.604   2.713   8.904 -0.5940 -0.5094 -0.2438
  158SAPE  H16Y17731   0.646   2.759   8.735 -0.8900 -0.7513 -0.6692
  158SAPE  C31717732   0.436   2.753   8.773 -0.4292 -0.8838  0.1238
  158SAPE  H17X17733   0.366   2.779   8.855 -0.1044  2.8843 -0.6314
  158SAPE  H17Y17734   0.432   2.643   8.754  2.3526 -0.6936 -2.3050
  158SAPE  C31817735   0.396   2.821   8.642 -0.1907  0.3677 -0.2431
  158SAPE  H18X17736   0.298   2.787   8.603  0.0086  0.1101 -0.5247
  158SAPE  H18Y17737   0.475   2.805   8.565  1.6030  1.1268  1.3415
  158SAPE  H18Z17738   0.394   2.931   8.655  3.2571  0.5578 -0.2296
  159SAPE     N17739   1.736   5.596   6.533 -0.5444 -0.0191 -0.1327
  159SAPE   HN117740   1.812   5.662   6.559  1.2343 -1.7079 -0.7796
  159SAPE   HN217741   1.787   5.525   6.476  2.0380  1.5296  0.0624
  159SAPE   HN317742   1.657   5.640   6.482 -1.2815 -1.2643 -0.1093
  159SAPE   C1217743   1.677   5.510   6.642 -0.1071 -0.3639 -0.1398
  159SAPE  H12A17744   1.673   5.578   6.731  3.4608  0.1603 -0.2314
  159SAPE  H12B17745   1.755   5.432   6.657  0.5362 -0.1458 -2.0877
  159SAPE   C1117746   1.541   5.459   6.613  0.0260 -0.1675 -0.3564
  159SAPE  H11A17747   1.506   5.405   6.703 -2.0325  0.1134 -0.9347
  159SAPE  H11B17748   1.552   5.374   6.543 -0.5427 -0.5874  0.0590
  159SAPE     P17749   1.310   5.491   6.508  0.1285 -0.1103 -0.4331
  159SAPE   O1317750   1.185   5.575   6.547  0.5534 -0.4885 -0.0274
  159SAPE   O1417751   1.333   5.464   6.366  0.6640 -0.3809  0.3364
  159SAPE   O1217752   1.440   5.553   6.581  0.4767  0.2393  0.4435
  159SAPE   O1117753   1.296   5.354   6.586 -0.0211  0.4446  0.2498
  159SAPE    C117754   1.168   5.281   6.586 -0.3571 -0.3391 -0.4515
  159SAPE    HA17755   1.110   5.298   6.493  2.1413  1.4271 -1.8017
  159SAPE    HB17756   1.187   5.172   6.593  2.3550  0.0851  0.0445
  159SAPE    C217757   1.064   5.321   6.696 -0.2538 -0.3657 -0.5424
  159SAPE    HS17758   1.024   5.422   6.672  0.8805  0.3089  0.3007
  159SAPE   O2117759   1.133   5.323   6.831  0.0216 -0.0102 -0.2867
  159SAPE   C2117760   1.072   5.407   6.915 -0.4465  0.3737  0.4373
  159SAPE   O2217761   0.979   5.483   6.887  0.4490 -0.4321 -0.3478
  159SAPE   C2217762   1.132   5.391   7.051  0.1507 -0.4255 -0.4358
  159SAPE   H2R17763   1.081   5.310   7.108 -0.0937 -1.1124 -1.6042
  159SAPE   H2S17764   1.237   5.355   7.047  0.6357  0.9864 -1.2286
  159SAPE    C317765   0.946   5.226   6.705  0.6210 -0.5563  0.9091
  159SAPE    HX17766   0.899   5.224   6.605  1.3948  1.7495  0.4451
  159SAPE    HY17767   0.866   5.266   6.772 -0.2641 -0.1321 -0.3633
  159SAPE   O3117768   0.991   5.097   6.751  0.4853 -0.1452 -0.4864
  159SAPE   C3117769   0.904   4.995   6.733  0.0784  0.3237  0.9650
  159SAPE   O3217770   0.782   5.017   6.704 -0.5074  0.1423  0.1653
  159SAPE   C3217771   0.968   4.859   6.763 -0.0963 -0.8473  0.0983
  159SAPE   H2X17772   1.059   4.892   6.818 -1.5766  3.3600  0.3932
  159SAPE   H2Y17773   1.003   4.810   6.670  2.6987  0.3965  0.3778
  159SAPE   C2317774   1.119   5.518   7.139  0.0723 -0.1036  0.0979
  159SAPE   H3R17775   1.013   5.552   7.138 -0.2238 -0.8182  2.2977
  159SAPE   H3S17776   1.180   5.599   7.092  3.0870 -1.6013  1.1762
  159SAPE   C2417777   1.156   5.503   7.282 -0.0845 -0.0834  0.7078
  159SAPE   H4R17778   1.072   5.452   7.334 -1.5884  2.0225  0.5007
  159SAPE   H4S17779   1.146   5.598   7.339 -0.8625  0.2494  0.0382
  159SAPE   C2517780   1.286   5.435   7.306  0.8377  0.2612 -0.0353
  159SAPE   H5R17781   1.371   5.502   7.287  0.4295  0.9609  0.5710
  159SAPE   C2617782   1.315   5.306   7.342  0.3332 -0.5860 -0.2974
  159SAPE   H6R17783   1.423   5.285   7.353  0.4997 -0.5228 -1.6566
  159SAPE   C2717784   1.222   5.189   7.385 -0.2961 -0.1420  0.0743
  159SAPE   H7R17785   1.120   5.234   7.385 -1.1653 -1.9207  2.0047
  159SAPE   H7S17786   1.235   5.164   7.493 -2.1723 -0.3121  0.2997
  159SAPE   C2817787   1.253   5.078   7.286  0.3089  0.0238  0.0442
  159SAPE   H8R17788   1.195   5.086   7.192 -1.6723  0.1008  1.2211
  159SAPE   C2917789   1.349   4.985   7.284  0.2519  0.4272  0.2682
  159SAPE   H9R17790   1.337   4.912   7.202 -2.0967  1.9886 -0.9290
  159SAPE  C21017791   1.450   4.963   7.391  0.0152 -1.1132 -0.1207
  159SAPE  H10R17792   1.394   4.968   7.487  0.8398  1.9120  0.3095
  159SAPE  H10S17793   1.530   5.039   7.402 -1.8697  0.8292  0.9492
  159SAPE  C21117794   1.514   4.828   7.373  0.4306 -0.0493  0.4607
  159SAPE  H11R17795   1.520   4.780   7.274  1.3779  1.3149 -0.1619
  159SAPE  C21217796   1.578   4.766   7.472  0.1985  0.7251 -0.7421
  159SAPE  H12R17797   1.622   4.666   7.458 -0.0074  0.8715 -2.8108
  159SAPE  C21317798   1.576   4.820   7.614  0.5950 -0.2390 -1.4586
  159SAPE  H13R17799   1.471   4.829   7.647  0.6667 -0.8418 -1.0400
  159SAPE  H13S17800   1.624   4.920   7.613 -1.5090  0.8402  0.1021
  159SAPE  C21417801   1.645   4.722   7.710 -0.1272  0.0921  0.1750
  159SAPE  H14R17802   1.700   4.637   7.667 -0.5141 -0.5134  0.8514
  159SAPE  C21517803   1.653   4.729   7.845 -0.4014 -0.7875  0.2975
  159SAPE  H15R17804   1.716   4.651   7.890 -2.1276 -0.7631  2.9879
  159SAPE  C21617805   1.594   4.829   7.938 -0.2781  0.5662  0.2023
  159SAPE  H16R17806   1.526   4.895   7.879  0.6055  2.6827  1.4450
  159SAPE  H16S17807   1.680   4.886   7.979  0.0659 -0.1499  0.4891
  159SAPE  C21717808   1.508   4.764   8.060  0.0386 -0.2179 -0.0262
  159SAPE  H17R17809   1.417   4.717   8.018 -0.3240 -0.4591  1.0012
  159SAPE  H17S17810   1.477   4.857   8.111  2.3685 -0.1955  1.5241
  159SAPE  C21817811   1.577   4.667   8.154 -0.6521  0.7075  0.3982
  159SAPE  H18R17812   1.650   4.721   8.220 -1.5213  2.1938  0.1911
  159SAPE  H18S17813   1.632   4.592   8.093 -0.7162 -0.9032  2.2060
  159SAPE  C21917814   1.469   4.599   8.243  0.3409  0.3655  0.1732
  159SAPE  H19R17815   1.504   4.499   8.276 -1.3727  0.5111  2.8167
  159SAPE  H19S17816   1.378   4.574   8.184  0.0534 -1.7341  1.4174
  159SAPE  C22017817   1.438   4.681   8.374 -0.5022 -0.0708  0.0405
  159SAPE  H20R17818   1.365   4.626   8.436 -1.3597  1.0539  0.0640
  159SAPE  H20S17819   1.396   4.779   8.341 -2.5179 -1.2419 -1.0650
  159SAPE  H20T17820   1.533   4.703   8.427 -1.7838  1.5406  1.8070
  159SAPE   C3317821   0.875   4.769   6.843 -0.1074  0.5562  0.1641
  159SAPE   H3X17822   0.922   4.669   6.854 -0.0226  0.4143 -1.2585
  159SAPE   H3Y17823   0.781   4.749   6.787  0.6158 -1.2116 -0.5003
  159SAPE   C3417824   0.826   4.819   6.977  0.1060  0.6589  0.1070
  159SAPE   H4X17825   0.732   4.762   6.991 -1.3203  1.5074 -4.2793
  159SAPE   H4Y17826   0.791   4.924   6.970 -0.4627  0.4156 -0.9455
  159SAPE   C3517827   0.925   4.813   7.094 -0.1643 -0.0207 -0.1638
  159SAPE   H5X17828   1.029   4.824   7.057 -0.8342 -1.6024 -2.8310
  159SAPE   H5Y17829   0.924   4.707   7.129 -1.6729  0.7787  2.4521
  159SAPE   C3617830   0.885   4.900   7.213 -0.4317 -0.2099  0.4892
  159SAPE   H6X17831   0.777   4.913   7.234 -0.2843 -0.3793  1.3938
  159SAPE   H6Y17832   0.931   4.998   7.188  0.4548 -0.9607 -0.9816
  159SAPE   C3717833   0.943   4.852   7.354 -0.1459  0.7773  0.2334
  159SAPE   H7X17834   1.053   4.845   7.343  0.0547  1.9724  1.3663
  159SAPE   H7Y17835   0.896   4.751   7.363 -0.1685  0.5084 -2.0808
  159SAPE   C3817836   0.909   4.940   7.471 -0.1579  0.1055  0.1928
  159SAPE   H8X17837   0.799   4.942   7.490 -0.7380  1.6131 -2.6631
  159SAPE   H8Y17838   0.933   5.046   7.446 -0.8067  0.8348  2.4345
  159SAPE   C3917839   1.002   4.901   7.582 -0.2543  0.0929 -0.5124
  159SAPE   H9X17840   1.100   4.935   7.543 -0.2042 -1.2201 -1.6191
  159SAPE   H9Y17841   1.008   4.790   7.585  2.3562  0.1613 -0.6529
  159SAPE  C31017842   0.968   4.963   7.723 -0.5186 -0.3090  0.1709
  159SAPE  H10X17843   0.883   4.903   7.763  0.3876 -2.1784 -0.5805
  159SAPE  H10Y17844   0.948   5.072   7.711  0.9077 -0.0007  0.5046
  159SAPE  C31117845   1.088   4.952   7.819 -0.4377  0.6166  0.5248
  159SAPE  H11X17846   1.139   4.854   7.806 -0.6336  0.8268 -2.4521
  159SAPE  H11Y17847   1.044   4.956   7.921  1.2855 -0.4645  1.3626
  159SAPE  C31217848   1.193   5.065   7.822  0.0723 -0.1236  0.0917
  159SAPE  H12X17849   1.232   5.071   7.718 -0.2560  0.6956  0.0046
  159SAPE  H12Y17850   1.274   5.030   7.890 -0.0146 -2.4265 -0.9060
  159SAPE  C31317851   1.135   5.201   7.873 -0.0087  0.0451  0.3212
  159SAPE  H13X17852   1.104   5.181   7.978  3.6145 -2.1716  1.1470
  159SAPE  H13Y17853   1.042   5.231   7.819 -0.8337 -2.0573  0.4570
  159SAPE  C31417854   1.236   5.320   7.876  0.2678  0.2778  0.2717
  159SAPE  H14X17855   1.329   5.304   7.935  0.9299 -0.5165 -0.9502
  159SAPE  H14Y17856   1.183   5.411   7.913  1.0786  0.3451  1.2941
  159SAPE  C31517857   1.272   5.357   7.726 -0.3404 -0.6141  0.3668
  159SAPE  H15X17858   1.176   5.378   7.674 -0.1720 -0.5598  0.0761
  159SAPE  H15Y17859   1.298   5.262   7.674  0.5740  0.0261 -0.3773
  159SAPE  C31617860   1.366   5.476   7.714  0.4846 -1.2731 -0.2612
  159SAPE  H16X17861   1.298   5.564   7.726  3.5108  1.0443  1.3641
  159SAPE  H16Y17862   1.413   5.475   7.614 -1.9580 -2.5082 -1.4676
  159SAPE  C31717863   1.482   5.479   7.816 -0.0370  0.3035  0.4592
  159SAPE  H17X17864   1.518   5.375   7.823  1.7645  0.7427 -1.2501
  159SAPE  H17Y17865   1.439   5.514   7.913  1.4969  1.4534  0.7577
  159SAPE  C31817866   1.587   5.579   7.772  0.0510  0.4562 -0.4151
  159SAPE  H18X17867   1.540   5.677   7.748  0.5661  0.9611  0.5978
  159SAPE  H18Y17868   1.647   5.536   7.690 -0.0338  0.5067 -0.5047
  159SAPE  H18Z17869   1.658   5.584   7.858 -0.7853 -1.9565  0.5123
  160SAPE     N17870   6.005   0.092   6.018 -0.9589 -0.1019 -0.2885
  160SAPE   HN117871   5.938   0.044   5.954  0.8997 -3.0723 -0.1725
  160SAPE   HN217872   6.090   0.127   5.970 -1.5574  1.1241 -0.5211
  160SAPE   HN317873   6.022   0.030   6.099  0.1444 -1.8366 -1.7628
  160SAPE   C1217874   5.937   0.207   6.088  0.2026  0.1048  0.0719
  160SAPE  H12A17875   5.886   0.273   6.014  1.3784 -0.5408 -1.3489
  160SAPE  H12B17876   6.023   0.264   6.129 -0.4242  0.4380  0.9554
  160SAPE   C1117877   5.854   0.161   6.209  0.0094 -0.6247  0.5785
  160SAPE  H11A17878   5.757   0.130   6.165 -1.0367  4.4246 -1.4152
  160SAPE  H11B17879   5.822   0.238   6.283  1.7813 -0.3793  1.1438
  160SAPE     P17880   5.837  -0.006   6.408 -0.8960  0.0888  0.1411
  160SAPE   O1317881   5.700   0.052   6.414 -0.1462  0.5686 -0.1202
  160SAPE   O1417882   5.837  -0.149   6.396 -0.4833  0.0987  0.0871
  160SAPE   O1217883   5.918   0.056   6.284  0.1025  0.1346  0.3186
  160SAPE   O1117884   5.921   0.048   6.524 -0.1358 -0.0990 -0.3170
  160SAPE    C117885   6.068   0.046   6.513  0.5762 -0.9133  0.2654
  160SAPE    HA17886   6.106   0.027   6.410 -1.2771 -0.7116 -0.4782
  160SAPE    HB17887   6.115   0.142   6.543 -0.1741 -0.3640 -0.2927
  160SAPE    C217888   6.134  -0.052   6.611 -0.2561 -0.0808 -0.1313
  160SAPE    HS17889   6.106  -0.155   6.580 -0.4880 -0.0749  0.0541
  160SAPE   O2117890   6.086  -0.020   6.742 -0.0515  0.5247  0.1400
  160SAPE   C2117891   6.010  -0.110   6.798  0.5732 -0.1329 -0.5340
  160SAPE   O2217892   5.963  -0.208   6.753 -0.2630  0.5136  0.0282
  160SAPE   C2217893   5.972  -0.061   6.940 -0.0817 -0.2441 -0.5094
  160SAPE   H2R17894   6.000   0.046   6.934  2.2102 -0.8624 -2.1071
  160SAPE   H2S17895   5.862  -0.079   6.949 -0.3637 -0.1865 -3.0426
  160SAPE    C317896   6.286  -0.051   6.604 -0.2371  0.4460  0.2448
  160SAPE    HX17897   6.317   0.054   6.627 -1.7379  0.7051  1.1863
  160SAPE    HY17898   6.330  -0.072   6.504  2.7612  0.7015  1.3939
  160SAPE   O3117899   6.328  -0.151   6.700 -0.1114  0.4833 -0.0368
  160SAPE   C3117900   6.448  -0.116   6.757  0.1115 -0.9961 -0.8440
  160SAPE   O3217901   6.504  -0.013   6.735 -0.2591 -0.3589 -0.5957
  160SAPE   C3217902   6.485  -0.220   6.857  0.0822 -0.2723  0.2828
  160SAPE   H2X17903   6.502  -0.320   6.810  1.5443  0.0697  0.0318
  160SAPE   H2Y17904   6.403  -0.241   6.929 -0.6129 -1.7925 -0.8800
  160SAPE   C2317905   6.056  -0.143   7.033  0.1679  0.3533 -0.6241
  160SAPE   H3R17906   6.164  -0.122   7.017 -0.2212  1.1703 -2.4667
  160SAPE   H3S17907   6.038  -0.250   7.010 -0.7161 -0.0062  1.5353
  160SAPE   C2417908   6.014  -0.126   7.188  0.1649  0.3742  0.1022
  160SAPE   H4R17909   6.055  -0.208   7.250 -0.9790 -1.2474 -1.1919
  160SAPE   H4S17910   5.903  -0.133   7.187  0.1127  0.9402  0.7398
  160SAPE   C2517911   6.049   0.009   7.247  0.3038  0.7219 -0.4829
  160SAPE   H5R17912   6.079   0.080   7.168  0.8992  1.0775  0.0504
  160SAPE   C2617913   6.052   0.046   7.378 -0.6289  0.7097 -0.9217
  160SAPE   H6R17914   6.073   0.152   7.397 -0.8055  0.4546  0.8269
  160SAPE   C2717915   6.018  -0.034   7.501  0.2077 -0.2794 -0.2007
  160SAPE   H7R17916   5.974  -0.133   7.476 -1.6276  0.7997 -1.5016
  160SAPE   H7S17917   5.937   0.030   7.543  0.7240 -0.6477  1.4114
  160SAPE   C2817918   6.141  -0.046   7.596 -0.4080  0.6981 -0.1118
  160SAPE   H8R17919   6.236  -0.082   7.553 -1.0129  0.0822 -0.9920
  160SAPE   C2917920   6.149  -0.017   7.729 -0.8958 -0.1468  0.1520
  160SAPE   H9R17921   6.243  -0.027   7.786  0.1286 -1.2738 -1.6389
  160SAPE  C21017922   6.028   0.042   7.801  0.1794  0.3276 -0.3006
  160SAPE  H10R17923   5.984  -0.040   7.860  0.3482  0.0820 -0.5139
  160SAPE  H10S17924   5.941   0.075   7.740  0.7547 -1.4001 -2.1421
  160SAPE  C21117925   6.071   0.162   7.886  0.1639  0.3102  0.1241
  160SAPE  H11R17926   6.151   0.228   7.848 -2.1329  1.1555 -3.8162
  160SAPE  C21217927   6.005   0.214   7.991 -0.8596  0.5455 -0.5835
  160SAPE  H12R17928   6.040   0.309   8.035  0.6674 -0.5403  0.6808
  160SAPE  C21317929   5.890   0.154   8.059 -0.4674  0.2710  0.2554
  160SAPE  H13R17930   5.930   0.100   8.148 -0.2720 -0.1678 -0.0936
  160SAPE  H13S17931   5.854   0.073   7.992 -0.8125  1.7823 -1.4496
  160SAPE  C21417932   5.776   0.241   8.097 -0.2035  0.4971  0.3409
  160SAPE  H14R17933   5.704   0.242   8.014  1.3896 -1.5946 -1.1651
  160SAPE  C21517934   5.764   0.304   8.215 -0.4469 -0.1645  1.2812
  160SAPE  H15R17935   5.673   0.363   8.233 -2.2993 -1.0824 -3.4925
  160SAPE  C21617936   5.863   0.291   8.327  0.4163 -0.8798 -0.7019
  160SAPE  H16R17937   5.939   0.373   8.327  0.2816 -0.7110  1.1581
  160SAPE  H16S17938   5.918   0.195   8.322 -0.8498 -1.7785  1.3260
  160SAPE  C21717939   5.810   0.295   8.469  0.0855 -0.3934  0.3409
  160SAPE  H17R17940   5.878   0.284   8.557  0.0464  1.1901  0.5940
  160SAPE  H17S17941   5.726   0.223   8.471  0.4576 -1.0983 -2.9684
  160SAPE  C21817942   5.746   0.438   8.494  1.2309 -0.3361 -0.6956
  160SAPE  H18R17943   5.671   0.470   8.419  0.4052 -2.7301 -1.0024
  160SAPE  H18S17944   5.834   0.505   8.487 -0.0749  1.2592 -2.8553
  160SAPE  C21917945   5.681   0.470   8.633 -0.1725 -0.4792 -0.2469
  160SAPE  H19R17946   5.739   0.432   8.720  1.4479  2.0066 -0.1211
  160SAPE  H19S17947   5.581   0.423   8.636  0.4232 -1.8168  2.7178
  160SAPE  C22017948   5.661   0.625   8.649  0.3719  0.0267  0.3221
  160SAPE  H20R17949   5.587   0.652   8.572  1.0640 -2.2036 -1.2265
  160SAPE  H20S17950   5.749   0.693   8.645  1.4903 -1.4270 -1.4671
  160SAPE  H20T17951   5.613   0.650   8.746 -1.4616 -0.3183 -0.4544
  160SAPE   C3317952   6.611  -0.179   6.941  0.0884  0.3933 -0.2812
  160SAPE   H3X17953   6.685  -0.141   6.868 -0.8519  1.2524 -0.8121
  160SAPE   H3Y17954   6.658  -0.268   6.989 -1.6896  0.1368  1.1082
  160SAPE   C3417955   6.596  -0.056   7.035 -0.4347 -0.1062 -0.3610
  160SAPE   H4X17956   6.579   0.040   6.982 -2.9873 -0.8610 -1.0702
  160SAPE   H4Y17957   6.695  -0.042   7.083  0.7955  0.6872 -2.9600
  160SAPE   C3517958   6.491  -0.079   7.147 -0.3582  0.2728  0.4348
  160SAPE   H5X17959   6.542  -0.164   7.199 -0.3078 -0.3432 -0.5839
  160SAPE   H5Y17960   6.400  -0.110   7.091 -0.5995 -0.6965  1.3210
  160SAPE   C3617961   6.466   0.056   7.228 -0.0521  0.2312 -0.6975
  160SAPE   H6X17962   6.373   0.032   7.285  0.2372 -3.0790 -1.3917
  160SAPE   H6Y17963   6.458   0.143   7.160 -0.6502  0.2881 -0.5635
  160SAPE   C3717964   6.584   0.083   7.329  0.3726  0.3065  0.0987
  160SAPE   H7X17965   6.672   0.111   7.267 -0.4742  3.7640  0.2317
  160SAPE   H7Y17966   6.599  -0.015   7.380 -2.3868  0.0306  0.5471
  160SAPE   C3817967   6.563   0.192   7.442 -0.6104  0.6488 -0.1316
  160SAPE   H8X17968   6.509   0.281   7.404 -1.3687  1.3315  2.3665
  160SAPE   H8Y17969   6.666   0.216   7.476 -1.0213  0.2833  1.4942
  160SAPE   C3917970   6.493   0.138   7.572 -0.0953  0.3635  0.0302
  160SAPE   H9X17971   6.568   0.070   7.617  2.3262  1.4843 -2.1124
  160SAPE   H9Y17972   6.413   0.069   7.535 -0.2013  0.2374  0.4877
  160SAPE  C31017973   6.428   0.236   7.664  0.2303 -0.2678  0.7189
  160SAPE  H10X17974   6.358   0.185   7.733 -0.0294  1.8365  2.0892
  160SAPE  H10Y17975   6.373   0.305   7.596  0.2771 -1.7024 -0.8429
  160SAPE  C31117976   6.521   0.327   7.739 -0.6577 -0.3633 -0.1982
  160SAPE  H11X17977   6.563   0.405   7.671 -1.9712  0.5338 -0.0372
  160SAPE  H11Y17978   6.601   0.264   7.782 -0.1526  0.4647  0.1125
  160SAPE  C31217979   6.459   0.397   7.862  0.5126  0.2720 -0.4690
  160SAPE  H12X17980   6.413   0.318   7.926 -0.6664 -0.0263 -1.6576
  160SAPE  H12Y17981   6.382   0.467   7.825  0.5436  0.1879 -0.6922
  160SAPE  C31317982   6.568   0.459   7.948 -0.0689  0.2231 -0.2471
  160SAPE  H13X17983   6.619   0.528   7.877  0.8879  0.9582  1.1056
  160SAPE  H13Y17984   6.649   0.391   7.983 -1.2501 -0.8746  0.4480
  160SAPE  C31417985   6.508   0.540   8.059  0.5218 -0.1121  0.0628
  160SAPE  H14X17986   6.488   0.644   8.027  0.4894  0.2060  1.0737
  160SAPE  H14Y17987   6.586   0.553   8.138  1.0507 -0.4271 -0.4008
  160SAPE  C31517988   6.386   0.481   8.130  0.8517 -0.1774 -0.1357
  160SAPE  H15X17989   6.422   0.387   8.178  1.2447  0.0124 -0.0588
  160SAPE  H15Y17990   6.305   0.448   8.062 -0.2590  2.8264 -0.4075
  160SAPE  C31617991   6.342   0.575   8.240  0.0551 -0.9690 -0.9846
  160SAPE  H16X17992   6.327   0.675   8.193 -0.9640 -0.8331 -0.3996
  160SAPE  H16Y17993   6.396   0.590   8.336 -1.5579  0.1982 -0.2234
  160SAPE  C31717994   6.196   0.533   8.277 -0.0273  0.3151 -0.3214
  160SAPE  H17X17995   6.197   0.428   8.315 -0.0626 -0.3555 -2.0665
  160SAPE  H17Y17996   6.126   0.544   8.192 -1.8367  2.7230  1.3561
  160SAPE  C31817997   6.134   0.610   8.399 -0.3466  0.1800 -0.1420
  160SAPE  H18X17998   6.162   0.717   8.384 -0.2658  0.2632  0.5457
  160SAPE  H18Y17999   6.183   0.572   8.491  1.4366 -0.5153 -1.3189
  160SAPE  H18Z18000   6.024   0.618   8.410 -0.2855  1.3926 -0.2137
  161SAPE     N18001   1.694   4.809   6.157 -0.0277 -0.2564 -0.3135
  161SAPE   HN118002   1.636   4.835   6.075  1.1893 -0.7632 -1.3652
  161SAPE   HN218003   1.640   4.843   6.240  1.3535  2.4709 -0.4095
  161SAPE   HN318004   1.774   4.875   6.147 -1.8427  1.7715 -2.9816
  161SAPE   C1218005   1.728   4.663   6.176 -0.5234 -0.0682 -0.0608
  161SAPE  H12A18006   1.824   4.652   6.122 -0.8888 -2.0390 -0.3923
  161SAPE  H12B18007   1.651   4.596   6.131 -1.2636  1.2315 -0.8178
  161SAPE   C1118008   1.762   4.629   6.322  0.2273  0.1079  0.3714
  161SAPE  H11A18009   1.668   4.638   6.380 -0.1590 -2.1156  0.2070
  161SAPE  H11B18010   1.842   4.701   6.351 -0.0061  1.3751 -1.8854
  161SAPE     P18011   1.732   4.368   6.379 -0.1789 -0.4912 -0.3379
  161SAPE   O1318012   1.679   4.308   6.258 -0.1041 -0.2741  0.0529
  161SAPE   O1418013   1.822   4.288   6.465 -0.7344 -0.0253  0.1720
  161SAPE   O1218014   1.820   4.495   6.337 -0.1179  0.0268 -0.3766
  161SAPE   O1118015   1.608   4.427   6.460  0.2567 -0.5558  0.3259
  161SAPE    C118016   1.639   4.474   6.591 -0.3418 -0.5693 -0.0419
  161SAPE    HA18017   1.743   4.455   6.626 -0.0482  1.2972  0.1806
  161SAPE    HB18018   1.646   4.584   6.580 -1.5004 -0.2982  1.5922
  161SAPE    C218019   1.536   4.451   6.705  0.4381 -0.2252  0.2551
  161SAPE    HS18020   1.555   4.531   6.779  2.4364  0.1885 -0.6419
  161SAPE   O2118021   1.543   4.314   6.755 -0.0441  0.3427  0.0332
  161SAPE   C2118022   1.599   4.304   6.880  0.7195  0.0419  0.3735
  161SAPE   O2218023   1.646   4.396   6.940  0.6795  0.3915 -0.3819
  161SAPE   C2218024   1.592   4.154   6.931 -0.0181 -0.5659 -0.0541
  161SAPE   H2R18025   1.581   4.086   6.844 -0.6729  0.2723 -0.6403
  161SAPE   H2S18026   1.685   4.132   6.987 -1.4212  0.3838  2.8629
  161SAPE    C318027   1.395   4.470   6.645  0.2374 -0.5614 -0.6560
  161SAPE    HX18028   1.389   4.414   6.549  0.1794 -1.8534  0.0742
  161SAPE    HY18029   1.383   4.578   6.623  1.6851  0.5652  3.2872
  161SAPE   O3118030   1.289   4.417   6.735 -0.4423  1.2417  0.4428
  161SAPE   C3118031   1.243   4.502   6.820  0.0088 -0.1905 -0.7263
  161SAPE   O3218032   1.281   4.615   6.836 -0.2109 -0.0179  0.2332
  161SAPE   C3218033   1.119   4.446   6.895  0.4433 -0.0977 -0.7587
  161SAPE   H2X18034   1.100   4.340   6.867  0.7272 -0.1442 -0.7754
  161SAPE   H2Y18035   1.037   4.506   6.849  0.3963  1.4192  1.1820
  161SAPE   C2318036   1.480   4.141   7.043  0.7719 -0.2040 -0.6125
  161SAPE   H3R18037   1.382   4.153   6.993 -0.2638  0.1501  1.4057
  161SAPE   H3S18038   1.484   4.227   7.113  2.1136  0.4800 -1.4704
  161SAPE   C2418039   1.475   4.009   7.116 -0.1027  0.2187  0.4798
  161SAPE   H4R18040   1.567   4.002   7.178  0.3708  2.9494  0.2014
  161SAPE   H4S18041   1.480   3.928   7.040  1.1065  0.6915  0.0363
  161SAPE   C2518042   1.343   3.982   7.190  0.6968  0.0937 -0.8330
  161SAPE   H5R18043   1.254   3.980   7.125  1.1706  0.3319 -1.5117
  161SAPE   C2618044   1.329   3.976   7.324 -1.1118 -0.2031 -0.7763
  161SAPE   H6R18045   1.228   3.953   7.360 -0.7884 -1.7940 -0.7962
  161SAPE   C2718046   1.438   3.986   7.430 -0.1376  0.4417  1.0184
  161SAPE   H7R18047   1.530   4.021   7.378 -1.7156  0.4439 -2.0064
  161SAPE   H7S18048   1.462   3.882   7.460  1.1645  0.4315  0.0249
  161SAPE   C2818049   1.392   4.073   7.544 -0.3432 -0.7456  0.6034
  161SAPE   H8R18050   1.341   4.165   7.512  0.2055  0.0795  1.9974
  161SAPE   C2918051   1.415   4.065   7.673  0.4242 -0.4411 -0.6192
  161SAPE   H9R18052   1.366   4.137   7.740 -0.7578  0.7932 -2.7019
  161SAPE  C21018053   1.502   3.952   7.735  0.0464 -0.8252  1.0158
  161SAPE  H10R18054   1.593   3.997   7.780  0.6734  0.1626 -1.1434
  161SAPE  H10S18055   1.539   3.879   7.661 -0.1214  0.4430 -0.3502
  161SAPE  C21118056   1.420   3.864   7.825  0.4514  0.0314 -0.1433
  161SAPE  H11R18057   1.351   3.796   7.773  0.1245  0.7568 -0.6780
  161SAPE  C21218058   1.435   3.867   7.965  0.9730 -0.7228  0.9646
  161SAPE  H12R18059   1.388   3.783   8.018 -0.7010 -0.2238  0.3683
  161SAPE  C21318060   1.513   3.960   8.053  0.2861 -0.7332  0.0083
  161SAPE  H13R18061   1.447   4.005   8.130 -0.6205  0.7085 -1.5547
  161SAPE  H13S18062   1.559   4.045   7.998 -0.7975 -1.1770 -1.6241
  161SAPE  C21418063   1.637   3.890   8.116 -0.2337 -0.0799  0.1850
  161SAPE  H14R18064   1.711   3.850   8.045  0.6209 -2.9684  2.5321
  161SAPE  C21518065   1.668   3.880   8.240 -0.7791  0.8680 -0.6715
  161SAPE  H15R18066   1.756   3.816   8.262 -1.4772 -0.7894 -2.4306
  161SAPE  C21618067   1.582   3.912   8.360  0.3084 -0.5068  0.4619
  161SAPE  H16R18068   1.479   3.879   8.337 -0.2447  1.5523 -0.1619
  161SAPE  H16S18069   1.582   4.022   8.374 -1.3067 -0.6105  1.4323
  161SAPE  C21718070   1.624   3.840   8.488  0.0197  0.4728  0.1930
  161SAPE  H17R18071   1.559   3.887   8.565 -0.9721 -0.1889 -0.2140
  161SAPE  H17S18072   1.732   3.857   8.510  0.3068 -0.7644 -0.1928
  161SAPE  C21818073   1.618   3.690   8.474  1.3025 -0.2810  0.2411
  161SAPE  H18R18074   1.706   3.663   8.411  0.8545 -0.6793 -0.2213
  161SAPE  H18S18075   1.524   3.654   8.427  2.4037 -0.9097 -1.5912
  161SAPE  C21918076   1.634   3.610   8.607  0.0733 -0.2882  0.3339
  161SAPE  H19R18077   1.727   3.624   8.667  1.0074 -1.2870 -0.8235
  161SAPE  H19S18078   1.639   3.503   8.578 -1.8126  0.0211 -1.3440
  161SAPE  C22018079   1.513   3.625   8.693  0.2872 -0.5023 -0.1676
  161SAPE  H20R18080   1.505   3.554   8.778 -2.1790 -1.5898 -1.1896
  161SAPE  H20S18081   1.414   3.623   8.642  0.8999 -0.8228 -1.3841
  161SAPE  H20T18082   1.521   3.728   8.734 -1.0612 -0.7527  0.7887
  161SAPE   C3318083   1.125   4.465   7.049  0.0766  0.0652 -0.2455
  161SAPE   H3X18084   1.026   4.440   7.092  0.6355 -1.2884  0.3357
  161SAPE   H3Y18085   1.152   4.571   7.064 -1.6893  0.2289  2.5382
  161SAPE   C3418086   1.231   4.380   7.127  0.1812  0.1119 -0.4373
  161SAPE   H4X18087   1.331   4.409   7.089  1.2743 -1.4372  1.0926
  161SAPE   H4Y18088   1.212   4.271   7.110 -0.3988  0.2156 -0.4763
  161SAPE   C3518089   1.228   4.397   7.284  0.2167 -0.7165 -0.1754
  161SAPE   H5X18090   1.282   4.313   7.332  1.3160 -0.5743 -1.1220
  161SAPE   H5Y18091   1.119   4.383   7.300 -0.1659  1.0903 -0.8799
  161SAPE   C3618092   1.271   4.537   7.328 -0.2982 -0.5878  0.1914
  161SAPE   H6X18093   1.241   4.621   7.262 -3.9736 -0.3683  1.9273
  161SAPE   H6Y18094   1.382   4.532   7.318  0.4778  3.6455  3.6053
  161SAPE   C3718095   1.226   4.569   7.473  0.1035  0.0304 -0.4477
  161SAPE   H7X18096   1.115   4.569   7.469  0.0578 -0.7013 -5.4028
  161SAPE   H7Y18097   1.264   4.670   7.499 -1.0028  0.1068  0.9949
  161SAPE   C3818098   1.279   4.462   7.560 -0.2278 -0.3552 -0.0156
  161SAPE   H8X18099   1.389   4.455   7.543  0.0950 -0.6998  1.9271
  161SAPE   H8Y18100   1.227   4.368   7.534  0.8017 -0.7792 -0.5890
  161SAPE   C3918101   1.254   4.483   7.709 -0.8346 -0.2144 -0.3827
  161SAPE   H9X18102   1.148   4.513   7.720 -0.7728 -0.7721  2.5823
  161SAPE   H9Y18103   1.310   4.576   7.734 -0.0541 -0.6505 -0.4778
  161SAPE  C31018104   1.290   4.370   7.809 -0.0441 -0.3887  0.4988
  161SAPE  H10X18105   1.397   4.342   7.817  0.5041  1.2507 -0.5771
  161SAPE  H10Y18106   1.243   4.282   7.760  0.0560  0.0059 -0.3277
  161SAPE  C31118107   1.230   4.387   7.947  0.6525 -0.0677 -0.0628
  161SAPE  H11X18108   1.123   4.362   7.937  0.6726 -0.5495  0.8328
  161SAPE  H11Y18109   1.232   4.488   7.993 -3.3879 -1.3097  3.4997
  161SAPE  C31218110   1.292   4.301   8.057 -0.4621 -0.2646 -0.1981
  161SAPE  H12X18111   1.402   4.312   8.060 -0.1662 -2.4538 -0.8838
  161SAPE  H12Y18112   1.274   4.198   8.018 -0.3041 -0.9909  1.5438
  161SAPE  C31318113   1.210   4.320   8.191 -0.6849  0.1229  0.0253
  161SAPE  H13X18114   1.104   4.285   8.189  0.0504 -2.2531 -1.3560
  161SAPE  H13Y18115   1.215   4.428   8.214  1.6534  0.3627 -1.3033
  161SAPE  C31418116   1.274   4.238   8.307 -0.2032 -0.2015  0.6521
  161SAPE  H14X18117   1.382   4.261   8.316 -0.0775 -0.1029 -0.8824
  161SAPE  H14Y18118   1.270   4.129   8.282  1.5306 -0.0183 -0.6274
  161SAPE  C31518119   1.217   4.241   8.447 -0.1945 -0.2082  0.8079
  161SAPE  H15X18120   1.106   4.234   8.455 -0.3330  0.8298 -0.0171
  161SAPE  H15Y18121   1.235   4.337   8.499  1.9442 -1.1526  1.9538
  161SAPE  C31618122   1.283   4.129   8.514 -0.0255  0.4412  0.3279
  161SAPE  H16X18123   1.393   4.149   8.515  0.3235 -1.1554 -1.5254
  161SAPE  H16Y18124   1.266   4.029   8.469  1.3577  0.1300  0.4481
  161SAPE  C31718125   1.246   4.113   8.664  0.2551  0.1442 -0.0129
  161SAPE  H17X18126   1.143   4.072   8.672  0.4040 -0.0791  0.8084
  161SAPE  H17Y18127   1.239   4.212   8.713 -0.3316  0.9981 -1.7477
  161SAPE  C31818128   1.354   4.022   8.736 -0.3918  0.0606  0.5212
  161SAPE  H18X18129   1.344   4.026   8.847  1.2113 -1.0435  0.7248
  161SAPE  H18Y18130   1.459   4.055   8.720 -0.0079 -0.4753  1.8381
  161SAPE  H18Z18131   1.341   3.919   8.698  0.2992  0.8458 -2.0328
  162SAPE     N18132   1.053   6.191   6.389 -0.0097 -0.0788  0.2242
  162SAPE   HN118133   1.059   6.285   6.433 -0.1620 -0.1841  0.4711
  162SAPE   HN218134   1.044   6.109   6.452  0.8814 -0.2226  0.1767
  162SAPE   HN318135   1.140   6.180   6.332 -1.2104 -1.8829 -1.3937
  162SAPE   C1218136   0.930   6.185   6.301  0.3248  0.8517  0.3571
  162SAPE  H12A18137   0.838   6.195   6.363  0.4491 -3.3084  1.5596
  162SAPE  H12B18138   0.912   6.088   6.249  3.8579  0.8065 -1.0382
  162SAPE   C1118139   0.933   6.296   6.199 -1.0637  0.7030 -0.3796
  162SAPE  H11A18140   0.840   6.286   6.138  0.0975 -1.4418 -1.9528
  162SAPE  H11B18141   1.025   6.290   6.137 -0.3991  0.2680  0.6168
  162SAPE     P18142   0.940   6.562   6.223 -0.7236 -0.2226 -0.0112
  162SAPE   O1318143   1.074   6.584   6.169  0.1182  0.0381  0.7636
  162SAPE   O1418144   0.837   6.600   6.126  0.3178 -0.2661 -0.0397
  162SAPE   O1218145   0.931   6.412   6.275 -0.2015 -0.2827  0.1674
  162SAPE   O1118146   0.925   6.648   6.353  0.4975  0.8347 -0.6890
  162SAPE    C118147   1.038   6.634   6.452 -0.4841 -0.0256 -0.4058
  162SAPE    HA18148   1.089   6.536   6.440  1.0455  0.8301 -1.1582
  162SAPE    HB18149   1.118   6.709   6.437 -1.2075  1.1923  1.5093
  162SAPE    C218150   1.003   6.653   6.603  0.3287 -0.0915  0.1689
  162SAPE    HS18151   1.077   6.591   6.658 -0.5820 -2.7005 -1.3623
  162SAPE   O2118152   0.867   6.611   6.633 -0.3188  0.4500  0.3065
  162SAPE   C2118153   0.841   6.477   6.613  0.3730  0.2723  0.0738
  162SAPE   O2218154   0.928   6.402   6.583 -0.5517  0.3962  0.1064
  162SAPE   C2218155   0.699   6.431   6.626 -0.1012  0.0030  0.1696
  162SAPE   H2R18156   0.644   6.522   6.658  2.5681  1.5939  0.5828
  162SAPE   H2S18157   0.667   6.399   6.524 -2.7436  0.3323  0.8294
  162SAPE    C318158   1.017   6.797   6.645 -0.0363  0.0530 -0.3637
  162SAPE    HX18159   0.958   6.867   6.583  0.3526  2.5438  1.8937
  162SAPE    HY18160   1.117   6.840   6.626  0.3954 -1.2556 -1.1866
  162SAPE   O3118161   0.976   6.822   6.786 -0.2213 -0.3770  0.5870
  162SAPE   C3118162   1.074   6.794   6.869 -0.1574  0.3877 -0.4991
  162SAPE   O3218163   1.183   6.747   6.842 -0.0127  0.3559  0.6298
  162SAPE   C3218164   1.019   6.810   7.014  0.2583 -0.0240  0.4129
  162SAPE   H2X18165   0.963   6.717   7.039 -1.8852  1.5776  1.8398
  162SAPE   H2Y18166   0.937   6.885   7.010  0.0422 -0.3115 -2.4304
  162SAPE   C2318167   0.698   6.315   6.727 -0.0793  0.2724 -0.1617
  162SAPE   H3R18168   0.776   6.239   6.707 -0.2718  0.1635 -0.4940
  162SAPE   H3S18169   0.601   6.262   6.714  0.3602 -0.9054  1.0855
  162SAPE   C2418170   0.678   6.354   6.874  0.9803 -0.0672 -0.2096
  162SAPE   H4R18171   0.646   6.259   6.922  1.1349 -0.3138 -0.5843
  162SAPE   H4S18172   0.594   6.427   6.878  1.7246  0.8166  3.6462
  162SAPE   C2518173   0.789   6.415   6.944  0.2245  0.3872 -0.3695
  162SAPE   H5R18174   0.864   6.472   6.888  2.6153  1.9435  3.9562
  162SAPE   C2618175   0.804   6.413   7.077  0.3965  0.1076 -0.2945
  162SAPE   H6R18176   0.883   6.468   7.130  0.1260  0.5292 -0.3236
  162SAPE   C2718177   0.699   6.355   7.165 -0.2304 -0.5022  0.5176
  162SAPE   H7R18178   0.660   6.258   7.127  0.6842 -1.2386  1.4073
  162SAPE   H7S18179   0.604   6.413   7.165  0.1422  0.1589  2.3777
  162SAPE   C2818180   0.759   6.319   7.294 -0.4978 -0.5391 -0.9451
  162SAPE   H8R18181   0.855   6.266   7.287 -0.9536 -1.2829 -1.6256
  162SAPE   C2918182   0.693   6.331   7.414  0.7959  0.1431  0.3534
  162SAPE   H9R18183   0.744   6.309   7.509 -0.9645 -1.3091  1.0260
  162SAPE  C21018184   0.556   6.383   7.447  0.4139  1.1688  0.0742
  162SAPE  H10R18185   0.489   6.294   7.453  1.4705  0.4418  2.0214
  162SAPE  H10S18186   0.520   6.455   7.370 -1.2483  1.2278  0.8631
  162SAPE  C21118187   0.552   6.455   7.585  0.1063 -0.3086  0.3964
  162SAPE  H11R18188   0.581   6.561   7.590 -1.3423  0.1066  0.5893
  162SAPE  C21218189   0.506   6.407   7.701  0.0985 -0.3575 -1.5235
  162SAPE  H12R18190   0.526   6.471   7.788  0.9764 -0.4616 -1.6383
  162SAPE  C21318191   0.436   6.271   7.722  0.8697 -0.1707 -0.3126
  162SAPE  H13R18192   0.487   6.232   7.813 -0.4582 -0.4326  0.3518
  162SAPE  H13S18193   0.441   6.189   7.647 -0.8410 -1.2804  0.6940
  162SAPE  C21418194   0.281   6.296   7.737 -0.3203 -0.0935  0.1518
  162SAPE  H14R18195   0.233   6.315   7.640 -0.5926  0.1660  0.3340
  162SAPE  C21518196   0.201   6.288   7.849 -0.2316  0.3724  0.2772
  162SAPE  H15R18197   0.093   6.306   7.837 -0.2968  2.0312  2.5997
  162SAPE  C21618198   0.234   6.250   7.992  0.1254 -0.4623  0.9819
  162SAPE  H16R18199   0.274   6.147   7.983  1.4850  0.0645  0.6958
  162SAPE  H16S18200   0.141   6.242   8.052 -1.5203  1.6901 -1.0688
  162SAPE  C21718201   0.339   6.336   8.070  0.0951 -0.0593  0.1448
  162SAPE  H17R18202   0.425   6.355   8.002  1.5409  1.8392  2.3363
  162SAPE  H17S18203   0.375   6.269   8.151 -2.2255 -2.7911 -0.9183
  162SAPE  C21818204   0.285   6.474   8.113 -0.1523  0.0723  0.4240
  162SAPE  H18R18205   0.183   6.450   8.152  0.8074  0.9766  3.8568
  162SAPE  H18S18206   0.278   6.540   8.024 -1.7597 -1.0645 -0.3479
  162SAPE  C21918207   0.373   6.543   8.216  0.2413 -0.3290  0.2774
  162SAPE  H19R18208   0.435   6.472   8.274  3.1586  1.7167 -0.1435
  162SAPE  H19S18209   0.303   6.596   8.284  1.8296  0.4128  1.3978
  162SAPE  C22018210   0.477   6.638   8.149  0.3172 -0.4085 -0.2310
  162SAPE  H20R18211   0.549   6.570   8.099 -0.4296  0.1489 -2.1396
  162SAPE  H20S18212   0.519   6.704   8.228 -1.7466 -1.5763  1.9848
  162SAPE  H20T18213   0.437   6.697   8.064  0.1269 -2.6047 -1.7437
  162SAPE   C3318214   1.125   6.854   7.124 -0.6200  0.6102  0.2057
  162SAPE   H3X18215   1.191   6.934   7.084  0.1484  0.9125  2.0093
  162SAPE   H3Y18216   1.199   6.773   7.136 -0.7053  0.4231 -0.4535
  162SAPE   C3418217   1.060   6.885   7.256 -0.9067 -0.0201  0.1860
  162SAPE   H4X18218   1.028   6.791   7.306  1.4181  0.6504  3.2734
  162SAPE   H4Y18219   0.975   6.950   7.228  0.6804  0.7525 -3.3740
  162SAPE   C3518220   1.148   6.967   7.354  0.0514  0.0223 -0.5371
  162SAPE   H5X18221   1.170   7.068   7.313  1.2663 -0.3810 -0.9274
  162SAPE   H5Y18222   1.242   6.915   7.382 -0.5391 -0.6843  0.2079
  162SAPE   C3618223   1.062   6.986   7.477  0.1302 -0.5596  0.0156
  162SAPE   H6X18224   1.022   6.888   7.512  2.0411 -1.1978  0.5248
  162SAPE   H6Y18225   0.981   7.062   7.469  1.0052  0.3750 -0.1041
  162SAPE   C3718226   1.153   7.024   7.598 -0.3050  0.3663 -0.0128
  162SAPE   H7X18227   1.219   7.110   7.573 -0.2987  0.5260  0.5241
  162SAPE   H7Y18228   1.207   6.935   7.638 -1.4225  0.3347  1.5117
  162SAPE   C3818229   1.073   7.077   7.722 -1.0668 -0.5020 -0.1403
  162SAPE   H8X18230   1.013   6.997   7.772  2.5940 -1.9269  2.3806
  162SAPE   H8Y18231   1.016   7.169   7.696  1.2136  0.9473 -0.2480
  162SAPE   C3918232   1.171   7.112   7.841  0.0373  0.1520 -0.6157
  162SAPE   H9X18233   1.247   7.031   7.838 -1.0360 -0.9126  0.1054
  162SAPE   H9Y18234   1.125   7.108   7.942 -2.1414  2.4841 -1.3866
  162SAPE  C31018235   1.254   7.244   7.813  0.3438 -0.5191 -0.5216
  162SAPE  H10X18236   1.179   7.324   7.797  0.4755 -0.7391 -2.4989
  162SAPE  H10Y18237   1.323   7.236   7.726 -0.5672 -2.4018 -1.1193
  162SAPE  C31118238   1.340   7.285   7.938  0.4403 -0.3819 -0.4328
  162SAPE  H11X18239   1.428   7.217   7.942  1.8151  1.2051 -2.3231
  162SAPE  H11Y18240   1.274   7.279   8.028  0.6830  1.4089 -0.1019
  162SAPE  C31218241   1.386   7.429   7.925  0.6118 -0.2907 -0.0460
  162SAPE  H12X18242   1.292   7.481   7.894  1.2603  0.0314 -1.5552
  162SAPE  H12Y18243   1.448   7.444   7.834  1.1288  0.7863  0.4709
  162SAPE  C31318244   1.438   7.509   8.050 -0.3091  0.0314 -0.0372
  162SAPE  H13X18245   1.461   7.612   8.018  0.8066  0.3964  1.7705
  162SAPE  H13Y18246   1.529   7.457   8.087  0.0146  0.7799  0.2375
  162SAPE  C31418247   1.332   7.526   8.158  0.4202 -0.4949  0.2277
  162SAPE  H14X18248   1.293   7.430   8.199  0.1783 -0.1856  0.7284
  162SAPE  H14Y18249   1.250   7.584   8.112  1.2769 -0.4272 -1.2655
  162SAPE  C31518250   1.376   7.596   8.291 -0.1883  0.0054  0.0866
  162SAPE  H15X18251   1.462   7.547   8.341 -0.0061 -0.6581 -0.8524
  162SAPE  H15Y18252   1.293   7.587   8.364 -0.3434  0.2847 -0.0530
  162SAPE  C31618253   1.404   7.752   8.289  0.2161 -0.7324 -0.1146
  162SAPE  H16X18254   1.314   7.808   8.256  1.9957  2.3921 -0.1191
  162SAPE  H16Y18255   1.490   7.765   8.220 -0.9246 -1.1111 -1.6396
  162SAPE  C31718256   1.450   7.814   8.426  0.2454  0.0409  0.7669
  162SAPE  H17X18257   1.382   7.784   8.508 -0.4283  0.3597  0.3263
  162SAPE  H17Y18258   1.460   7.925   8.423  1.4253 -0.0653  0.0899
  162SAPE  C31818259   1.585   7.762   8.469  0.0501 -0.7821  0.1079
  162SAPE  H18X18260   1.664   7.814   8.409 -0.0008  0.9675  1.4670
  162SAPE  H18Y18261   1.607   7.653   8.465 -1.3035 -1.0584  0.0272
  162SAPE  H18Z18262   1.609   7.793   8.573  2.1886 -1.2463 -0.1951
  163SAPE     N18263   5.516   5.445   6.584 -0.2243  0.5474 -0.2295
  163SAPE   HN118264   5.434   5.461   6.522 -1.0236  1.5210  1.0436
  163SAPE   HN218265   5.490   5.395   6.671 -1.0722 -2.0257 -1.8442
  163SAPE   HN318266   5.558   5.539   6.600 -0.1830  0.5690 -0.4593
  163SAPE   C1218267   5.626   5.353   6.535  0.3800 -0.4492 -0.2973
  163SAPE  H12A18268   5.637   5.381   6.428  1.1174  1.0087  0.1239
  163SAPE  H12B18269   5.591   5.249   6.549  2.6052 -1.0620  1.3097
  163SAPE   C1118270   5.767   5.370   6.604  0.3617  1.5813 -0.3471
  163SAPE  H11A18271   5.835   5.312   6.538 -0.3363  0.9045 -0.4839
  163SAPE  H11B18272   5.775   5.336   6.709  0.7699  0.7285 -0.6455
  163SAPE     P18273   5.949   5.561   6.633  0.2531  0.5540 -0.1950
  163SAPE   O1318274   6.039   5.479   6.545 -0.0511 -0.2534 -0.6903
  163SAPE   O1418275   5.954   5.709   6.618  0.1382 -0.8208 -0.5672
  163SAPE   O1218276   5.796   5.513   6.596  0.1737  0.0578 -0.2422
  163SAPE   O1118277   5.985   5.522   6.780  0.1450 -0.1248 -0.1449
  163SAPE    C118278   5.889   5.534   6.885 -0.4523 -0.0148 -0.9075
  163SAPE    HA18279   5.871   5.639   6.917 -1.0875  0.1751 -1.8318
  163SAPE    HB18280   5.785   5.507   6.857 -1.3238  0.4130  1.5902
  163SAPE    C218281   5.922   5.449   7.013 -1.1971 -0.1157  0.3299
  163SAPE    HS18282   5.853   5.484   7.093 -1.8909 -1.2513  0.2542
  163SAPE   O2118283   6.063   5.460   7.052  0.6643 -0.4520 -0.0924
  163SAPE   C2118284   6.093   5.571   7.107  0.3192  0.0991 -0.7829
  163SAPE   O2218285   6.021   5.666   7.123  0.1177 -0.6627  0.4527
  163SAPE   C2218286   6.234   5.555   7.168 -0.1322 -0.2145 -0.0500
  163SAPE   H2R18287   6.235   5.473   7.244 -1.1795  1.1825  1.5352
  163SAPE   H2S18288   6.303   5.542   7.082  0.0013  2.0444 -0.3430
  163SAPE    C318289   5.891   5.299   6.980 -0.5725 -0.0745 -0.1835
  163SAPE    HX18290   5.952   5.271   6.891 -0.0240  0.2897  0.0723
  163SAPE    HY18291   5.790   5.275   6.942 -0.9343 -0.8457  1.2321
  163SAPE   O3118292   5.930   5.217   7.089 -1.0586  0.0190 -0.5744
  163SAPE   C3118293   5.835   5.207   7.182 -0.2206 -0.3417  0.0040
  163SAPE   O3218294   5.740   5.272   7.191 -0.1776  0.2039 -0.0729
  163SAPE   C3218295   5.873   5.085   7.266 -0.8634  0.2178 -0.4030
  163SAPE   H2X18296   5.964   5.030   7.234  0.1949  1.5162  0.2793
  163SAPE   H2Y18297   5.788   5.014   7.249 -0.8416 -0.6723  2.6958
  163SAPE   C2318298   6.284   5.680   7.244  0.3105  0.2471  0.3122
  163SAPE   H3R18299   6.390   5.661   7.270 -0.2337 -0.1618  2.4141
  163SAPE   H3S18300   6.229   5.703   7.338  0.0643 -1.2655  0.5512
  163SAPE   C2418301   6.298   5.808   7.164  0.4411  0.4852 -0.3370
  163SAPE   H4R18302   6.203   5.857   7.135  0.0948 -0.1568 -0.3086
  163SAPE   H4S18303   6.338   5.786   7.063 -1.9665  1.2755 -1.5567
  163SAPE   C2518304   6.395   5.909   7.221  0.1840 -0.9204  0.3915
  163SAPE   H5R18305   6.485   5.863   7.265 -1.1198 -2.0695  1.9702
  163SAPE   C2618306   6.380   6.045   7.224  0.2339  0.3053 -0.3576
  163SAPE   H6R18307   6.456   6.104   7.276 -0.3653  0.9549 -0.2012
  163SAPE   C2718308   6.266   6.125   7.162 -1.2652 -0.5651  0.3180
  163SAPE   H7R18309   6.180   6.127   7.233 -0.5578 -2.5874  1.3303
  163SAPE   H7S18310   6.227   6.071   7.073 -0.2075 -2.5786  0.9973
  163SAPE   C2818311   6.308   6.262   7.121 -0.5963  0.3838  0.0948
  163SAPE   H8R18312   6.292   6.293   7.017  0.9559  1.5871  0.1840
  163SAPE   C2918313   6.336   6.364   7.203 -0.0893  0.3461 -0.4286
  163SAPE   H9R18314   6.343   6.461   7.152  0.6791  0.5433  0.0409
  163SAPE  C21018315   6.339   6.364   7.351 -0.7739 -0.2284  0.9567
  163SAPE  H10R18316   6.287   6.277   7.396  0.7883 -0.4868  2.3705
  163SAPE  H10S18317   6.289   6.454   7.391 -0.3664  0.7938 -0.7562
  163SAPE  C21118318   6.487   6.361   7.396  0.4542 -0.3534  0.1447
  163SAPE  H11R18319   6.538   6.271   7.359 -3.2694 -2.0371 -1.3598
  163SAPE  C21218320   6.549   6.452   7.475 -0.0922 -0.2001  0.6436
  163SAPE  H12R18321   6.654   6.431   7.502  0.3132  1.4959  0.5035
  163SAPE  C21318322   6.490   6.571   7.541  0.3750 -0.4699  0.2405
  163SAPE  H13R18323   6.414   6.620   7.476  1.8393 -0.1058 -1.2690
  163SAPE  H13S18324   6.565   6.649   7.566  0.7376 -0.8209  0.2527
  163SAPE  C21418325   6.421   6.527   7.666  0.6986 -0.4263  0.1770
  163SAPE  H14R18326   6.331   6.467   7.647  1.2717 -0.8509 -1.3593
  163SAPE  C21518327   6.451   6.555   7.794  0.2989  0.2144  0.1481
  163SAPE  H15R18328   6.384   6.517   7.872 -1.8120  0.3782 -1.5079
  163SAPE  C21618329   6.571   6.636   7.845  0.4945  0.3395  0.5514
  163SAPE  H16R18330   6.545   6.714   7.920 -0.9591  2.4465 -1.9499
  163SAPE  H16S18331   6.627   6.674   7.756  0.5459 -1.7269 -0.3536
  163SAPE  C21718332   6.675   6.547   7.909  0.3396  0.3102 -0.1846
  163SAPE  H17R18333   6.748   6.616   7.956 -2.0738  2.8349  0.0794
  163SAPE  H17S18334   6.731   6.488   7.833  1.0372 -0.3042  0.7807
  163SAPE  C21818335   6.634   6.456   8.021  0.2512  0.2032 -0.7694
  163SAPE  H18R18336   6.725   6.418   8.073  1.1324  0.3787 -2.1103
  163SAPE  H18S18337   6.575   6.371   7.981  1.2335 -1.6887  1.5955
  163SAPE  C21918338   6.549   6.520   8.139 -0.0907 -0.4898 -0.7826
  163SAPE  H19R18339   6.459   6.562   8.090 -0.9166 -1.3312 -0.0318
  163SAPE  H19S18340   6.625   6.588   8.182 -1.7180  1.0822 -0.3006
  163SAPE  C22018341   6.515   6.412   8.227  0.2152 -0.3961 -0.7824
  163SAPE  H20R18342   6.485   6.329   8.160  0.4435 -1.0704 -0.0667
  163SAPE  H20S18343   6.430   6.424   8.297 -1.2686  0.7361 -2.6962
  163SAPE  H20T18344   6.607   6.389   8.285 -0.8190  0.0414  1.1125
  163SAPE   C3318345   5.870   5.105   7.418 -0.9835 -0.8314  0.4892
  163SAPE   H3X18346   5.769   5.142   7.448 -0.4139  0.5507  0.7413
  163SAPE   H3Y18347   5.954   5.174   7.441 -0.2616 -1.6494  0.3631
  163SAPE   C3418348   5.894   4.979   7.496 -0.4938  0.7045  0.0552
  163SAPE   H4X18349   5.980   4.923   7.453 -1.9984 -0.9303 -0.9508
  163SAPE   H4Y18350   5.802   4.922   7.473  0.8579 -1.5682 -0.0383
  163SAPE   C3518351   5.914   5.020   7.644 -0.7613  0.3536  0.3559
  163SAPE   H5X18352   5.827   5.076   7.685 -0.6937 -0.0649  1.0954
  163SAPE   H5Y18353   6.003   5.082   7.666  0.0684 -0.2066 -1.3280
  163SAPE   C3618354   5.940   4.893   7.728  0.0237 -0.0811  0.2032
  163SAPE   H6X18355   6.034   4.844   7.695 -0.9934 -3.3697  1.7454
  163SAPE   H6Y18356   5.867   4.814   7.700  0.6484 -0.3930 -0.5791
  163SAPE   C3718357   5.933   4.917   7.874  0.0671  0.0129 -0.0852
  163SAPE   H7X18358   5.845   4.983   7.889 -0.1526 -0.0227 -1.1767
  163SAPE   H7Y18359   6.025   4.977   7.893 -0.9892  1.2005  1.5475
  163SAPE   C3818360   5.930   4.789   7.962 -0.4835 -0.0979 -0.4808
  163SAPE   H8X18361   6.002   4.712   7.927 -0.6803  0.6801 -2.7216
  163SAPE   H8Y18362   5.828   4.744   7.954 -0.4531 -0.8095  2.0932
  163SAPE   C3918363   5.962   4.819   8.113  0.1946 -0.4255  0.0207
  163SAPE   H9X18364   5.903   4.901   8.158  0.3097  0.4235 -1.3227
  163SAPE   H9Y18365   6.069   4.850   8.115 -0.4465  1.9736  1.9076
  163SAPE  C31018366   5.955   4.689   8.195  0.1167  0.0406 -0.0470
  163SAPE  H10X18367   6.034   4.620   8.158 -0.3195 -0.1173 -0.6919
  163SAPE  H10Y18368   5.850   4.654   8.188 -1.1606  2.6599  3.1042
  163SAPE  C31118369   5.988   4.722   8.343  0.0590  0.1528 -0.9356
  163SAPE  H11X18370   5.932   4.814   8.369 -3.9772 -1.8800 -1.6035
  163SAPE  H11Y18371   6.096   4.745   8.350 -0.3827  3.0822 -2.1156
  163SAPE  C31218372   5.950   4.615   8.444 -0.8037 -0.0568  0.2997
  163SAPE  H12X18373   6.037   4.548   8.454  0.2011  0.9993 -0.8958
  163SAPE  H12Y18374   5.858   4.561   8.412 -0.4832  0.4148 -1.5647
  163SAPE  C31318375   5.940   4.678   8.583  0.7345  0.6393 -0.0961
  163SAPE  H13X18376   5.866   4.761   8.578 -0.5769 -0.4169  0.9024
  163SAPE  H13Y18377   6.039   4.718   8.613  1.7838 -0.8659 -1.3549
  163SAPE  C31418378   5.891   4.571   8.691  0.2647 -0.0790 -0.2748
  163SAPE  H14X18379   5.959   4.484   8.703 -0.4293 -0.7639 -1.2383
  163SAPE  H14Y18380   5.790   4.530   8.672 -0.0994  0.5215  0.3275
  163SAPE  C31518381   5.886   4.635   8.836 -0.2332  0.6297  0.3177
  163SAPE  H15X18382   5.967   4.711   8.840 -0.9792  1.7601 -3.1292
  163SAPE  H15Y18383   5.921   4.554   8.903  0.6615  0.9871  0.2982
  163SAPE  C31618384   5.746   4.687   8.882 -0.4063 -0.2179  0.0465
  163SAPE  H16X18385   5.667   4.610   8.880  0.5935 -1.2676 -0.4615
  163SAPE  H16Y18386   5.707   4.766   8.813 -1.3768 -0.2864  0.5030
  163SAPE  C31718387   5.747   4.738   9.025  1.0843  0.2462 -0.0952
  163SAPE  H17X18388   5.770   4.663   9.104 -0.5242  0.6749  0.8301
  163SAPE  H17Y18389   5.639   4.762   9.042  1.2828  0.5820  0.7404
  163SAPE  C31818390   5.827   4.867   9.045 -0.5357  0.0658  0.2791
  163SAPE  H18X18391   5.933   4.845   9.019 -0.0522  0.9085  1.4375
  163SAPE  H18Y18392   5.805   4.902   9.148 -0.8168  1.8946 -0.3605
  163SAPE  H18Z18393   5.798   4.941   8.967  0.7064 -0.1828 -0.4319
  164SAPE     N18394   1.076   1.993   6.048  0.3143 -0.5609  0.2274
  164SAPE   HN118395   1.022   2.049   6.117  0.9783 -0.4784  0.6839
  164SAPE   HN218396   1.022   1.972   5.962 -1.5152 -1.7129  1.5797
  164SAPE   HN318397   1.093   1.902   6.095 -2.0514 -0.2318  1.9364
  164SAPE   C1218398   1.206   2.072   6.014  0.3561 -0.6930 -0.4646
  164SAPE  H12A18399   1.273   2.014   5.948  1.4513 -0.4549  0.3987
  164SAPE  H12B18400   1.259   2.092   6.110 -0.4895  1.7810 -0.4552
  164SAPE   C1118401   1.162   2.203   5.946 -0.1486  0.6588  0.2573
  164SAPE  H11A18402   1.104   2.191   5.852  1.2191  2.9331 -0.9481
  164SAPE  H11B18403   1.250   2.264   5.918 -1.8822  2.4248 -1.7040
  164SAPE     P18404   0.948   2.341   6.024  0.0351 -0.2717  0.0122
  164SAPE   O1318405   0.964   2.486   5.991  0.7963  0.1176 -0.1003
  164SAPE   O1418406   0.872   2.268   5.916  0.0595 -0.7525 -0.4250
  164SAPE   O1218407   1.088   2.278   6.042 -0.0512 -0.5188 -0.0843
  164SAPE   O1118408   0.878   2.327   6.161  0.0897  0.1520  0.0998
  164SAPE    C118409   0.899   2.416   6.277 -0.8341  0.2278  0.0620
  164SAPE    HA18410   0.890   2.521   6.242 -1.9168  0.2613  0.3920
  164SAPE    HB18411   0.813   2.398   6.345  0.5842  1.2036  2.1839
  164SAPE    C218412   1.036   2.389   6.353  0.6508 -0.1714  0.2327
  164SAPE    HS18413   1.121   2.420   6.288 -0.6865  1.1499 -0.9631
  164SAPE   O2118414   1.028   2.247   6.372  0.4680  0.0199 -0.2556
  164SAPE   C2118415   1.136   2.191   6.423 -0.3483  0.2469  0.0690
  164SAPE   O2218416   1.245   2.247   6.438 -0.1421  0.0582  0.4181
  164SAPE   C2218417   1.105   2.047   6.457 -0.0711 -0.4489  0.4357
  164SAPE   H2R18418   0.995   2.048   6.475 -0.0741  1.0746  0.4492
  164SAPE   H2S18419   1.118   1.996   6.359 -1.6841  2.0295 -1.1629
  164SAPE    C318420   1.032   2.474   6.487  0.8365  0.1149  0.4120
  164SAPE    HX18421   0.930   2.465   6.530 -0.1477 -1.0009 -1.9546
  164SAPE    HY18422   1.048   2.577   6.448  1.6945 -0.0979  0.1788
  164SAPE   O3118423   1.130   2.435   6.587 -0.1432  0.1737  0.5743
  164SAPE   C3118424   1.241   2.499   6.589 -0.2699 -0.1724  0.2726
  164SAPE   O3218425   1.270   2.581   6.507  0.1654  0.1162 -0.3238
  164SAPE   C3218426   1.330   2.472   6.713 -0.6697  0.4547 -0.4645
  164SAPE   H2X18427   1.294   2.537   6.795 -0.6810  0.0923 -0.1756
  164SAPE   H2Y18428   1.437   2.489   6.688 -0.5309  0.2269 -0.0514
  164SAPE   C2318429   1.172   1.990   6.578 -0.3938 -0.6707 -0.7951
  164SAPE   H3R18430   1.137   2.045   6.668 -1.7559 -0.6559 -1.3146
  164SAPE   H3S18431   1.280   2.015   6.562 -0.2922 -0.2360  0.4670
  164SAPE   C2418432   1.158   1.840   6.595 -0.6290  0.3079  0.4404
  164SAPE   H4R18433   1.185   1.791   6.500 -0.4208  1.3508 -0.0552
  164SAPE   H4S18434   1.054   1.815   6.625  0.1172 -0.4432  2.5723
  164SAPE   C2518435   1.254   1.784   6.703  0.3049  0.5175 -0.0105
  164SAPE   H5R18436   1.332   1.715   6.668 -0.2157 -0.4497  0.6922
  164SAPE   C2618437   1.263   1.810   6.837 -0.1083  0.2984  0.3463
  164SAPE   H6R18438   1.335   1.754   6.899 -0.1648  1.4812  1.5183
  164SAPE   C2718439   1.171   1.902   6.910 -0.7249  0.5892 -0.3971
  164SAPE   H7R18440   1.067   1.894   6.874 -2.3723  0.2308  3.8522
  164SAPE   H7S18441   1.207   2.006   6.894 -2.0330  0.6587 -3.4001
  164SAPE   C2818442   1.167   1.853   7.055 -0.4208  0.2842  0.7815
  164SAPE   H8R18443   1.078   1.790   7.072  0.1242 -0.1672  2.0616
  164SAPE   C2918444   1.250   1.871   7.155  0.1175  0.4497  0.1630
  164SAPE   H9R18445   1.228   1.812   7.246 -1.7334 -3.4981 -2.5521
  164SAPE  C21018446   1.379   1.950   7.159  0.6424  0.0560  0.2404
  164SAPE  H10R18447   1.371   2.051   7.206  1.1609  1.9751 -3.4047
  164SAPE  H10S18448   1.410   1.976   7.055  2.2293 -2.2238  0.0617
  164SAPE  C21118449   1.488   1.865   7.218  0.6098  0.0218  0.1147
  164SAPE  H11R18450   1.532   1.784   7.157 -0.7227 -0.8181  0.2340
  164SAPE  C21218451   1.526   1.868   7.342  0.2726  0.4230  0.0215
  164SAPE  H12R18452   1.598   1.792   7.378 -0.5478  0.1254  1.0725
  164SAPE  C21318453   1.472   1.958   7.447 -0.6824 -0.7699 -0.4775
  164SAPE  H13R18454   1.410   2.040   7.405 -2.0946 -0.7473  1.5189
  164SAPE  H13S18455   1.554   2.011   7.501 -0.0473 -0.7755 -1.4114
  164SAPE  C21418456   1.378   1.895   7.553 -0.7820  0.1431  0.4301
  164SAPE  H14R18457   1.283   1.859   7.511 -1.7738  3.0594 -0.0107
  164SAPE  C21518458   1.404   1.893   7.685  0.1385 -0.1984  0.1116
  164SAPE  H15R18459   1.327   1.842   7.745 -1.2253  0.8301 -0.7077
  164SAPE  C21618460   1.518   1.950   7.772 -0.5131 -0.0157  1.2004
  164SAPE  H16R18461   1.483   1.992   7.868 -1.7208  0.0865  0.7314
  164SAPE  H16S18462   1.563   2.031   7.711 -0.1148 -0.8635  0.3333
  164SAPE  C21718463   1.637   1.853   7.805  0.2648 -0.3382  0.1089
  164SAPE  H17R18464   1.597   1.775   7.873 -2.5693  0.9165  0.0347
  164SAPE  H17S18465   1.708   1.910   7.869  0.0178 -1.0047  0.9848
  164SAPE  C21818466   1.711   1.778   7.692  0.1884  0.4294  0.0391
  164SAPE  H18R18467   1.746   1.854   7.619 -0.2694  1.3565  0.7647
  164SAPE  H18S18468   1.638   1.718   7.633 -0.2049  1.2025 -0.2676
  164SAPE  C21918469   1.827   1.696   7.725  0.0636 -0.3106  0.5330
  164SAPE  H19R18470   1.810   1.601   7.781 -1.4719  1.0112  2.4442
  164SAPE  H19S18471   1.885   1.755   7.798  0.4861  0.2837 -0.2718
  164SAPE  C22018472   1.929   1.658   7.617  0.4566 -1.0242  0.2356
  164SAPE  H20R18473   1.932   1.738   7.540 -2.4857 -1.5239 -0.5023
  164SAPE  H20S18474   1.900   1.569   7.557  3.4760 -0.8440 -1.7473
  164SAPE  H20T18475   2.036   1.642   7.641  0.5341 -0.1429  0.5249
  164SAPE   C3318476   1.305   2.333   6.767  0.3947  0.1876  0.4692
  164SAPE   H3X18477   1.327   2.256   6.689 -0.1519 -0.6087  1.0832
  164SAPE   H3Y18478   1.196   2.331   6.786  0.0694  2.3571 -0.9102
  164SAPE   C3418479   1.386   2.291   6.881 -0.5323 -0.3465  0.4780
  164SAPE   H4X18480   1.494   2.309   6.860 -0.3657 -1.8529 -0.1076
  164SAPE   H4Y18481   1.385   2.181   6.895 -1.0488 -0.3685  0.2685
  164SAPE   C3518482   1.332   2.348   7.015 -0.3746 -0.1429  0.7032
  164SAPE   H5X18483   1.240   2.300   7.052 -0.3497 -1.0663 -0.3729
  164SAPE   H5Y18484   1.322   2.459   7.011  1.8936  0.1370  1.1236
  164SAPE   C3618485   1.438   2.334   7.125 -0.4850  0.6147  0.4987
  164SAPE   H6X18486   1.526   2.398   7.103 -0.3353  0.5404  0.8764
  164SAPE   H6Y18487   1.477   2.229   7.128  0.7655  0.9515 -1.7227
  164SAPE   C3718488   1.389   2.369   7.263  0.1674  0.1664 -0.1750
  164SAPE   H7X18489   1.318   2.292   7.300  1.0114  0.1267  1.4770
  164SAPE   H7Y18490   1.343   2.470   7.262  0.7375  0.4249 -0.7859
  164SAPE   C3818491   1.497   2.360   7.374  0.3758  0.0790  0.4478
  164SAPE   H8X18492   1.579   2.431   7.349 -0.4439 -0.0080 -2.9963
  164SAPE   H8Y18493   1.536   2.260   7.348 -1.4776 -0.3339 -0.9745
  164SAPE   C3918494   1.442   2.349   7.517 -0.7545  0.1659  0.5613
  164SAPE   H9X18495   1.382   2.256   7.521 -0.2738 -0.1250  1.0653
  164SAPE   H9Y18496   1.366   2.428   7.536 -1.6611 -0.4578 -0.3767
  164SAPE  C31018497   1.561   2.341   7.627 -0.2307 -0.8476 -0.3469
  164SAPE  H10X18498   1.602   2.444   7.621 -0.5866 -0.5633  1.5590
  164SAPE  H10Y18499   1.622   2.259   7.582 -0.4225 -1.3285  0.2567
  164SAPE  C31118500   1.517   2.306   7.772  0.5699 -0.2188  0.3034
  164SAPE  H11X18501   1.444   2.223   7.764  1.1384 -0.7485  0.4850
  164SAPE  H11Y18502   1.458   2.394   7.806 -1.1609 -1.5807  0.9861
  164SAPE  C31218503   1.625   2.265   7.867 -0.1576  0.1515 -0.3844
  164SAPE  H12X18504   1.686   2.355   7.890 -0.1664 -0.4453  2.4053
  164SAPE  H12Y18505   1.689   2.180   7.833 -1.7262 -1.1654 -0.1842
  164SAPE  C31318506   1.572   2.219   8.006 -0.3001  0.1997  0.2434
  164SAPE  H13X18507   1.495   2.139   7.991 -1.6246  1.3183  0.8502
  164SAPE  H13Y18508   1.513   2.302   8.050 -0.8957 -0.2396  0.2979
  164SAPE  C31418509   1.686   2.174   8.094 -0.1643  1.2794 -0.2922
  164SAPE  H14X18510   1.775   2.238   8.078  1.0789 -0.6234 -1.4470
  164SAPE  H14Y18511   1.726   2.078   8.055 -1.1638  0.1928  1.2528
  164SAPE  C31518512   1.629   2.146   8.236  0.1170  1.2844 -0.2164
  164SAPE  H15X18513   1.559   2.059   8.230 -0.9149  1.9512  1.4747
  164SAPE  H15Y18514   1.565   2.232   8.266 -2.8199 -0.7086 -0.3128
  164SAPE  C31618515   1.739   2.116   8.337  0.7391 -0.8103  0.4381
  164SAPE  H16X18516   1.801   2.035   8.293 -0.6577 -0.8202 -1.6625
  164SAPE  H16Y18517   1.687   2.074   8.426 -3.3028 -2.1526 -2.2587
  164SAPE  C31718518   1.829   2.241   8.370  0.3844 -0.3795  0.3396
  164SAPE  H17X18519   1.762   2.322   8.406  0.4676  0.0094 -0.3591
  164SAPE  H17Y18520   1.863   2.286   8.274 -0.3989 -2.6427 -1.0617
  164SAPE  C31818521   1.941   2.211   8.464  0.5995  0.5659  0.6675
  164SAPE  H18X18522   1.995   2.118   8.437  0.2223  0.4226  0.3962
  164SAPE  H18Y18523   1.908   2.232   8.568  1.6780  3.6320  0.4981
  164SAPE  H18Z18524   2.014   2.294   8.455  3.1519 -1.6433 -0.2809
  165SAPE     N18525   2.154   5.263   6.335 -0.9392  0.0515  0.6021
  165SAPE   HN118526   2.075   5.246   6.270  0.6318 -3.1286 -0.6808
  165SAPE   HN218527   2.127   5.317   6.419  0.5943  0.6581  0.7369
  165SAPE   HN318528   2.230   5.321   6.292 -1.9242  2.2959  1.7458
  165SAPE   C1218529   2.231   5.135   6.360  0.6049 -0.1330  0.3460
  165SAPE  H12A18530   2.220   5.068   6.272 -1.2627  0.0405  0.4061
  165SAPE  H12B18531   2.193   5.071   6.443 -0.4517 -0.2047 -0.1685
  165SAPE   C1118532   2.385   5.166   6.386  0.0098  0.3124 -0.0652
  165SAPE  H11A18533   2.428   5.066   6.405 -0.7878 -0.2727 -1.1844
  165SAPE  H11B18534   2.391   5.226   6.479  1.8951  0.5275 -0.2917
  165SAPE     P18535   2.478   5.374   6.249  0.0868 -0.3562  0.5088
  165SAPE   O1318536   2.569   5.384   6.132 -0.2809 -0.7711  0.1093
  165SAPE   O1418537   2.351   5.443   6.243 -0.3612 -0.0225 -0.3258
  165SAPE   O1218538   2.452   5.218   6.274  0.0084  0.0450 -0.1139
  165SAPE   O1118539   2.556   5.420   6.374  0.1024 -0.3523 -0.1577
  165SAPE    C118540   2.682   5.359   6.420  0.0217  1.0193 -0.3074
  165SAPE    HA18541   2.714   5.273   6.357 -0.1808  1.0034 -0.3924
  165SAPE    HB18542   2.767   5.430   6.423  0.4837  0.4372  0.3657
  165SAPE    C218543   2.665   5.319   6.567  0.2490  0.1043 -0.1290
  165SAPE    HS18544   2.608   5.224   6.580  1.0292 -0.4412 -0.6153
  165SAPE   O2118545   2.589   5.426   6.632  0.2385  0.3516 -0.6922
  165SAPE   C2118546   2.524   5.389   6.747 -0.8590 -0.1173 -0.8850
  165SAPE   O2218547   2.509   5.277   6.784  0.2468  1.1348 -0.5536
  165SAPE   C2218548   2.447   5.515   6.796  0.3013  0.1525  0.2509
  165SAPE   H2R18549   2.484   5.541   6.898  2.7756 -1.4330 -0.1600
  165SAPE   H2S18550   2.480   5.600   6.732 -0.7133 -0.1375 -0.6999
  165SAPE    C318551   2.806   5.296   6.632  0.7979 -0.1281  0.6759
  165SAPE    HX18552   2.865   5.389   6.616  0.5005 -0.2159 -1.1759
  165SAPE    HY18553   2.864   5.226   6.569 -0.8011  0.0774 -1.1338
  165SAPE   O3118554   2.805   5.258   6.769  0.3783 -0.4609  0.2334
  165SAPE   C3118555   2.800   5.130   6.795 -0.3039  0.2179  0.5172
  165SAPE   O3218556   2.802   5.041   6.714  0.2974 -0.3250  0.4884
  165SAPE   C3218557   2.782   5.109   6.947 -0.4279 -0.3426 -0.5619
  165SAPE   H2X18558   2.718   5.185   6.998  0.9365 -0.4296  1.4076
  165SAPE   H2Y18559   2.885   5.126   6.986  0.5922  0.1124 -3.2660
  165SAPE   C2318560   2.293   5.495   6.800 -0.4538 -0.4983 -0.0067
  165SAPE   H3R18561   2.266   5.461   6.698  0.2266 -0.7134 -0.1226
  165SAPE   H3S18562   2.231   5.586   6.807 -0.0281 -0.2725  0.9739
  165SAPE   C2418563   2.250   5.389   6.907  0.5044  0.1712  0.1614
  165SAPE   H4R18564   2.291   5.288   6.886  1.2680  0.6090 -0.4931
  165SAPE   H4S18565   2.140   5.374   6.904  0.6124 -0.5305 -0.6435
  165SAPE   C2518566   2.281   5.436   7.051 -0.4184 -0.7549  0.0440
  165SAPE   H5R18567   2.286   5.542   7.076  1.6931 -0.0171 -2.9098
  165SAPE   C2618568   2.305   5.355   7.156 -0.4234  0.5885  0.0682
  165SAPE   H6R18569   2.321   5.398   7.256  0.4875 -0.3104  0.3244
  165SAPE   C2718570   2.309   5.209   7.161  0.1624  0.3955  0.2540
  165SAPE   H7R18571   2.411   5.174   7.189 -0.4223 -0.7354  1.0459
  165SAPE   H7S18572   2.290   5.163   7.062  2.6957  1.1460 -0.6539
  165SAPE   C2818573   2.210   5.143   7.254 -0.1474 -0.0899  0.7918
  165SAPE   H8R18574   2.121   5.100   7.205 -2.4848  3.9504  1.0907
  165SAPE   C2918575   2.224   5.122   7.384 -0.8912 -0.1608 -0.1590
  165SAPE   H9R18576   2.146   5.061   7.433 -0.2539 -2.0349 -1.3721
  165SAPE  C21018577   2.341   5.173   7.476  0.9001 -0.1970 -0.1538
  165SAPE  H10R18578   2.298   5.255   7.537 -1.3951 -1.6926  0.3840
  165SAPE  H10S18579   2.419   5.218   7.412  0.8987 -2.3279 -1.7793
  165SAPE  C21118580   2.405   5.066   7.560 -0.2462 -0.2706 -0.2651
  165SAPE  H11R18581   2.446   4.979   7.508 -1.9259 -1.1871 -0.1327
  165SAPE  C21218582   2.401   5.061   7.697 -0.4050 -0.1996  0.0162
  165SAPE  H12R18583   2.455   4.977   7.743  3.0971  0.3463 -2.6643
  165SAPE  C21318584   2.333   5.162   7.791 -0.9988 -0.0755  0.0019
  165SAPE  H13R18585   2.255   5.110   7.851 -1.6992 -0.6130 -1.3250
  165SAPE  H13S18586   2.275   5.235   7.732 -0.5246 -0.3039 -0.7558
  165SAPE  C21418587   2.427   5.229   7.884  0.4456 -0.9455 -0.6940
  165SAPE  H14R18588   2.514   5.278   7.838 -0.0759  0.5218 -0.1767
  165SAPE  C21518589   2.418   5.227   8.022  1.0239  0.8408  0.5711
  165SAPE  H15R18590   2.495   5.283   8.077  2.8236 -0.7802 -0.1940
  165SAPE  C21618591   2.314   5.157   8.111 -0.0485  0.3430  0.5268
  165SAPE  H16R18592   2.376   5.100   8.183  0.3066  0.2181  0.1183
  165SAPE  H16S18593   2.247   5.080   8.067 -0.1530  1.3404 -1.1246
  165SAPE  C21718594   2.207   5.238   8.192  0.1112 -0.0197  0.0088
  165SAPE  H17R18595   2.116   5.180   8.220  0.7374 -0.7210  0.6245
  165SAPE  H17S18596   2.169   5.314   8.121 -1.9908 -1.9947 -1.1255
  165SAPE  C21818597   2.261   5.311   8.319 -0.4035 -0.0597  0.0430
  165SAPE  H18R18598   2.343   5.383   8.295  1.0188 -1.5885  0.1635
  165SAPE  H18S18599   2.309   5.234   8.383  0.5417  3.0773  3.4661
  165SAPE  C21918600   2.156   5.391   8.393 -0.3474 -0.7225 -0.3460
  165SAPE  H19R18601   2.062   5.334   8.375 -0.3918 -0.3202 -1.4589
  165SAPE  H19S18602   2.150   5.493   8.351  1.4631 -0.3332  0.2510
  165SAPE  C22018603   2.182   5.400   8.543  0.0056 -0.0507  0.4149
  165SAPE  H20R18604   2.087   5.447   8.578 -0.2937  0.4859 -1.0441
  165SAPE  H20S18605   2.281   5.448   8.560  0.5390 -1.0699  0.2544
  165SAPE  H20T18606   2.197   5.297   8.581 -0.4567 -1.3257 -2.5865
  165SAPE   C3318607   2.740   4.972   6.988  0.3793  0.2600 -0.5525
  165SAPE   H3X18608   2.824   4.904   6.964  0.8980  0.1638  1.3614
  165SAPE   H3Y18609   2.643   4.937   6.947 -0.4442 -0.7402  2.0229
  165SAPE   C3418610   2.702   4.973   7.138  0.2441 -0.0908  0.6459
  165SAPE   H4X18611   2.685   4.865   7.162 -1.0738  0.0756  0.5702
  165SAPE   H4Y18612   2.603   5.020   7.156  0.7920  1.1767  0.4427
  165SAPE   C3518613   2.806   5.029   7.235 -0.9210  0.2077 -0.4997
  165SAPE   H5X18614   2.823   5.135   7.207 -1.7336  0.1643 -1.1957
  165SAPE   H5Y18615   2.903   4.978   7.218 -0.4121  0.7943  0.5530
  165SAPE   C3618616   2.753   5.010   7.368  0.4999 -0.6803 -0.8555
  165SAPE   H6X18617   2.715   4.906   7.375 -0.1459 -0.3865  0.2291
  165SAPE   H6Y18618   2.667   5.079   7.371  1.2281  0.2407 -0.4403
  165SAPE   C3718619   2.847   5.052   7.485 -0.5329 -0.1240 -1.0237
  165SAPE   H7X18620   2.880   5.158   7.476  1.1027 -0.4972  0.2080
  165SAPE   H7Y18621   2.933   4.989   7.454  0.8257  1.7595 -1.2826
  165SAPE   C3818622   2.788   5.013   7.626 -0.1940  0.1008  0.2755
  165SAPE   H8X18623   2.760   4.907   7.609 -1.1010  0.0260  1.9827
  165SAPE   H8Y18624   2.691   5.065   7.642  0.0161  0.0671  1.7750
  165SAPE   C3918625   2.870   5.042   7.752 -0.2799 -0.0145  0.3648
  165SAPE   H9X18626   2.900   5.149   7.754  3.6873 -0.9395  3.2147
  165SAPE   H9Y18627   2.970   4.995   7.740 -0.4955 -0.4446  0.2403
  165SAPE  C31018628   2.805   5.009   7.888 -0.2856 -0.2806 -0.6501
  165SAPE  H10X18629   2.773   4.902   7.892  1.7330 -0.9371 -0.9695
  165SAPE  H10Y18630   2.708   5.062   7.898 -1.1261 -1.9664  0.8604
  165SAPE  C31118631   2.887   5.047   8.014  0.4860 -0.0162  0.2251
  165SAPE  H11X18632   2.917   5.153   8.001  2.5993 -0.7972 -2.2316
  165SAPE  H11Y18633   2.978   4.984   8.004  0.7680  0.3431  0.4870
  165SAPE  C31218634   2.807   5.007   8.138  0.0871  0.0998 -0.4858
  165SAPE  H12X18635   2.808   4.896   8.147  0.1290  0.0636 -0.8874
  165SAPE  H12Y18636   2.699   5.025   8.121  0.1648 -0.2645 -1.4644
  165SAPE  C31318637   2.860   5.077   8.264  0.3204  0.0997 -0.1052
  165SAPE  H13X18638   2.848   5.187   8.260  1.5365  0.3011  1.2269
  165SAPE  H13Y18639   2.966   5.048   8.276 -0.1109 -1.3206  0.4698
  165SAPE  C31418640   2.794   5.033   8.397 -0.4531  0.2275 -0.0278
  165SAPE  H14X18641   2.786   4.922   8.395 -0.5328  0.2396 -2.3612
  165SAPE  H14Y18642   2.691   5.073   8.407 -0.2635  0.2499  2.4086
  165SAPE  C31518643   2.871   5.072   8.519 -0.6883 -0.1783  0.0682
  165SAPE  H15X18644   2.887   5.182   8.522  0.6838 -0.1313 -3.4066
  165SAPE  H15Y18645   2.976   5.035   8.513  0.1290  2.0452 -0.2180
  165SAPE  C31618646   2.827   5.017   8.654  0.3686 -0.3081  0.6152
  165SAPE  H16X18647   2.830   4.907   8.640 -0.9402 -0.4151  1.0348
  165SAPE  H16Y18648   2.724   5.045   8.686  0.3676 -1.1452  1.3681
  165SAPE  C31718649   2.918   5.076   8.760  0.8477 -0.1015 -0.9180
  165SAPE  H17X18650   2.912   5.186   8.748 -0.7716  0.6021  3.9615
  165SAPE  H17Y18651   3.027   5.060   8.741  1.0274  2.1578 -2.0179
  165SAPE  C31818652   2.869   5.035   8.904 -0.1410  0.5461  0.0663
  165SAPE  H18X18653   2.917   5.100   8.980  1.4611  1.6858 -1.8372
  165SAPE  H18Y18654   2.900   4.931   8.931  0.9179  0.4025 -1.5466
  165SAPE  H18Z18655   2.760   5.040   8.920  0.2760  1.5593  3.3272
  166SAPE     N18656   2.736   0.840   6.194 -0.0934  0.7348  0.0809
  166SAPE   HN118657   2.718   0.776   6.274  0.4438  0.4650 -0.0094
  166SAPE   HN218658   2.813   0.796   6.139 -0.9843  0.4311 -0.9667
  166SAPE   HN318659   2.781   0.926   6.232 -0.4028  0.9145  0.0475
  166SAPE   C1218660   2.624   0.874   6.103 -0.0351  0.5429  0.6429
  166SAPE  H12A18661   2.576   0.780   6.066  0.0891  1.2920 -1.6155
  166SAPE  H12B18662   2.672   0.923   6.016  0.7466 -1.4286 -0.1082
  166SAPE   C1118663   2.518   0.959   6.177  0.1936 -0.5160 -0.0368
  166SAPE  H11A18664   2.551   1.064   6.196 -1.1362 -0.0591 -0.1519
  166SAPE  H11B18665   2.512   0.909   6.276  1.4880 -1.3597 -0.3668
  166SAPE     P18666   2.270   0.875   6.153  0.1260 -0.3529 -0.0628
  166SAPE   O1318667   2.154   0.891   6.063 -0.3764  0.5199 -0.7423
  166SAPE   O1418668   2.327   0.737   6.165 -1.0911  0.1699  0.1946
  166SAPE   O1218669   2.382   0.973   6.110 -0.9181  0.1585  0.4096
  166SAPE   O1118670   2.231   0.912   6.299 -0.2473 -0.2986 -0.4456
  166SAPE    C118671   2.224   1.050   6.337 -0.4291  0.0066 -0.4074
  166SAPE    HA18672   2.286   1.119   6.276  3.0992 -2.3773  0.2207
  166SAPE    HB18673   2.117   1.081   6.331 -1.1948 -2.0935  1.0913
  166SAPE    C218674   2.267   1.060   6.484 -0.3810  0.2649 -0.1670
  166SAPE    HS18675   2.286   1.168   6.500  0.5464  0.0262  0.4107
  166SAPE   O2118676   2.391   0.990   6.492 -0.7551  0.4313  0.3399
  166SAPE   C2118677   2.469   1.021   6.597  0.6464  0.3122 -0.4860
  166SAPE   O2218678   2.446   1.118   6.671  0.4662  0.3642 -0.7676
  166SAPE   C2218679   2.587   0.934   6.603 -0.7177 -0.1863  0.3030
  166SAPE   H2R18680   2.558   0.828   6.586  1.4331 -1.3975  3.3091
  166SAPE   H2S18681   2.653   0.963   6.518  0.2998 -2.5801  0.1761
  166SAPE    C318682   2.157   1.008   6.581  0.5810  0.4566 -0.4509
  166SAPE    HX18683   2.142   0.899   6.564 -0.1782 -0.9271  6.2109
  166SAPE    HY18684   2.059   1.054   6.555 -0.3281  0.3048  2.3965
  166SAPE   O3118685   2.178   1.029   6.721 -0.0370 -0.0625  0.1950
  166SAPE   C3118686   2.141   1.148   6.771 -0.0243 -0.3043  0.4722
  166SAPE   O3218687   2.093   1.237   6.703  0.2029 -0.2339  0.2593
  166SAPE   C3218688   2.182   1.172   6.919  0.0266  0.0746  0.6889
  166SAPE   H2X18689   2.281   1.222   6.915 -0.7005  1.4729 -0.7300
  166SAPE   H2Y18690   2.173   1.079   6.980 -0.6735 -0.1720  0.2230
  166SAPE   C2318691   2.660   0.934   6.736 -0.5626 -0.6541  0.0320
  166SAPE   H3R18692   2.663   1.039   6.771  1.2330 -0.0815 -1.7005
  166SAPE   H3S18693   2.769   0.912   6.729 -0.5653 -0.2065 -1.9466
  166SAPE   C2418694   2.614   0.822   6.825  0.6964  0.5047 -0.6866
  166SAPE   H4R18695   2.702   0.813   6.893 -0.3538  0.2866  0.6877
  166SAPE   H4S18696   2.613   0.726   6.768 -0.3546  0.0581  0.0386
  166SAPE   C2518697   2.486   0.841   6.905  0.4061  0.1904  0.5791
  166SAPE   H5R18698   2.393   0.816   6.852 -0.9701  0.2129  2.8660
  166SAPE   C2618699   2.475   0.852   7.036 -0.2773  0.6888 -0.1734
  166SAPE   H6R18700   2.373   0.874   7.073 -0.1249 -1.3731  1.7096
  166SAPE   C2718701   2.580   0.863   7.143 -0.6523 -0.3592  0.5445
  166SAPE   H7R18702   2.664   0.931   7.119 -2.3004  1.7678  0.4836
  166SAPE   H7S18703   2.628   0.764   7.159 -0.7028 -0.3037  1.0697
  166SAPE   C2818704   2.534   0.917   7.279 -0.7128  0.4887  0.3720
  166SAPE   H8R18705   2.480   1.013   7.282  0.6851  1.4453 -2.0212
  166SAPE   C2918706   2.555   0.863   7.404 -0.1544  0.0961  0.6960
  166SAPE   H9R18707   2.516   0.922   7.488 -0.1439  0.1811  0.6419
  166SAPE  C21018708   2.628   0.731   7.423  0.0616  0.7662  0.5594
  166SAPE  H10R18709   2.702   0.741   7.505  0.4544 -0.2072  0.3410
  166SAPE  H10S18710   2.685   0.697   7.333 -1.7268 -0.1033 -0.2932
  166SAPE  C21118711   2.517   0.636   7.457 -0.0452 -0.4321  0.3311
  166SAPE  H11R18712   2.437   0.639   7.381 -0.8754  1.2236  1.2066
  166SAPE  C21218713   2.518   0.542   7.551  0.5803  0.1316 -0.0457
  166SAPE  H12R18714   2.439   0.466   7.552  0.6800 -0.0258 -1.4768
  166SAPE  C21318715   2.619   0.530   7.658  0.3082 -0.0775 -0.5767
  166SAPE  H13R18716   2.632   0.631   7.703 -2.2512  0.5090 -0.9707
  166SAPE  H13S18717   2.716   0.512   7.608  0.7812  1.6940 -0.3726
  166SAPE  C21418718   2.590   0.438   7.772  0.3412  0.7588 -0.2545
  166SAPE  H14R18719   2.661   0.354   7.776  0.9128  1.1425 -1.7792
  166SAPE  C21518720   2.499   0.459   7.867 -0.2689 -0.0590 -0.7173
  166SAPE  H15R18721   2.490   0.379   7.942  0.4122  1.3247  0.9028
  166SAPE  C21618722   2.404   0.576   7.887 -0.3676  0.7539  0.8888
  166SAPE  H16R18723   2.347   0.610   7.798  0.6917 -2.3553 -1.1296
  166SAPE  H16S18724   2.472   0.659   7.914  1.5463 -1.1857  2.3868
  166SAPE  C21718725   2.295   0.568   7.998 -0.7660 -0.3953 -1.0850
  166SAPE  H17R18726   2.232   0.478   7.978  0.9366 -1.7764 -0.5008
  166SAPE  H17S18727   2.220   0.650   7.996 -0.9159 -0.5159 -0.6341
  166SAPE  C21818728   2.357   0.568   8.136 -0.3765  0.0318 -0.1906
  166SAPE  H18R18729   2.405   0.665   8.162 -0.2947  0.8295 -3.0078
  166SAPE  H18S18730   2.442   0.498   8.125  1.4866  2.4789 -3.0424
  166SAPE  C21918731   2.256   0.514   8.242 -0.7297 -0.0760 -0.2118
  166SAPE  H19R18732   2.219   0.414   8.210  0.1411 -0.8190  0.9979
  166SAPE  H19S18733   2.176   0.589   8.259 -0.1928  0.8079 -1.4651
  166SAPE  C22018734   2.337   0.482   8.371  0.1822 -0.6139  0.3106
  166SAPE  H20R18735   2.363   0.572   8.430  0.2388 -0.5559  0.1977
  166SAPE  H20S18736   2.428   0.421   8.352 -0.0912 -1.6601  2.0742
  166SAPE  H20T18737   2.277   0.422   8.442  1.0330 -1.6688  0.1696
  166SAPE   C3318738   2.094   1.276   6.989  0.6559 -0.4574 -0.9098
  166SAPE   H3X18739   2.016   1.221   7.046  1.0231  0.7732  0.8488
  166SAPE   H3Y18740   2.042   1.348   6.922 -2.1019 -1.6602 -0.1971
  166SAPE   C3418741   2.180   1.354   7.099 -0.2426 -0.3252 -0.4057
  166SAPE   H4X18742   2.109   1.425   7.148 -0.2559  0.4154 -1.4598
  166SAPE   H4Y18743   2.251   1.422   7.048  0.4364 -0.0044  0.9066
  166SAPE   C3518744   2.246   1.259   7.199 -0.0673  0.0188  0.1231
  166SAPE   H5X18745   2.313   1.183   7.152 -0.7331 -0.9724  0.7559
  166SAPE   H5Y18746   2.176   1.198   7.259 -1.4778  1.5641  0.0838
  166SAPE   C3618747   2.334   1.342   7.296  0.2516  0.9380  0.0757
  166SAPE   H6X18748   2.268   1.421   7.338  1.7250  1.7460  0.9430
  166SAPE   H6Y18749   2.415   1.398   7.244  0.7217  1.1448  1.0127
  166SAPE   C3718750   2.401   1.264   7.409 -0.0964 -0.4163  0.0698
  166SAPE   H7X18751   2.447   1.342   7.474 -0.7360 -1.0461  1.3206
  166SAPE   H7Y18752   2.479   1.199   7.363  0.5973  1.6265 -1.8499
  166SAPE   C3818753   2.304   1.188   7.493  0.2248  0.1093 -0.3644
  166SAPE   H8X18754   2.286   1.097   7.431  2.5516 -0.2322 -0.6533
  166SAPE   H8Y18755   2.205   1.235   7.503  0.5694  0.4500  2.1492
  166SAPE   C3918756   2.364   1.145   7.628  0.3321  0.3528  0.0254
  166SAPE   H9X18757   2.354   1.219   7.710  1.7359  0.4019  0.1708
  166SAPE   H9Y18758   2.472   1.138   7.604  0.0424 -2.0903 -0.8178
  166SAPE  C31018759   2.327   1.008   7.694 -0.4002 -0.6203  0.8588
  166SAPE  H10X18760   2.348   0.938   7.610 -1.9817  0.5696 -0.6111
  166SAPE  H10Y18761   2.219   1.006   7.719 -0.2208  1.2624  1.9614
  166SAPE  C31118762   2.417   0.980   7.816 -0.5505 -0.5946  0.0491
  166SAPE  H11X18763   2.516   1.021   7.788 -0.2649 -1.9654 -1.0397
  166SAPE  H11Y18764   2.417   0.872   7.842 -0.3118 -0.9445 -1.3606
  166SAPE  C31218765   2.365   1.061   7.945  0.3169  0.1888  0.0220
  166SAPE  H12X18766   2.272   1.008   7.973  0.4559 -0.2226 -0.2794
  166SAPE  H12Y18767   2.333   1.161   7.910 -2.4668 -1.4632 -2.6263
  166SAPE  C31318768   2.461   1.054   8.067 -0.2695 -0.8515  0.1670
  166SAPE  H13X18769   2.547   1.123   8.049  0.0954 -1.5601 -0.9266
  166SAPE  H13Y18770   2.497   0.950   8.082 -0.9300 -1.1173 -0.0648
  166SAPE  C31418771   2.402   1.104   8.202  0.5532 -0.4030  0.7874
  166SAPE  H14X18772   2.313   1.043   8.228 -0.7817  1.2030  0.1753
  166SAPE  H14Y18773   2.360   1.207   8.196 -0.3841 -0.7596  1.0864
  166SAPE  C31518774   2.495   1.097   8.325  0.5238 -0.0709  0.2326
  166SAPE  H15X18775   2.422   1.110   8.408 -2.0061 -2.2463 -1.5012
  166SAPE  H15Y18776   2.560   1.187   8.318  1.1812 -0.4875  0.8695
  166SAPE  C31618777   2.566   0.957   8.337 -0.6222  0.4711  0.1100
  166SAPE  H16X18778   2.641   0.940   8.257 -0.3393  2.3946 -0.0849
  166SAPE  H16Y18779   2.483   0.884   8.331  0.0237 -0.2260 -0.6635
  166SAPE  C31718780   2.643   0.955   8.461 -0.5375 -0.2971 -0.1051
  166SAPE  H17X18781   2.680   0.853   8.484  1.3014 -0.0688 -1.7287
  166SAPE  H17Y18782   2.574   0.985   8.543  0.5307 -1.1992  1.1692
  166SAPE  C31818783   2.757   1.051   8.456 -0.4679  0.3230  0.8078
  166SAPE  H18X18784   2.815   1.051   8.361  0.2236  1.8146  1.2042
  166SAPE  H18Y18785   2.828   1.033   8.540 -2.5283 -0.4918  2.4741
  166SAPE  H18Z18786   2.721   1.153   8.481 -0.8716  0.1253  1.0468
  167SAPE     N18787   3.037   0.963   6.517  0.3679  0.0043 -0.3757
  167SAPE   HN118788   2.964   0.890   6.504 -0.4349  0.6102  0.5898
  167SAPE   HN218789   3.109   0.924   6.581 -1.4111 -3.5396 -0.2741
  167SAPE   HN318790   2.992   1.046   6.561  1.3067  0.3687 -0.0779
  167SAPE   C1218791   3.099   0.983   6.382  0.5055 -0.3917 -0.4986
  167SAPE  H12A18792   3.128   1.090   6.376 -0.2174 -0.1722 -0.1343
  167SAPE  H12B18793   3.014   0.966   6.313 -1.0051  2.2436  0.5645
  167SAPE   C1118794   3.212   0.891   6.365 -0.7732  0.4463  0.9769
  167SAPE  H11A18795   3.287   0.909   6.445  0.1767  1.5092 -0.1091
  167SAPE  H11B18796   3.260   0.919   6.269 -0.6205 -0.4918  0.7718
  167SAPE     P18797   3.246   0.638   6.277  0.2182 -0.4617  0.3215
  167SAPE   O1318798   3.139   0.542   6.240 -0.0064 -0.6109 -0.3225
  167SAPE   O1418799   3.334   0.691   6.168 -0.0499 -0.0362  0.2249
  167SAPE   O1218800   3.172   0.753   6.356  0.5830  0.5381 -0.2981
  167SAPE   O1118801   3.331   0.569   6.387 -0.7074 -0.3171  0.2692
  167SAPE    C118802   3.269   0.525   6.509  0.5211 -0.5023  0.0507
  167SAPE    HA18803   3.158   0.519   6.501  0.4366  1.0684 -0.4072
  167SAPE    HB18804   3.308   0.425   6.536  1.9095  0.4272  1.6788
  167SAPE    C218805   3.298   0.618   6.624 -0.8182  0.1901  0.6960
  167SAPE    HS18806   3.303   0.718   6.577 -0.9123  0.6187  1.5646
  167SAPE   O2118807   3.416   0.570   6.690 -0.0878  0.8452  0.5269
  167SAPE   C2118808   3.499   0.667   6.710  0.1045  0.1176  0.2725
  167SAPE   O2218809   3.485   0.785   6.671  0.0730  0.2498  0.6193
  167SAPE   C2218810   3.620   0.611   6.781 -0.0395 -1.1975  0.1535
  167SAPE   H2R18811   3.597   0.536   6.858 -0.7242  0.2095  1.3722
  167SAPE   H2S18812   3.698   0.581   6.708  0.8924  2.1495 -0.4042
  167SAPE    C318813   3.176   0.615   6.721 -0.2315 -0.4190 -0.2015
  167SAPE    HX18814   3.156   0.506   6.731 -1.0350 -0.2972 -0.4498
  167SAPE    HY18815   3.088   0.669   6.682 -1.0871  0.6774  2.9128
  167SAPE   O3118816   3.212   0.672   6.850  0.3842  0.0134  0.1472
  167SAPE   C3118817   3.114   0.736   6.915  0.3396  0.1747  0.0795
  167SAPE   O3218818   3.000   0.759   6.868  0.3077  0.9253 -0.4780
  167SAPE   C3218819   3.157   0.795   7.052 -0.1100 -0.3559  0.3469
  167SAPE   H2X18820   3.149   0.903   7.030  0.3158 -0.4635 -0.3921
  167SAPE   H2Y18821   3.262   0.768   7.079 -0.1139 -0.2329  0.4826
  167SAPE   C2318822   3.697   0.714   6.876 -0.1855 -0.5196  0.5725
  167SAPE   H3R18823   3.737   0.801   6.820 -1.5137  1.1148  2.0481
  167SAPE   H3S18824   3.789   0.664   6.912 -0.5748 -0.5480  1.5583
  167SAPE   C2418825   3.601   0.766   6.986  1.2671  0.3848 -0.6216
  167SAPE   H4R18826   3.569   0.673   7.038 -0.0459  0.2112 -1.6653
  167SAPE   H4S18827   3.513   0.811   6.934  0.1601 -1.3167 -0.3130
  167SAPE   C2518828   3.667   0.865   7.077  1.0076 -0.3501 -0.2454
  167SAPE   H5R18829   3.714   0.954   7.034 -0.1711  0.7702  0.7029
  167SAPE   C2618830   3.682   0.851   7.207  0.3866  0.4881 -0.1383
  167SAPE   H6R18831   3.733   0.938   7.251  0.1443  0.3301  0.4662
  167SAPE   C2718832   3.642   0.743   7.307  0.2084  0.3325  0.5862
  167SAPE   H7R18833   3.607   0.651   7.255 -0.1190  1.8424 -2.0303
  167SAPE   H7S18834   3.557   0.779   7.369  0.3609  1.9738 -0.0847
  167SAPE   C2818835   3.755   0.700   7.393  0.1304  0.3292 -0.2029
  167SAPE   H8R18836   3.847   0.666   7.343  0.1333  0.0013  0.0249
  167SAPE   C2918837   3.760   0.696   7.526 -0.1260 -0.3465  0.5616
  167SAPE   H9R18838   3.845   0.645   7.572  2.5417  2.0821 -1.3409
  167SAPE  C21018839   3.657   0.731   7.631  0.6682  0.3029  1.0162
  167SAPE  H10R18840   3.610   0.635   7.661  2.1081 -0.2761  1.5296
  167SAPE  H10S18841   3.585   0.804   7.590  0.7911  1.7209  3.1884
  167SAPE  C21118842   3.710   0.802   7.753 -0.7692 -0.2865 -0.4875
  167SAPE  H11R18843   3.685   0.908   7.773 -0.0563 -0.4979  1.7808
  167SAPE  C21218844   3.803   0.751   7.840  0.1202  0.4024  0.7318
  167SAPE  H12R18845   3.819   0.805   7.934 -0.3328  0.8011  0.5893
  167SAPE  C21318846   3.869   0.619   7.841 -0.7310 -0.0904 -0.4298
  167SAPE  H13R18847   3.934   0.614   7.931  0.1523  0.7000 -1.0041
  167SAPE  H13S18848   3.943   0.605   7.759 -0.4719  0.8214 -0.3640
  167SAPE  C21418849   3.765   0.504   7.850  0.4697  0.3198  0.3986
  167SAPE  H14R18850   3.712   0.463   7.764  0.3978 -1.5137  1.2676
  167SAPE  C21518851   3.736   0.439   7.966 -0.0344  0.0200  0.2621
  167SAPE  H15R18852   3.661   0.359   7.957  0.6734 -0.6618  0.2409
  167SAPE  C21618853   3.776   0.457   8.106 -1.1662 -0.4176 -0.2313
  167SAPE  H16R18854   3.708   0.525   8.161  0.4605  0.7910  0.3543
  167SAPE  H16S18855   3.878   0.501   8.106  0.4855 -3.8669 -1.1478
  167SAPE  C21718856   3.786   0.326   8.178 -0.0801  0.1316 -0.0844
  167SAPE  H17R18857   3.832   0.248   8.112  1.1281  2.1465 -1.7533
  167SAPE  H17S18858   3.682   0.299   8.208 -0.3674  2.4289  1.2266
  167SAPE  C21818859   3.872   0.328   8.309  0.3275 -0.1235  0.1165
  167SAPE  H18R18860   3.970   0.363   8.271  1.2487 -2.9465 -0.3614
  167SAPE  H18S18861   3.890   0.225   8.348  1.5878  0.4620  1.1612
  167SAPE  C21918862   3.809   0.393   8.437 -0.6915  0.1791 -0.0190
  167SAPE  H19R18863   3.700   0.373   8.433 -0.5734 -0.2833 -1.2029
  167SAPE  H19S18864   3.822   0.503   8.430 -0.4332  0.2172  0.8666
  167SAPE  C22018865   3.868   0.337   8.570 -0.5426 -0.2122  0.7493
  167SAPE  H20R18866   3.954   0.402   8.597  0.2833  0.3771 -2.8520
  167SAPE  H20S18867   3.892   0.229   8.560 -0.8099 -0.0595 -5.3473
  167SAPE  H20T18868   3.785   0.351   8.643 -2.2591 -2.9472 -0.5439
  167SAPE   C3318869   3.059   0.758   7.160 -0.5759  0.7346 -0.1233
  167SAPE   H3X18870   2.954   0.767   7.123 -1.2376 -2.4755  0.7086
  167SAPE   H3Y18871   3.071   0.836   7.239 -1.4245 -0.9784  1.7998
  167SAPE   C3418872   3.087   0.621   7.216 -0.7603  0.0357  0.1415
  167SAPE   H4X18873   3.198   0.611   7.215 -0.5274  1.6734 -2.6982
  167SAPE   H4Y18874   3.046   0.550   7.141  0.9159 -0.4302 -0.3740
  167SAPE   C3518875   3.021   0.584   7.347 -0.6599 -0.5900 -0.0520
  167SAPE   H5X18876   2.923   0.536   7.324 -0.3111 -0.5911 -1.6657
  167SAPE   H5Y18877   3.000   0.679   7.399 -1.1178 -1.6177  1.7144
  167SAPE   C3618878   3.100   0.499   7.441  0.1068  0.1153  0.0432
  167SAPE   H6X18879   3.177   0.560   7.492 -1.0910  2.7156 -1.0624
  167SAPE   H6Y18880   3.162   0.426   7.384  1.9987  2.7455 -1.4948
  167SAPE   C3718881   3.014   0.427   7.545 -0.5743  0.8125 -0.1516
  167SAPE   H7X18882   2.943   0.362   7.490  0.4521  1.5578 -2.4528
  167SAPE   H7Y18883   2.951   0.497   7.605 -0.8217  0.9951 -0.6221
  167SAPE   C3818884   3.099   0.350   7.639 -0.0006 -0.4681  0.0232
  167SAPE   H8X18885   3.170   0.412   7.697 -2.0027  2.5604 -0.5121
  167SAPE   H8Y18886   3.151   0.278   7.572 -0.9352  0.3375 -1.6479
  167SAPE   C3918887   3.009   0.282   7.740 -0.8618  0.7778  0.7649
  167SAPE   H9X18888   2.949   0.221   7.669  2.3903 -0.9045 -0.7816
  167SAPE   H9Y18889   2.957   0.369   7.786  0.9206  2.5265 -0.3722
  167SAPE  C31018890   3.086   0.197   7.843 -0.5186 -0.2426 -0.0666
  167SAPE  H10X18891   3.162   0.250   7.904 -0.3668  0.2420 -0.6674
  167SAPE  H10Y18892   3.135   0.126   7.774  0.6379  0.9757 -0.5412
  167SAPE  C31118893   3.012   0.116   7.950 -0.1558  0.1880  0.4304
  167SAPE  H11X18894   2.934   0.067   7.887  1.1523  0.6622 -1.6644
  167SAPE  H11Y18895   2.950   0.182   8.014 -3.5413 -0.6902 -1.6767
  167SAPE  C31218896   3.104   0.029   8.031 -0.8499 -0.2980 -0.7333
  167SAPE  H12X18897   3.169   0.095   8.092 -1.3388 -0.4841 -0.0021
  167SAPE  H12Y18898   3.164  -0.027   7.956  0.7296 -1.4050  1.2416
  167SAPE  C31318899   3.023  -0.050   8.129 -0.0646  0.0490  0.1804
  167SAPE  H13X18900   2.965  -0.133   8.084 -0.4953 -0.6253  1.9302
  167SAPE  H13Y18901   2.941   0.015   8.166  0.5418 -0.3856  2.3882
  167SAPE  C31418902   3.103  -0.092   8.252  0.4444  0.1475 -1.1668
  167SAPE  H14X18903   3.163  -0.006   8.289 -0.7084 -0.3176  2.1371
  167SAPE  H14Y18904   3.175  -0.170   8.220 -1.9263 -2.3405 -0.7759
  167SAPE  C31518905   3.017  -0.151   8.368  0.0103 -0.0835  0.4956
  167SAPE  H15X18906   2.916  -0.187   8.336  0.7977  0.2050 -2.6540
  167SAPE  H15Y18907   3.001  -0.066   8.437  3.5715 -0.8056  2.4432
  167SAPE  C31618908   3.087  -0.261   8.455 -0.0878 -0.7546 -0.5227
  167SAPE  H16X18909   3.172  -0.301   8.394 -0.2390 -1.3812 -0.3325
  167SAPE  H16Y18910   3.015  -0.339   8.488  0.2717 -0.2227  1.6681
  167SAPE  C31718911   3.159  -0.213   8.588  0.4840 -0.6552  0.3576
  167SAPE  H17X18912   3.185  -0.296   8.657 -0.7514 -1.2466  0.1361
  167SAPE  H17Y18913   3.082  -0.161   8.649  1.5298 -0.3025  1.4258
  167SAPE  C31818914   3.285  -0.130   8.547 -0.5153 -0.3831 -0.4018
  167SAPE  H18X18915   3.358  -0.199   8.500  2.3869  2.5400 -0.5224
  167SAPE  H18Y18916   3.320  -0.102   8.649 -2.4749 -3.4317  1.2815
  167SAPE  H18Z18917   3.262  -0.045   8.481  0.9441  1.0776  0.8768
  168SAPE     N18918   4.044   4.736   6.412 -1.4773  0.3855 -0.1938
  168SAPE   HN118919   4.018   4.692   6.322 -0.0331  0.4588 -0.6660
  168SAPE   HN218920   4.005   4.833   6.411 -2.0771  0.1519  0.1741
  168SAPE   HN318921   4.148   4.747   6.407 -1.2660 -1.7787 -2.0224
  168SAPE   C1218922   3.998   4.647   6.529  0.1107 -0.7857  0.8454
  168SAPE  H12A18923   3.893   4.674   6.551 -0.2685 -1.4243 -0.1374
  168SAPE  H12B18924   4.054   4.676   6.621 -0.3027  2.2750  0.2493
  168SAPE   C1118925   4.025   4.500   6.494 -0.3232  0.1669 -0.0279
  168SAPE  H11A18926   3.963   4.471   6.407 -1.3149  1.0922  0.3504
  168SAPE  H11B18927   3.990   4.439   6.580  0.2606 -1.3221 -0.8156
  168SAPE     P18928   4.278   4.448   6.572  0.3710  0.3748  0.2646
  168SAPE   O1318929   4.359   4.348   6.499 -0.0314 -0.4499  0.0625
  168SAPE   O1418930   4.342   4.573   6.617 -0.0041  0.2786  0.0068
  168SAPE   O1218931   4.164   4.487   6.469 -0.0939  0.7597 -0.2244
  168SAPE   O1118932   4.189   4.379   6.678  0.1421 -0.4478 -0.0616
  168SAPE    C118933   4.179   4.236   6.691 -0.1427 -0.1104 -0.1979
  168SAPE    HA18934   4.276   4.181   6.685  0.0753 -0.0389  1.8539
  168SAPE    HB18935   4.144   4.218   6.795 -1.8654  4.3867  0.2043
  168SAPE    C218936   4.076   4.173   6.596 -0.2553  0.9141 -0.0143
  168SAPE    HS18937   4.091   4.215   6.494 -1.7553 -1.5598 -1.3645
  168SAPE   O2118938   3.945   4.206   6.645 -0.0179 -0.3371  0.1125
  168SAPE   C2118939   3.854   4.196   6.548  0.6396  0.1217  0.1655
  168SAPE   O2218940   3.874   4.188   6.424 -0.4797  0.2646 -0.0524
  168SAPE   C2218941   3.714   4.186   6.618 -0.1469  0.6399 -0.3407
  168SAPE   H2R18942   3.642   4.243   6.556  0.4374  1.5804 -0.1652
  168SAPE   H2S18943   3.690   4.078   6.603  0.3516  0.4637  0.0565
  168SAPE    C318944   4.093   4.026   6.566 -0.1939  0.7073 -0.5795
  168SAPE    HX18945   4.184   3.986   6.516 -0.9895 -1.5278 -0.3445
  168SAPE    HY18946   4.002   3.996   6.510 -0.0154 -3.1461  0.8297
  168SAPE   O3118947   4.092   3.959   6.699 -0.3841  0.2484  0.5259
  168SAPE   C3118948   3.971   3.916   6.738 -0.4602 -0.3504 -0.2139
  168SAPE   O3218949   3.871   3.900   6.669  0.1627 -0.0932 -0.2347
  168SAPE   C3218950   3.971   3.900   6.890  0.1291  0.4986  0.3305
  168SAPE   H2X18951   3.910   3.813   6.925  0.1149  0.4302  0.1334
  168SAPE   H2Y18952   3.920   3.991   6.928  0.8390  0.8470  0.4620
  168SAPE   C2318953   3.708   4.211   6.776 -0.0176 -0.0153  0.3763
  168SAPE   H3R18954   3.741   4.316   6.796 -0.8610  0.0504  1.5191
  168SAPE   H3S18955   3.782   4.144   6.825  1.9618  2.3683  0.8705
  168SAPE   C2418956   3.572   4.178   6.827  0.6315 -0.1042 -0.6344
  168SAPE   H4R18957   3.539   4.072   6.824  0.3367 -0.1233  1.7747
  168SAPE   H4S18958   3.498   4.229   6.762 -0.6264  1.3695  1.7996
  168SAPE   C2518959   3.545   4.231   6.968  0.3012 -0.8463  0.7209
  168SAPE   H5R18960   3.566   4.337   6.989  2.0424 -1.0471  0.1273
  168SAPE   C2618961   3.526   4.160   7.075 -0.0453  0.1545 -0.3376
  168SAPE   H6R18962   3.528   4.214   7.171  2.2147 -1.0354  0.3433
  168SAPE   C2718963   3.511   4.011   7.085  0.3150  0.3777 -0.0138
  168SAPE   H7R18964   3.431   3.976   7.016  1.0552  0.7714 -1.0985
  168SAPE   H7S18965   3.472   4.001   7.189  0.6534 -0.4604  0.0381
  168SAPE   C2818966   3.639   3.928   7.072 -0.2706  0.6722  0.6250
  168SAPE   H8R18967   3.693   3.939   6.977  1.8939  2.4938  1.9800
  168SAPE   C2918968   3.676   3.834   7.165 -0.6472  0.6668  0.7053
  168SAPE   H9R18969   3.771   3.781   7.147 -0.6590  0.7993  0.2389
  168SAPE  C21018970   3.598   3.788   7.294 -0.2804  0.5063  0.4395
  168SAPE  H10R18971   3.566   3.878   7.351 -0.2447  0.2383  0.8913
  168SAPE  H10S18972   3.661   3.719   7.354 -0.0733  1.3085  1.1634
  168SAPE  C21118973   3.466   3.713   7.274  1.3166 -0.0009 -0.4273
  168SAPE  H11R18974   3.456   3.684   7.169  0.7254 -1.7342  0.0824
  168SAPE  C21218975   3.374   3.678   7.365  0.8816 -0.4680 -0.6709
  168SAPE  H12R18976   3.285   3.627   7.324 -0.2964  0.8984  0.0906
  168SAPE  C21318977   3.372   3.708   7.512  0.5050  0.4623  0.4214
  168SAPE  H13R18978   3.282   3.770   7.531 -0.6315 -0.2440 -2.2167
  168SAPE  H13S18979   3.465   3.757   7.547  0.6719  0.2048  0.3461
  168SAPE  C21418980   3.372   3.578   7.590  0.6209 -0.0746  0.0251
  168SAPE  H14R18981   3.475   3.537   7.593  0.7443  0.2660  2.8409
  168SAPE  C21518982   3.276   3.533   7.674 -0.0237  0.3617 -0.0912
  168SAPE  H15R18983   3.294   3.443   7.734 -1.4280 -0.2215 -0.5006
  168SAPE  C21618984   3.139   3.589   7.687 -0.6055 -0.1380 -0.1973
  168SAPE  H16R18985   3.063   3.508   7.686  0.4984 -1.1978 -0.7220
  168SAPE  H16S18986   3.110   3.660   7.607  0.2429  0.7295  0.2482
  168SAPE  C21718987   3.142   3.675   7.812  0.6567  0.6071  0.3235
  168SAPE  H17R18988   3.052   3.740   7.816 -0.2667 -0.5031 -1.1729
  168SAPE  H17S18989   3.230   3.743   7.816  0.6111  0.7204 -0.3723
  168SAPE  C21818990   3.129   3.592   7.941 -0.5462  0.3509 -0.1127
  168SAPE  H18R18991   3.220   3.530   7.955  0.3898  1.4783 -1.0666
  168SAPE  H18S18992   3.042   3.523   7.933  1.0347 -1.7200 -0.2873
  168SAPE  C21918993   3.128   3.682   8.064 -0.4331 -0.3438 -0.1573
  168SAPE  H19R18994   3.043   3.751   8.047  0.3238  0.4158 -0.9709
  168SAPE  H19S18995   3.221   3.743   8.060 -0.9052  0.3971  0.0132
  168SAPE  C22018996   3.123   3.607   8.195 -0.6039 -0.0886 -0.6611
  168SAPE  H20R18997   3.028   3.559   8.228 -0.4063  1.1811  2.0158
  168SAPE  H20S18998   3.157   3.669   8.281  0.3139 -0.1407 -0.9800
  168SAPE  H20T18999   3.192   3.521   8.182 -1.2784 -0.6060 -0.8807
  168SAPE   C3319000   4.110   3.879   6.966  0.0415 -0.5523 -0.0105
  168SAPE   H3X19001   4.164   3.974   6.951 -0.8269  0.4747  2.7896
  168SAPE   H3Y19002   4.159   3.798   6.906  2.2242  1.9754 -1.8638
  168SAPE   C3419003   4.091   3.849   7.111 -0.2149  0.7556 -0.0388
  168SAPE   H4X19004   4.187   3.819   7.157 -1.4720 -0.8457  1.7166
  168SAPE   H4Y19005   4.033   3.754   7.118 -1.5214  1.2123 -3.1467
  168SAPE   C3519006   4.020   3.954   7.201 -0.2741 -0.4183 -0.3286
  168SAPE   H5X19007   3.933   3.996   7.146 -0.8193  1.3485  1.7384
  168SAPE   H5Y19008   4.084   4.041   7.225 -0.0723 -0.6617  0.0273
  168SAPE   C3619009   3.977   3.903   7.341  0.5601 -0.1837  0.2167
  168SAPE   H6X19010   4.071   3.871   7.390  2.1673  2.1126 -1.1593
  168SAPE   H6Y19011   3.924   3.806   7.327  0.5928 -0.2210  0.3518
  168SAPE   C3719012   3.893   4.011   7.408  0.5222  0.4415  0.1403
  168SAPE   H7X19013   3.792   4.019   7.363  0.0476  0.7175  1.2319
  168SAPE   H7Y19014   3.939   4.112   7.417 -1.7581  1.8220 -2.3892
  168SAPE   C3819015   3.889   3.977   7.559 -0.3108  0.3204  0.2537
  168SAPE   H8X19016   3.992   3.953   7.592 -0.4339 -0.8581 -0.1455
  168SAPE   H8Y19017   3.818   3.891   7.560 -1.4526  1.2332  0.6021
  168SAPE   C3919018   3.837   4.088   7.644  0.3349  0.6176  0.1562
  168SAPE   H9X19019   3.736   4.118   7.607 -1.1214 -0.1696  3.1801
  168SAPE   H9Y19020   3.903   4.177   7.644  1.0057  0.1259  0.6797
  168SAPE  C31019021   3.824   4.030   7.791 -0.1060  0.6276  0.4110
  168SAPE  H10X19022   3.836   4.116   7.860 -2.2017  1.9144 -0.7358
  168SAPE  H10Y19023   3.918   3.975   7.815 -1.0536 -0.2680  2.2753
  168SAPE  C31119024   3.713   3.931   7.814 -0.5263  0.8029  0.2479
  168SAPE  H11X19025   3.749   3.851   7.883  0.1030  0.0262 -0.9522
  168SAPE  H11Y19026   3.698   3.855   7.735 -0.2275 -0.1330  1.0772
  168SAPE  C31219027   3.582   3.990   7.859  1.0187  0.8140 -0.1452
  168SAPE  H12X19028   3.535   4.072   7.800 -1.0592  0.5329  1.0270
  168SAPE  H12Y19029   3.596   4.031   7.962 -0.1822  1.7229 -0.3238
  168SAPE  C31319030   3.470   3.876   7.858  0.0802  0.1067  0.5997
  168SAPE  H13X19031   3.441   3.853   7.753  1.8323  2.6995 -0.5902
  168SAPE  H13Y19032   3.380   3.908   7.914 -0.0234 -0.9482  1.0490
  168SAPE  C31419033   3.509   3.739   7.922  0.6751  0.4375  0.0351
  168SAPE  H14X19034   3.600   3.701   7.870  1.5503  1.5802  0.6608
  168SAPE  H14Y19035   3.418   3.676   7.917  0.7895  0.0858  1.7268
  168SAPE  C31519036   3.548   3.747   8.074 -0.2237 -0.2475 -0.1687
  168SAPE  H15X19037   3.492   3.831   8.121  0.2427  0.3716 -0.6947
  168SAPE  H15Y19038   3.656   3.770   8.089 -0.6627  1.6284  0.3924
  168SAPE  C31619039   3.507   3.617   8.149  0.6659  0.2740 -0.0666
  168SAPE  H16X19040   3.567   3.529   8.119 -0.1125  0.0183 -0.9103
  168SAPE  H16Y19041   3.403   3.601   8.113  1.9178 -2.2699 -2.9770
  168SAPE  C31719042   3.524   3.631   8.300  0.2869 -0.0286  0.3443
  168SAPE  H17X19043   3.443   3.567   8.340 -0.1539 -0.0287 -0.5220
  168SAPE  H17Y19044   3.484   3.732   8.320 -0.3340  0.1723 -1.6671
  168SAPE  C31819045   3.667   3.600   8.345  0.4247 -0.5368  0.1199
  168SAPE  H18X19046   3.690   3.491   8.341 -2.1066 -1.1707  0.9003
  168SAPE  H18Y19047   3.675   3.613   8.455 -1.8300 -2.4253  0.5874
  168SAPE  H18Z19048   3.743   3.662   8.293  0.2954 -0.7088 -0.2828
  169SAPE     N19049   3.633   4.469   6.114  0.0496 -0.2291  0.1944
  169SAPE   HN119050   3.709   4.521   6.067  1.3075 -2.1198 -0.0095
  169SAPE   HN219051   3.554   4.456   6.047 -0.8021 -1.3143  1.3399
  169SAPE   HN319052   3.603   4.529   6.193  0.1421 -2.6766  2.2213
  169SAPE   C1219053   3.690   4.341   6.163 -0.0736 -0.0096  0.8311
  169SAPE  H12A19054   3.783   4.363   6.220  0.9054 -0.5924 -0.5047
  169SAPE  H12B19055   3.723   4.280   6.076 -0.8234  1.2267 -0.3693
  169SAPE   C1119056   3.592   4.266   6.253 -0.5481 -0.1354  0.1541
  169SAPE  H11A19057   3.555   4.328   6.337 -0.0946 -0.2770  0.4588
  169SAPE  H11B19058   3.646   4.179   6.295 -0.8480 -0.1072  0.6086
  169SAPE     P19059   3.402   4.095   6.218  0.2758  0.0183  0.3448
  169SAPE   O1319060   3.286   4.075   6.133  0.3823 -0.0624 -0.4267
  169SAPE   O1419061   3.500   3.985   6.229  0.3246 -0.4904 -0.2689
  169SAPE   O1219062   3.482   4.228   6.173 -0.1027 -0.4778 -0.4202
  169SAPE   O1119063   3.351   4.124   6.365 -0.4398 -0.1115  0.2588
  169SAPE    C119064   3.261   4.233   6.385  0.3605 -0.8957  0.3108
  169SAPE    HA19065   3.294   4.327   6.337  0.4143 -0.7471  0.6335
  169SAPE    HB19066   3.159   4.208   6.349 -0.8727  1.9779  1.4548
  169SAPE    C219067   3.229   4.262   6.537 -0.0460  0.2053  0.0648
  169SAPE    HS19068   3.132   4.316   6.538  0.9728  2.1207  0.6245
  169SAPE   O2119069   3.328   4.367   6.594 -0.0054  0.3141  0.7607
  169SAPE   C2119070   3.323   4.488   6.541  0.3923 -0.6068  0.8528
  169SAPE   O2219071   3.242   4.527   6.461  0.5373 -0.0234  0.0171
  169SAPE   C2219072   3.420   4.571   6.620  0.4670  0.0513  0.2236
  169SAPE   H2R19073   3.525   4.556   6.586  0.7070 -0.8337  1.3054
  169SAPE   H2S19074   3.388   4.677   6.610 -0.3774 -0.1223  0.9842
  169SAPE    C319075   3.227   4.128   6.619  0.2144 -0.2099 -0.6732
  169SAPE    HX19076   3.334   4.101   6.630  0.4876  0.7045 -0.9986
  169SAPE    HY19077   3.163   4.056   6.563 -2.0561  0.4591  0.9227
  169SAPE   O3119078   3.166   4.166   6.742 -0.2992  0.2031 -0.3651
  169SAPE   C3119079   3.177   4.073   6.835  0.1767  0.3009  0.7569
  169SAPE   O3219080   3.239   3.970   6.822 -0.1882  0.6199  0.3407
  169SAPE   C3219081   3.104   4.118   6.963 -0.5888  0.0360  0.6855
  169SAPE   H2X19082   2.999   4.088   6.943 -0.3047 -0.0982 -0.6763
  169SAPE   H2Y19083   3.105   4.228   6.975  0.4826 -0.0253  1.2827
  169SAPE   C2319084   3.428   4.549   6.777  0.0272  0.0734 -0.1269
  169SAPE   H3R19085   3.489   4.459   6.797  3.3486  2.8102  3.9014
  169SAPE   H3S19086   3.331   4.528   6.827 -0.3085  1.2159 -0.2594
  169SAPE   C2419087   3.477   4.672   6.857  0.6120  0.1430 -0.7576
  169SAPE   H4R19088   3.576   4.686   6.809  0.3097  0.0755 -1.4153
  169SAPE   H4S19089   3.490   4.639   6.962 -2.7021  1.2905  0.1376
  169SAPE   C2519090   3.381   4.795   6.844 -1.0029  0.6676  0.1077
  169SAPE   H5R19091   3.389   4.838   6.743  1.6984  1.3517  0.5465
  169SAPE   C2619092   3.303   4.841   6.939  0.3682  0.0131  0.0152
  169SAPE   H6R19093   3.232   4.919   6.908 -0.1915 -0.9620 -1.2753
  169SAPE   C2719094   3.305   4.780   7.074  0.2857  0.2783 -0.5885
  169SAPE   H7R19095   3.400   4.803   7.126  0.9669  0.3988 -1.8447
  169SAPE   H7S19096   3.299   4.669   7.075  1.4635  0.2116  0.3260
  169SAPE   C2819097   3.183   4.808   7.159  0.1298 -0.3989  0.5333
  169SAPE   H8R19098   3.090   4.780   7.108  0.5843  0.9081 -1.1017
  169SAPE   C2919099   3.180   4.847   7.284  0.1291  0.2058 -0.3053
  169SAPE   H9R19100   3.084   4.882   7.324  0.3762 -2.6313  3.2278
  169SAPE  C21019101   3.294   4.862   7.379  0.3754 -0.2297  0.2562
  169SAPE  H10R19102   3.302   4.969   7.407 -0.5525  0.1963 -0.9829
  169SAPE  H10S19103   3.391   4.839   7.330  0.5105 -1.1733  0.9265
  169SAPE  C21119104   3.293   4.760   7.489 -0.5551  0.2681 -0.1265
  169SAPE  H11R19105   3.293   4.799   7.592 -0.6007  0.7553 -0.3045
  169SAPE  C21219106   3.318   4.627   7.494  0.0079 -0.0980  0.8926
  169SAPE  H12R19107   3.302   4.575   7.589  0.4670  2.0994  2.2583
  169SAPE  C21319108   3.350   4.545   7.372 -0.3454  0.7560  0.5279
  169SAPE  H13R19109   3.421   4.602   7.308 -2.0359 -0.1655 -2.3294
  169SAPE  H13S19110   3.266   4.539   7.301  1.1132 -1.7324 -1.1217
  169SAPE  C21419111   3.398   4.405   7.391 -0.7733  0.0609 -0.0440
  169SAPE  H14R19112   3.313   4.336   7.395 -1.7280  1.2383  1.0414
  169SAPE  C21519113   3.520   4.358   7.423 -0.4050  0.3547 -0.1599
  169SAPE  H15R19114   3.525   4.249   7.432  1.3336  0.4452  0.2966
  169SAPE  C21619115   3.646   4.438   7.434  0.2078 -0.3826  0.5012
  169SAPE  H16R19116   3.613   4.544   7.426  0.5008 -0.2926  0.4579
  169SAPE  H16S19117   3.705   4.409   7.344 -0.9756 -0.7735 -0.1694
  169SAPE  C21719118   3.746   4.428   7.554  0.8866 -0.4288  0.0800
  169SAPE  H17R19119   3.824   4.508   7.554  1.0210 -0.5437 -0.8175
  169SAPE  H17S19120   3.813   4.343   7.527  1.0931 -0.0456 -0.6610
  169SAPE  C21819121   3.676   4.409   7.687  0.1533 -0.5365  0.1478
  169SAPE  H18R19122   3.644   4.303   7.697 -1.8924  0.0264  0.0235
  169SAPE  H18S19123   3.592   4.482   7.689  2.7371  2.7542 -1.5046
  169SAPE  C21919124   3.762   4.423   7.814 -0.0002  0.0995  0.4044
  169SAPE  H19R19125   3.824   4.513   7.795  0.3524  0.3246  2.3449
  169SAPE  H19S19126   3.826   4.332   7.823 -2.7205 -1.8540  1.9518
  169SAPE  C22019127   3.668   4.444   7.937  0.0522  0.4190 -0.0898
  169SAPE  H20R19128   3.612   4.540   7.938 -0.7415 -0.0209 -0.9373
  169SAPE  H20S19129   3.731   4.439   8.029 -1.8250 -0.3849  1.2215
  169SAPE  H20T19130   3.595   4.362   7.954 -1.0146  1.3773  0.0687
  169SAPE   C3319131   3.145   4.036   7.090  0.1191  0.2638  0.3024
  169SAPE   H3X19132   3.253   4.048   7.112 -0.3864  0.9456  2.7127
  169SAPE   H3Y19133   3.117   3.931   7.067  1.0026  0.3741 -1.4447
  169SAPE   C3419134   3.076   4.080   7.233  0.3669 -0.4866  0.7837
  169SAPE   H4X19135   2.966   4.067   7.227  0.2235  0.6718  0.7655
  169SAPE   H4Y19136   3.095   4.189   7.245 -0.3659 -0.3470  0.6893
  169SAPE   C3519137   3.127   4.011   7.361 -0.2319  0.2641 -0.2437
  169SAPE   H5X19138   3.231   3.979   7.340 -0.3510 -1.0210  0.9650
  169SAPE   H5Y19139   3.069   3.920   7.385 -0.3005  0.6028  0.9445
  169SAPE   C3619140   3.129   4.101   7.484  0.7259 -0.7374 -0.7021
  169SAPE   H6X19141   3.022   4.124   7.507  0.4942 -1.9631 -0.4741
  169SAPE   H6Y19142   3.180   4.197   7.465  0.1888 -0.1215  0.8088
  169SAPE   C3719143   3.187   4.030   7.615  0.0045  0.6101  0.1189
  169SAPE   H7X19144   3.296   4.018   7.602  0.1432  1.2373  0.6697
  169SAPE   H7Y19145   3.135   3.932   7.622  0.2787  0.4997  0.6391
  169SAPE   C3819146   3.167   4.107   7.744  0.4936  0.1530 -0.1573
  169SAPE   H8X19147   3.192   4.038   7.827 -0.3838  0.3351  0.2694
  169SAPE   H8Y19148   3.062   4.139   7.766  1.2025  0.8884  2.4984
  169SAPE   C3919149   3.257   4.229   7.755 -0.4134 -0.5535  0.7992
  169SAPE   H9X19150   3.216   4.297   7.678 -0.5214  0.8705  2.0646
  169SAPE   H9Y19151   3.363   4.205   7.731  0.6070  3.7646  0.1829
  169SAPE  C31019152   3.233   4.306   7.884 -0.6396 -0.8177  0.3130
  169SAPE  H10X19153   3.124   4.309   7.902 -0.4778  1.0623  1.2608
  169SAPE  H10Y19154   3.259   4.414   7.874 -1.0508 -0.8083 -0.7640
  169SAPE  C31119155   3.301   4.252   8.007  0.0349 -0.0870  0.1507
  169SAPE  H11X19156   3.405   4.222   7.980 -0.5885 -1.5752 -0.7848
  169SAPE  H11Y19157   3.252   4.157   8.036 -2.0490  1.0368  0.4949
  169SAPE  C31219158   3.297   4.355   8.117 -0.8281 -0.2816 -0.5317
  169SAPE  H12X19159   3.198   4.403   8.130  0.1011  1.2816  1.3136
  169SAPE  H12Y19160   3.378   4.431   8.107 -1.1630  0.2390  0.5775
  169SAPE  C31319161   3.347   4.277   8.250 -0.7556 -0.2130 -0.1692
  169SAPE  H13X19162   3.275   4.193   8.243 -2.2053  1.0349 -0.6351
  169SAPE  H13Y19163   3.336   4.346   8.337 -1.8648  1.8747 -1.8610
  169SAPE  C31419164   3.495   4.224   8.244 -0.1863 -0.6115  0.5666
  169SAPE  H14X19165   3.539   4.294   8.170 -2.8681  0.0404 -0.5253
  169SAPE  H14Y19166   3.506   4.121   8.203 -2.1132 -1.5029  2.1464
  169SAPE  C31519167   3.569   4.234   8.384  0.5356  0.3231  0.9327
  169SAPE  H15X19168   3.529   4.152   8.448 -0.8434 -2.2923 -2.9172
  169SAPE  H15Y19169   3.527   4.325   8.431 -0.0764 -0.3930  1.8304
  169SAPE  C31619170   3.721   4.209   8.377 -0.1211  0.0497  0.0979
  169SAPE  H16X19171   3.764   4.197   8.478  1.9995 -0.5495 -0.8406
  169SAPE  H16Y19172   3.760   4.306   8.341  1.8963 -0.5592  0.5516
  169SAPE  C31719173   3.784   4.098   8.292  0.2927  0.1370 -0.2419
  169SAPE  H17X19174   3.893   4.104   8.308  0.1054 -0.7483  1.5758
  169SAPE  H17Y19175   3.760   4.109   8.184 -0.5761  1.6649  0.0662
  169SAPE  C31819176   3.749   3.955   8.331  0.2239 -0.0064 -0.6290
  169SAPE  H18X19177   3.760   3.955   8.442  0.4135 -2.2938 -0.6059
  169SAPE  H18Y19178   3.809   3.874   8.283 -1.2333 -0.7956 -1.1600
  169SAPE  H18Z19179   3.641   3.945   8.310  0.2740 -0.0428 -0.8742
  170SAPE     N19180   4.144   1.616   5.982  0.2538 -0.2963 -0.3351
  170SAPE   HN119181   4.161   1.529   6.036 -1.5390 -1.7246 -1.9556
  170SAPE   HN219182   4.127   1.592   5.883  1.0440 -0.7986 -0.3568
  170SAPE   HN319183   4.238   1.660   5.983  1.6826 -3.1296  0.5941
  170SAPE   C1219184   4.036   1.701   6.045 -0.2287 -0.9767 -0.0513
  170SAPE  H12A19185   4.003   1.769   5.964 -0.1356 -0.1615  0.5874
  170SAPE  H12B19186   4.091   1.762   6.119 -0.0592 -2.1988  0.8707
  170SAPE   C1119187   3.914   1.625   6.104 -0.1994  0.2465  0.1264
  170SAPE  H11A19188   3.942   1.570   6.195  0.2522  0.5040  0.1465
  170SAPE  H11B19189   3.891   1.553   6.022  1.0384  0.3670 -0.3503
  170SAPE     P19190   3.654   1.680   6.107 -0.2502 -0.1943 -0.2098
  170SAPE   O1319191   3.599   1.795   6.036 -0.2961  0.2223 -0.3008
  170SAPE   O1419192   3.625   1.545   6.064 -0.3689  0.0510  0.7032
  170SAPE   O1219193   3.806   1.713   6.127 -0.6687  0.0745  0.0229
  170SAPE   O1119194   3.598   1.697   6.256  0.1277  0.1670  0.4012
  170SAPE    C119195   3.655   1.649   6.369 -0.1169  0.3251 -0.5683
  170SAPE    HA19196   3.677   1.540   6.357  0.3692  0.4944 -1.2513
  170SAPE    HB19197   3.751   1.702   6.386  0.1490 -0.0571 -0.8372
  170SAPE    C219198   3.565   1.671   6.484  0.4280 -0.6200 -0.7116
  170SAPE    HS19199   3.469   1.615   6.482 -0.1366  0.3497 -2.7339
  170SAPE   O2119200   3.546   1.812   6.509  0.1359 -0.6247  0.0766
  170SAPE   C2119201   3.459   1.843   6.612  0.5215 -0.3865 -0.0462
  170SAPE   O2219202   3.379   1.762   6.655  0.2320  0.1899  0.0505
  170SAPE   C2219203   3.487   1.986   6.651 -0.2553  0.6720 -0.2198
  170SAPE   H2R19204   3.467   2.055   6.566  2.5782 -0.2689 -1.7835
  170SAPE   H2S19205   3.427   1.996   6.744 -0.0197 -0.6065  0.0797
  170SAPE    C319206   3.643   1.623   6.618 -0.2882  0.5772  0.6924
  170SAPE    HX19207   3.682   1.523   6.591  2.2131  1.9770 -1.2957
  170SAPE    HY19208   3.565   1.616   6.697  0.6453 -1.2727  1.5153
  170SAPE   O3119209   3.758   1.707   6.651 -0.0438 -0.6591 -0.2544
  170SAPE   C3119210   3.871   1.654   6.701  0.5107 -0.0815  0.5817
  170SAPE   O3219211   3.892   1.533   6.707  0.3460 -0.4006 -0.1380
  170SAPE   C3219212   3.959   1.767   6.757 -0.0395  0.5188  0.2678
  170SAPE   H2X19213   3.905   1.865   6.761  1.2614  1.3181 -0.9345
  170SAPE   H2Y19214   4.031   1.774   6.673 -0.0854 -1.0716  0.0741
  170SAPE   C2319215   3.640   2.002   6.701  0.2314  0.1272 -0.3416
  170SAPE   H3R19216   3.672   2.107   6.682 -0.1276 -0.0082 -1.8223
  170SAPE   H3S19217   3.709   1.944   6.636  0.6361 -0.1754  0.3537
  170SAPE   C2419218   3.660   1.980   6.848  0.2417  0.1135 -0.1913
  170SAPE   H4R19219   3.612   2.064   6.903 -0.3553  0.3006 -0.9792
  170SAPE   H4S19220   3.765   1.998   6.878  0.4742  1.2523 -1.6101
  170SAPE   C2519221   3.608   1.849   6.900  0.8290 -0.1489 -0.3588
  170SAPE   H5R19222   3.617   1.765   6.830 -0.5697 -1.1682  0.6113
  170SAPE   C2619223   3.566   1.820   7.023  0.3279 -0.1893  0.9275
  170SAPE   H6R19224   3.550   1.711   7.034 -0.3566 -0.0399  1.5264
  170SAPE   C2719225   3.550   1.913   7.141  0.0413 -0.5704  0.3723
  170SAPE   H7R19226   3.557   2.015   7.098 -0.6340 -0.8393 -0.4063
  170SAPE   H7S19227   3.642   1.901   7.203 -0.1547  0.8120  0.9703
  170SAPE   C2819228   3.423   1.896   7.219  0.5726  0.2968 -0.3093
  170SAPE   H8R19229   3.341   1.966   7.196 -0.9030 -1.5475 -0.8748
  170SAPE   C2919230   3.402   1.801   7.313  0.5355  0.6487  0.1342
  170SAPE   H9R19231   3.298   1.800   7.347  0.0917 -0.9440 -1.1504
  170SAPE  C21019232   3.498   1.692   7.357  0.0712  0.9366 -0.0110
  170SAPE  H10R19233   3.564   1.723   7.441  1.4958 -2.0109  0.0844
  170SAPE  H10S19234   3.573   1.672   7.277 -0.9635  1.7851 -1.2270
  170SAPE  C21119235   3.437   1.553   7.384 -0.7355 -0.4101  0.0301
  170SAPE  H11R19236   3.400   1.500   7.295  3.3249  0.2607 -2.3118
  170SAPE  C21219237   3.430   1.497   7.510  0.1995  0.4607  0.0602
  170SAPE  H12R19238   3.383   1.397   7.514  0.8535  0.0988 -0.8954
  170SAPE  C21319239   3.466   1.556   7.639 -0.7274  0.2841 -0.1479
  170SAPE  H13R19240   3.448   1.665   7.630  2.3631  1.0237  1.1411
  170SAPE  H13S19241   3.575   1.551   7.659 -1.1253 -0.7586  2.0843
  170SAPE  C21419242   3.398   1.503   7.761  0.7746  0.4466 -0.2472
  170SAPE  H14R19243   3.326   1.423   7.738  0.9241  0.6628 -1.5149
  170SAPE  C21519244   3.395   1.521   7.892  0.1874 -0.5202 -0.4363
  170SAPE  H15R19245   3.326   1.465   7.957 -0.9757  1.1738 -0.1546
  170SAPE  C21619246   3.490   1.616   7.963 -0.6392  0.1413  0.4799
  170SAPE  H16R19247   3.443   1.716   7.969 -0.2603  0.4100 -0.7503
  170SAPE  H16S19248   3.586   1.631   7.908 -0.0004  0.9573  1.7861
  170SAPE  C21719249   3.520   1.574   8.109 -0.2034 -0.2149  0.6997
  170SAPE  H17R19250   3.586   1.484   8.100 -1.2589 -1.0283  0.9307
  170SAPE  H17S19251   3.426   1.546   8.161 -1.3891 -1.4694 -1.9325
  170SAPE  C21819252   3.595   1.674   8.205  0.3653 -0.2906 -0.3314
  170SAPE  H18R19253   3.599   1.635   8.309  0.5459 -0.5324 -0.4303
  170SAPE  H18S19254   3.526   1.761   8.204  1.1481  0.3452 -0.5605
  170SAPE  C21919255   3.733   1.710   8.151 -0.1493  0.6805  0.5039
  170SAPE  H19R19256   3.729   1.754   8.049  0.0318 -1.5380 -0.5294
  170SAPE  H19S19257   3.809   1.633   8.126 -1.8194 -0.8296 -0.1357
  170SAPE  C22019258   3.795   1.824   8.239  0.2664  0.3655 -0.0666
  170SAPE  H20R19259   3.821   1.781   8.339 -0.1623 -1.0507 -0.5398
  170SAPE  H20S19260   3.722   1.906   8.257  1.2564  1.0926  0.7304
  170SAPE  H20T19261   3.894   1.850   8.197  1.5069 -0.0712  2.4060
  170SAPE   C3319262   4.022   1.739   6.892 -0.2745  0.1960 -0.6566
  170SAPE   H3X19263   4.093   1.821   6.916  0.5988 -1.2385  2.0391
  170SAPE   H3Y19264   4.084   1.647   6.897 -2.1360 -1.0344  1.3698
  170SAPE   C3419265   3.923   1.738   7.011  0.8724 -0.4201 -0.2483
  170SAPE   H4X19266   3.847   1.661   6.984 -1.6068  2.4607 -2.1379
  170SAPE   H4Y19267   3.877   1.839   7.008 -0.0006 -0.8299 -1.2948
  170SAPE   C3519268   3.985   1.695   7.145  0.0265  0.0374  0.3543
  170SAPE   H5X19269   4.083   1.747   7.154 -0.6183  1.1445  1.4202
  170SAPE   H5Y19270   4.014   1.588   7.137 -0.9933 -0.4482  2.4314
  170SAPE   C3619271   3.896   1.727   7.261 -0.2275  0.2055  0.7353
  170SAPE   H6X19272   3.809   1.660   7.242  0.5687 -0.3023 -1.4828
  170SAPE   H6Y19273   3.866   1.832   7.238  0.1998  0.2266  0.2530
  170SAPE   C3719274   3.968   1.713   7.395 -0.2373  0.0946  0.0239
  170SAPE   H7X19275   4.053   1.783   7.397  0.2504 -0.4105 -1.7523
  170SAPE   H7Y19276   4.002   1.607   7.400 -1.7318 -0.5212 -1.6871
  170SAPE   C3819277   3.879   1.725   7.520  0.5314  0.1925  0.4813
  170SAPE   H8X19278   3.801   1.646   7.530 -1.9491  2.3134 -0.9181
  170SAPE   H8Y19279   3.829   1.824   7.519 -0.6827 -0.4028 -0.8795
  170SAPE   C3919280   3.942   1.712   7.663  0.0185 -0.2613  0.3724
  170SAPE   H9X19281   3.882   1.775   7.731  0.6592 -0.9771  1.6313
  170SAPE   H9Y19282   4.047   1.748   7.655 -0.2328  0.4598  0.3068
  170SAPE  C31019283   3.941   1.570   7.712 -0.2543  0.2706 -0.2709
  170SAPE  H10X19284   4.033   1.525   7.669 -1.1072 -0.6170 -1.2247
  170SAPE  H10Y19285   3.851   1.509   7.690  0.9350 -1.2913 -0.9376
  170SAPE  C31119286   3.952   1.545   7.865 -0.9609 -0.0182  0.1072
  170SAPE  H11X19287   3.876   1.478   7.912 -0.8376 -0.9573 -0.9880
  170SAPE  H11Y19288   3.941   1.641   7.921  2.7372  1.5982 -1.6117
  170SAPE  C31219289   4.098   1.498   7.909 -0.2146  0.2367  0.4834
  170SAPE  H12X19290   4.176   1.571   7.879 -3.0627  2.0657 -3.3528
  170SAPE  H12Y19291   4.119   1.396   7.869 -1.4279 -0.4806  1.5997
  170SAPE  C31319292   4.111   1.484   8.058 -0.3225 -0.0697 -0.1596
  170SAPE  H13X19293   4.195   1.413   8.076  0.5629  0.7007 -1.0960
  170SAPE  H13Y19294   4.019   1.440   8.101 -0.2590 -0.8838 -0.8245
  170SAPE  C31419295   4.136   1.617   8.132  0.1097 -0.6341 -0.2901
  170SAPE  H14X19296   4.068   1.693   8.089 -1.7343 -0.8981  1.9522
  170SAPE  H14Y19297   4.242   1.647   8.119  0.3549 -1.8174 -1.2717
  170SAPE  C31519298   4.101   1.603   8.279 -0.7667 -0.0307  0.1905
  170SAPE  H15X19299   4.008   1.542   8.283 -0.8080 -0.4026 -3.2975
  170SAPE  H15Y19300   4.072   1.699   8.326 -2.0979 -1.1668  1.8065
  170SAPE  C31619301   4.217   1.539   8.356 -0.0826  0.7659  0.2040
  170SAPE  H16X19302   4.297   1.514   8.283 -1.0665 -0.8170 -0.3975
  170SAPE  H16Y19303   4.198   1.440   8.402  0.4570  0.6299  0.1386
  170SAPE  C31719304   4.286   1.620   8.462 -0.0071 -0.4579 -0.3621
  170SAPE  H17X19305   4.211   1.625   8.544  1.1474  0.1799  0.6957
  170SAPE  H17Y19306   4.291   1.725   8.427  0.3652 -0.8528 -1.5522
  170SAPE  C31819307   4.421   1.558   8.503 -0.6239  0.5140 -0.0253
  170SAPE  H18X19308   4.479   1.613   8.580  2.3941 -2.3631 -0.0394
  170SAPE  H18Y19309   4.488   1.564   8.414 -0.1914  2.6175  0.3887
  170SAPE  H18Z19310   4.405   1.454   8.537 -1.8987  0.7020  0.0166
  171SAPE     N19311   6.495   3.615   6.589  0.2831 -0.2368 -0.1579
  171SAPE   HN119312   6.524   3.687   6.659 -0.0896 -0.4823  0.2546
  171SAPE   HN219313   6.557   3.612   6.506  2.1419 -0.6410  1.1702
  171SAPE   HN319314   6.397   3.634   6.560 -0.1712  0.5617  1.7378
  171SAPE   C1219315   6.486   3.476   6.646 -0.2922 -0.3732 -0.3393
  171SAPE  H12A19316   6.396   3.469   6.711  0.9686  2.7160  1.9488
  171SAPE  H12B19317   6.580   3.463   6.704 -0.8926 -1.1531  0.4898
  171SAPE   C1119318   6.499   3.374   6.531 -0.0855 -0.2553  0.6136
  171SAPE  H11A19319   6.509   3.273   6.577  1.1648 -0.0995  0.7217
  171SAPE  H11B19320   6.594   3.391   6.476  0.6510 -0.2716  1.8540
  171SAPE     P19321   6.277   3.292   6.444 -0.3893  0.2006 -0.3648
  171SAPE   O1319322   6.147   3.357   6.421  0.6081 -0.2777  0.0847
  171SAPE   O1419323   6.297   3.171   6.364 -0.0140  0.0627 -0.3245
  171SAPE   O1219324   6.395   3.393   6.436  0.1245  0.1274  0.0331
  171SAPE   O1119325   6.278   3.244   6.599 -0.0256 -0.0645 -0.0931
  171SAPE    C119326   6.174   3.302   6.687 -0.5261  0.6624  0.4437
  171SAPE    HA19327   6.191   3.411   6.695  1.4736  0.3502  1.0760
  171SAPE    HB19328   6.074   3.287   6.641  0.4527  1.0861 -1.9894
  171SAPE    C219329   6.183   3.227   6.820  0.3132  0.5544  0.3828
  171SAPE    HS19330   6.087   3.248   6.873 -0.2312 -1.0419  0.0820
  171SAPE   O2119331   6.292   3.284   6.885 -0.3045 -0.6283 -0.3944
  171SAPE   C2119332   6.304   3.264   7.008  0.6161  0.1860  0.0394
  171SAPE   O2219333   6.230   3.200   7.085 -0.0068  0.4254  0.1774
  171SAPE   C2219334   6.435   3.331   7.049  0.1300  0.2130 -0.2306
  171SAPE   H2R19335   6.513   3.275   6.993  0.7800 -0.0498  0.9048
  171SAPE   H2S19336   6.429   3.433   7.007  1.9312 -0.1415 -1.5100
  171SAPE    C319337   6.194   3.069   6.789  0.5667 -0.4752  0.3440
  171SAPE    HX19338   6.283   3.059   6.723  1.7383 -2.7267  2.0925
  171SAPE    HY19339   6.116   3.037   6.717 -0.7808  1.3389  0.9241
  171SAPE   O3119340   6.198   2.988   6.906 -0.6285 -0.0757 -0.3365
  171SAPE   C3119341   6.076   2.974   6.969 -0.1009  0.0385 -0.5913
  171SAPE   O3219342   5.967   3.023   6.939 -0.0492  0.5976 -0.2103
  171SAPE   C3219343   6.098   2.871   7.085  0.6106 -1.0356  0.2389
  171SAPE   H2X19344   6.196   2.820   7.072  0.2803 -1.3959 -1.0088
  171SAPE   H2Y19345   6.009   2.807   7.069 -0.4839  0.8157 -1.5087
  171SAPE   C2319346   6.469   3.330   7.201 -0.0723 -0.1593 -0.0601
  171SAPE   H3R19347   6.570   3.377   7.201  0.1740 -0.6850 -0.3997
  171SAPE   H3S19348   6.476   3.223   7.227 -1.7595 -0.1944  0.3757
  171SAPE   C2419349   6.363   3.411   7.290  0.1315 -0.8920  0.0004
  171SAPE   H4R19350   6.262   3.367   7.294 -0.7546  0.9864 -0.6253
  171SAPE   H4S19351   6.355   3.504   7.230 -1.6328  0.3188  2.0129
  171SAPE   C2519352   6.422   3.449   7.426 -0.3579  0.4060 -0.2941
  171SAPE   H5R19353   6.513   3.511   7.424  2.7774 -3.6458  1.7102
  171SAPE   C2619354   6.376   3.392   7.543 -0.1843 -0.1976 -0.6351
  171SAPE   H6R19355   6.411   3.440   7.636 -0.6532  1.3698 -1.2367
  171SAPE   C2719356   6.263   3.303   7.566 -0.2109  0.2079 -0.2196
  171SAPE   H7R19357   6.274   3.261   7.668  0.3817 -0.6938 -0.6395
  171SAPE   H7S19358   6.261   3.210   7.505  0.7577  0.7574 -1.1123
  171SAPE   C2819359   6.125   3.358   7.559  0.2177 -0.4889  0.6419
  171SAPE   H8R19360   6.099   3.414   7.468 -0.4900  0.0868  1.1830
  171SAPE   C2919361   6.035   3.373   7.655 -0.4710  0.2156  0.0725
  171SAPE   H9R19362   5.949   3.438   7.633  1.0227  2.8629  1.5460
  171SAPE  C21019363   6.037   3.319   7.798 -0.0066 -0.6782 -0.3932
  171SAPE  H10R19364   6.055   3.210   7.810 -4.5068 -1.4162  1.5529
  171SAPE  H10S19365   5.931   3.326   7.830  0.1458 -0.5869  0.1099
  171SAPE  C21119366   6.135   3.399   7.877  0.1432 -0.6132  0.3170
  171SAPE  H11R19367   6.217   3.441   7.817 -0.6010  0.4278  0.0068
  171SAPE  C21219368   6.116   3.430   8.004 -0.2711  0.0036  0.4420
  171SAPE  H12R19369   6.180   3.502   8.057  0.4673 -0.0898 -0.3199
  171SAPE  C21319370   5.998   3.379   8.084 -0.0112  0.0017  0.4197
  171SAPE  H13R19371   5.899   3.411   8.047 -0.7415 -2.4322  0.1338
  171SAPE  H13S19372   6.012   3.425   8.184  2.0791 -0.3306  0.3203
  171SAPE  C21419373   6.001   3.231   8.108 -0.2345  0.3446 -0.1989
  171SAPE  H14R19374   6.035   3.171   8.023 -1.1409  0.7168 -0.8389
  171SAPE  C21519375   5.966   3.163   8.220  0.0884  0.7848  0.0939
  171SAPE  H15R19376   5.976   3.054   8.214 -0.5487  0.7119  0.2760
  171SAPE  C21619377   5.915   3.226   8.348  0.5519  0.1743 -0.0156
  171SAPE  H16R19378   5.850   3.315   8.334 -0.9345 -0.5535  1.7513
  171SAPE  H16S19379   6.005   3.253   8.408 -0.4933  2.2067  0.7083
  171SAPE  C21719380   5.819   3.130   8.432  0.2790 -0.8153  0.6058
  171SAPE  H17R19381   5.821   3.169   8.536  0.6095 -2.7526  1.3586
  171SAPE  H17S19382   5.868   3.031   8.443 -1.3218 -1.8554 -0.9251
  171SAPE  C21819383   5.679   3.121   8.374  0.4668  0.1743  0.7215
  171SAPE  H18R19384   5.697   3.095   8.268  1.6900 -2.4455  1.4932
  171SAPE  H18S19385   5.645   3.227   8.377 -3.6413 -0.8097 -2.0280
  171SAPE  C21919386   5.590   3.021   8.447 -0.9282 -0.1189 -0.1556
  171SAPE  H19R19387   5.594   3.057   8.553 -2.1197  2.0764 -0.7953
  171SAPE  H19S19388   5.629   2.917   8.446  0.3631  0.2240  2.7620
  171SAPE  C22019389   5.433   3.031   8.413 -0.6778  0.3769 -0.0485
  171SAPE  H20R19390   5.367   2.999   8.497 -2.0218 -0.4729 -1.3799
  171SAPE  H20S19391   5.427   2.967   8.323 -0.0554 -0.8978  0.7871
  171SAPE  H20T19392   5.402   3.136   8.395  1.6293  0.8642 -1.6737
  171SAPE   C3319393   6.086   2.934   7.223  0.3571 -0.9874  0.6528
  171SAPE   H3X19394   5.993   2.992   7.243  0.6300 -0.2754 -0.0698
  171SAPE   H3Y19395   6.163   3.014   7.220 -2.2829  1.8110  2.3501
  171SAPE   C3419396   6.107   2.841   7.342 -0.0501 -0.4207 -0.3648
  171SAPE   H4X19397   6.209   2.799   7.347  0.0604 -0.3323 -1.5230
  171SAPE   H4Y19398   6.028   2.763   7.333 -1.3608  0.5013  2.1646
  171SAPE   C3519399   6.084   2.911   7.467  0.0491 -0.0486 -0.8460
  171SAPE   H5X19400   5.982   2.952   7.481 -0.2257 -1.3101  1.2650
  171SAPE   H5Y19401   6.144   3.005   7.475  0.1894 -0.1977  0.0132
  171SAPE   C3619402   6.100   2.825   7.598 -0.0888  0.0103  0.5519
  171SAPE   H6X19403   6.200   2.779   7.614 -0.7860 -1.2710  1.4099
  171SAPE   H6Y19404   6.028   2.743   7.578 -1.3194  1.8202 -3.5324
  171SAPE   C3719405   6.066   2.899   7.730 -0.1075 -0.2501 -0.1807
  171SAPE   H7X19406   5.961   2.936   7.725 -0.1534  0.0585  2.1033
  171SAPE   H7Y19407   6.150   2.967   7.753  0.5277 -1.2347  0.4921
  171SAPE   C3819408   6.055   2.799   7.844 -0.2825 -0.2405 -0.3712
  171SAPE   H8X19409   6.136   2.723   7.841  0.2147  0.3071 -0.9030
  171SAPE   H8Y19410   5.960   2.742   7.841 -0.4229 -0.0434  0.2075
  171SAPE   C3919411   6.069   2.861   7.982  0.4978  0.0091  0.8625
  171SAPE   H9X19412   6.015   2.958   7.985  0.3984  0.0730 -1.5569
  171SAPE   H9Y19413   6.175   2.879   8.012  0.1135  2.3993  1.0058
  171SAPE  C31019414   6.010   2.765   8.087  0.0862 -0.4343  0.3278
  171SAPE  H10X19415   6.045   2.669   8.043 -0.0904  0.6805 -2.4592
  171SAPE  H10Y19416   5.900   2.778   8.094  0.2453  1.3430  0.0928
  171SAPE  C31119417   6.088   2.778   8.219  0.0373 -0.4185  0.4918
  171SAPE  H11X19418   6.102   2.888   8.232  1.3780 -0.4446 -0.5577
  171SAPE  H11Y19419   6.190   2.736   8.212  0.1430 -0.0880 -0.0008
  171SAPE  C31219420   6.027   2.722   8.352  0.1754 -0.4353  0.2667
  171SAPE  H12X19421   5.928   2.769   8.367 -0.0891  0.6176 -3.7208
  171SAPE  H12Y19422   6.098   2.752   8.433 -1.5629  0.5792  1.4962
  171SAPE  C31319423   6.009   2.566   8.338  0.2019  0.3209  0.1289
  171SAPE  H13X19424   6.106   2.516   8.322 -0.2968  0.2466 -3.2473
  171SAPE  H13Y19425   5.937   2.538   8.258 -0.5021  0.4491  0.7030
  171SAPE  C31419426   5.936   2.518   8.465 -0.0331  0.0613  0.5834
  171SAPE  H14X19427   5.932   2.408   8.458 -2.4284  0.1586 -0.5044
  171SAPE  H14Y19428   5.831   2.553   8.460  0.4237  1.5306  0.6740
  171SAPE  C31519429   5.994   2.560   8.607 -0.0442  0.7410  0.0192
  171SAPE  H15X19430   6.007   2.670   8.612  0.7258  0.5971  3.1390
  171SAPE  H15Y19431   6.096   2.517   8.612 -0.6555 -0.9728 -1.2756
  171SAPE  C31619432   5.899   2.500   8.708  0.1742  0.3805 -0.3535
  171SAPE  H16X19433   5.900   2.390   8.696 -1.3861  0.2473  0.4203
  171SAPE  H16Y19434   5.794   2.525   8.678 -0.4408 -0.0184  1.3831
  171SAPE  C31719435   5.932   2.549   8.851  0.3381  1.2067 -0.4388
  171SAPE  H17X19436   5.928   2.659   8.835 -0.5594  1.2551  0.0118
  171SAPE  H17Y19437   6.035   2.515   8.875  1.5056  2.4459 -3.3326
  171SAPE  C31819438   5.833   2.517   8.958 -0.0301  0.4733 -0.5748
  171SAPE  H18X19439   5.787   2.418   8.939  1.1123 -0.9926  3.3425
  171SAPE  H18Y19440   5.752   2.593   8.963 -0.7488 -0.3590  1.5842
  171SAPE  H18Z19441   5.881   2.509   9.058  1.5315 -0.5358 -1.3640
  172SAPE     N19442   5.354   2.285   6.040  0.1070 -0.1336  0.3285
  172SAPE   HN119443   5.278   2.356   6.036  1.1394  1.3380  3.6035
  172SAPE   HN219444   5.377   2.262   5.942  1.9208 -3.2500  1.3499
  172SAPE   HN319445   5.312   2.207   6.094  0.4232  0.1042  0.9276
  172SAPE   C1219446   5.456   2.333   6.141  0.4603 -0.1514  0.2705
  172SAPE  H12A19447   5.535   2.391   6.088 -1.1792 -0.2651 -2.4657
  172SAPE  H12B19448   5.515   2.243   6.170 -0.3835 -0.9549 -0.4229
  172SAPE   C1119449   5.385   2.401   6.256 -0.3209  0.0797 -0.7649
  172SAPE  H11A19450   5.470   2.443   6.314 -0.0342  0.6568 -1.5842
  172SAPE  H11B19451   5.328   2.327   6.317 -1.3024  1.4177  0.0003
  172SAPE     P19452   5.335   2.661   6.262  0.0437 -0.0040 -0.1050
  172SAPE   O1319453   5.474   2.696   6.216 -0.2634  0.7243 -0.3373
  172SAPE   O1419454   5.228   2.751   6.214  0.1079 -0.2515 -0.0719
  172SAPE   O1219455   5.311   2.513   6.211  0.1486 -0.3801  0.2793
  172SAPE   O1119456   5.331   2.650   6.420  0.4037 -0.3455 -0.3936
  172SAPE    C119457   5.230   2.588   6.497  0.2236  0.0579  0.2293
  172SAPE    HA19458   5.143   2.657   6.486  0.4022 -0.1103 -3.7779
  172SAPE    HB19459   5.195   2.494   6.452 -1.7158  0.4091  0.9227
  172SAPE    C219460   5.267   2.576   6.653  0.3779  0.5872 -0.7672
  172SAPE    HS19461   5.182   2.532   6.710  0.2131 -0.5306 -1.8289
  172SAPE   O2119462   5.309   2.702   6.705  0.6704  0.3183 -0.4792
  172SAPE   C2119463   5.205   2.775   6.740 -0.2948 -0.8470 -0.5691
  172SAPE   O2219464   5.088   2.739   6.745  0.1048  1.2002 -0.7103
  172SAPE   C2219465   5.258   2.917   6.749 -0.1343 -0.6323  0.2978
  172SAPE   H2R19466   5.365   2.922   6.723 -0.3090  1.7502 -0.1700
  172SAPE   H2S19467   5.194   2.970   6.674  0.3195 -0.8917 -0.2758
  172SAPE    C319468   5.379   2.471   6.665  0.4175  0.5180 -0.1782
  172SAPE    HX19469   5.463   2.521   6.612  2.0523 -1.9262 -0.0294
  172SAPE    HY19470   5.345   2.377   6.618 -0.4946  0.4045  0.6741
  172SAPE   O3119471   5.418   2.454   6.799  0.1799 -0.1229  0.3176
  172SAPE   C3119472   5.389   2.342   6.867  0.2356 -0.4050  0.3437
  172SAPE   O3219473   5.346   2.240   6.815  0.5875  0.1520 -0.2591
  172SAPE   C3219474   5.419   2.352   7.015  0.1518 -0.2271  0.5420
  172SAPE   H2X19475   5.325   2.394   7.056  0.0275 -0.0249  0.0490
  172SAPE   H2Y19476   5.496   2.427   7.044  0.3927 -1.0218  2.1122
  172SAPE   C2319477   5.242   2.986   6.891  1.1941  0.1734 -0.6513
  172SAPE   H3R19478   5.303   3.078   6.888  3.0657 -1.0185 -2.1601
  172SAPE   H3S19479   5.276   2.914   6.969  2.5061  2.9309  1.4767
  172SAPE   C2419480   5.096   3.020   6.938  0.2447 -0.2253 -0.1703
  172SAPE   H4R19481   5.096   3.032   7.048  3.1379 -2.9865  0.2818
  172SAPE   H4S19482   5.029   2.933   6.920 -0.9454 -0.1787  3.2920
  172SAPE   C2519483   5.043   3.140   6.864  0.7338  0.2432  0.3443
  172SAPE   H5R19484   5.017   3.127   6.758 -2.1755  0.8224  0.8693
  172SAPE   C2619485   5.003   3.264   6.924 -0.8217  0.3964  0.4450
  172SAPE   H6R19486   4.964   3.342   6.857 -2.8943 -1.1375 -0.2470
  172SAPE   C2719487   5.007   3.295   7.067 -0.4113  0.0430 -1.4686
  172SAPE   H7R19488   5.073   3.224   7.123  1.8700  2.7459 -0.4794
  172SAPE   H7S19489   4.907   3.277   7.112  0.2640 -0.0837  0.0591
  172SAPE   C2819490   5.056   3.433   7.101  0.6345  0.4705  0.7492
  172SAPE   H8R19491   5.123   3.471   7.023 -0.3827 -0.0238 -0.4095
  172SAPE   C2919492   5.009   3.509   7.198 -0.4998  0.2658 -0.1958
  172SAPE   H9R19493   5.056   3.608   7.208 -2.3760  1.0807  1.0713
  172SAPE  C21019494   4.903   3.462   7.301 -1.1010 -0.8265  0.0275
  172SAPE  H10R19495   4.910   3.355   7.332 -0.1687 -0.3204  1.6490
  172SAPE  H10S19496   4.803   3.477   7.255 -0.7701  0.2446 -0.3749
  172SAPE  C21119497   4.901   3.562   7.414  0.4860 -0.2058  0.3756
  172SAPE  H11R19498   4.890   3.664   7.374  0.7939  0.1455  1.1683
  172SAPE  C21219499   4.888   3.543   7.544  0.4118  0.0207  0.1436
  172SAPE  H12R19500   4.875   3.628   7.613 -1.5651 -1.3920  1.6235
  172SAPE  C21319501   4.880   3.411   7.613  0.0842  0.0109  0.4642
  172SAPE  H13R19502   4.937   3.435   7.706  0.0338  0.4333  0.3887
  172SAPE  H13S19503   4.946   3.341   7.557  0.1051  1.3624 -1.3095
  172SAPE  C21419504   4.752   3.351   7.640  0.0670  0.0190 -0.0054
  172SAPE  H14R19505   4.697   3.326   7.548 -1.4294  0.9406  0.6030
  172SAPE  C21519506   4.685   3.326   7.754  0.1241 -0.2034  0.5018
  172SAPE  H15R19507   4.592   3.268   7.742  0.0814 -0.6682  2.6407
  172SAPE  C21619508   4.715   3.348   7.898 -0.2233 -0.2066  0.5562
  172SAPE  H16R19509   4.814   3.306   7.924  0.9204  1.6680 -0.5684
  172SAPE  H16S19510   4.630   3.308   7.958 -1.4015  0.6577 -0.4662
  172SAPE  C21719511   4.725   3.500   7.946 -0.2231  0.0981  0.3098
  172SAPE  H17R19512   4.644   3.563   7.903 -0.6718  0.7151  1.9984
  172SAPE  H17S19513   4.824   3.547   7.932 -1.0983  1.6990 -0.7923
  172SAPE  C21819514   4.701   3.520   8.096  0.1495  0.4601 -0.4052
  172SAPE  H18R19515   4.783   3.481   8.160  1.7675  2.7120 -1.0118
  172SAPE  H18S19516   4.618   3.456   8.133  1.7394 -1.4801  0.0068
  172SAPE  C21919517   4.684   3.668   8.120 -0.1897  0.9719  0.3438
  172SAPE  H19R19518   4.686   3.719   8.021  0.8079  0.6289  0.1743
  172SAPE  H19S19519   4.770   3.704   8.181 -1.5757  0.7681  2.5164
  172SAPE  C22019520   4.561   3.722   8.206 -0.1771 -0.2267  0.7722
  172SAPE  H20R19521   4.555   3.832   8.204 -0.3282 -0.1812  2.6276
  172SAPE  H20S19522   4.581   3.691   8.311  0.8501 -1.8256  0.1410
  172SAPE  H20T19523   4.467   3.686   8.160  1.4638 -0.8575 -2.4231
  172SAPE   C3319524   5.444   2.213   7.085  0.1659 -0.0271 -0.3861
  172SAPE   H3X19525   5.541   2.178   7.044 -0.2038  0.0465 -1.3426
  172SAPE   H3Y19526   5.374   2.132   7.056  0.9580  0.1432 -3.0355
  172SAPE   C3419527   5.454   2.221   7.234 -0.5509  0.1891 -1.0012
  172SAPE   H4X19528   5.554   2.256   7.268  0.4157 -2.0781 -1.3425
  172SAPE   H4Y19529   5.456   2.121   7.281 -2.0611  0.1978 -0.8712
  172SAPE   C3519530   5.347   2.304   7.310 -0.0460 -0.6791 -0.1709
  172SAPE   H5X19531   5.245   2.265   7.286  0.5131 -1.4045 -1.4322
  172SAPE   H5Y19532   5.342   2.410   7.277 -1.9511 -1.1546 -1.6491
  172SAPE   C3619533   5.343   2.280   7.459 -0.2081 -0.0936 -0.5463
  172SAPE   H6X19534   5.340   2.171   7.477 -0.1646 -0.0432 -0.2350
  172SAPE   H6Y19535   5.251   2.321   7.505 -0.3245  0.4192 -1.2142
  172SAPE   C3719536   5.463   2.349   7.533 -0.3189 -0.7722 -0.6118
  172SAPE   H7X19537   5.518   2.427   7.477  0.8393 -2.4954 -1.9706
  172SAPE   H7Y19538   5.540   2.270   7.546 -0.1015 -0.4328  0.3035
  172SAPE   C3819539   5.424   2.388   7.681  0.3692 -0.0239 -0.3587
  172SAPE   H8X19540   5.364   2.481   7.675 -1.2500 -0.9349  0.8694
  172SAPE   H8Y19541   5.522   2.405   7.730 -0.1575 -0.9471  1.0509
  172SAPE   C3919542   5.350   2.273   7.762 -0.9810 -0.5168  0.0571
  172SAPE   H9X19543   5.394   2.174   7.741  1.7370  0.5096  0.5130
  172SAPE   H9Y19544   5.250   2.267   7.714 -0.5031 -0.5388 -0.9692
  172SAPE  C31019545   5.344   2.296   7.918  0.6832  0.0323  0.1121
  172SAPE  H10X19546   5.303   2.397   7.940 -0.2929 -0.6180  1.4477
  172SAPE  H10Y19547   5.448   2.302   7.958 -0.3409 -1.5942  3.4315
  172SAPE  C31119548   5.274   2.189   7.987 -0.3525  1.2375  0.1439
  172SAPE  H11X19549   5.284   2.187   8.098  0.6558  2.5812  0.1035
  172SAPE  H11Y19550   5.304   2.088   7.952  0.0445  1.1533  0.6960
  172SAPE  C31219551   5.123   2.193   7.958 -0.0544  0.1414  0.0892
  172SAPE  H12X19552   5.095   2.091   7.924 -1.5943  0.9312 -1.2305
  172SAPE  H12Y19553   5.088   2.248   7.867 -2.5040 -0.3104  0.6734
  172SAPE  C31319554   5.038   2.227   8.079  0.3371  0.2907  0.2768
  172SAPE  H13X19555   5.051   2.335   8.099 -1.0371  0.2455  1.6207
  172SAPE  H13Y19556   5.065   2.167   8.169 -0.4892 -0.9945 -0.3016
  172SAPE  C31419557   4.881   2.213   8.066 -0.6610  0.6039  0.5434
  172SAPE  H14X19558   4.842   2.114   8.032 -0.1692  0.3590  0.6857
  172SAPE  H14Y19559   4.852   2.284   7.986  2.4944  2.9951  1.3201
  172SAPE  C31519560   4.792   2.258   8.181  0.0868  0.0190 -0.4470
  172SAPE  H15X19561   4.855   2.320   8.248 -0.7072 -1.1591  1.4776
  172SAPE  H15Y19562   4.760   2.168   8.238 -0.9155  0.9135  0.4578
  172SAPE  C31619563   4.672   2.336   8.137  0.1822  0.3452 -0.4626
  172SAPE  H16X19564   4.603   2.264   8.088 -0.7981 -0.8574  2.4874
  172SAPE  H16Y19565   4.712   2.411   8.066  1.2212  0.6404  0.4048
  172SAPE  C31719566   4.585   2.405   8.248 -0.5052  0.1773 -0.2439
  172SAPE  H17X19567   4.495   2.449   8.202 -0.6786 -1.0438 -1.1122
  172SAPE  H17Y19568   4.655   2.479   8.293 -2.4118  2.2892 -0.6036
  172SAPE  C31819569   4.546   2.305   8.353 -0.0740  0.1061 -0.0871
  172SAPE  H18X19570   4.508   2.208   8.316  0.8182 -0.0711 -0.5744
  172SAPE  H18Y19571   4.475   2.343   8.430 -2.5712 -2.2237 -1.0685
  172SAPE  H18Z19572   4.641   2.285   8.408 -0.1267 -0.0033 -0.0365
  173SOPE     N19573   4.474   4.816  10.792 -0.6989 -0.2111  0.0648
  173SOPE   HN119574   4.520   4.820  10.886  1.3143  0.3869 -0.8791
  173SOPE   HN219575   4.382   4.770  10.778 -0.9920  0.9063 -1.9659
  173SOPE   HN319576   4.545   4.769  10.732  0.3360  0.3140  0.8369
  173SOPE   C1219577   4.449   4.953  10.747 -0.0261 -0.2059  0.5562
  173SOPE  H12A19578   4.359   4.984  10.804 -1.3820 -2.6973 -0.0578
  173SOPE  H12B19579   4.425   4.951  10.638 -1.1272  1.5830  0.7153
  173SOPE   C1119580   4.565   5.052  10.759 -0.7287  0.5074  0.2328
  173SOPE  H11A19581   4.536   5.148  10.711  2.6477 -0.1493 -3.7133
  173SOPE  H11B19582   4.651   5.019  10.697 -0.4709 -0.5331  1.1244
  173SOPE     P19583   4.746   5.050  10.948  0.1449  0.6367  0.1623
  173SOPE   O1319584   4.784   4.910  10.910 -0.4237 -0.3253 -0.5667
  173SOPE   O1419585   4.765   5.084  11.090 -0.0936 -0.3018 -0.2100
  173SOPE   O1219586   4.600   5.072  10.905  0.3963 -0.7362  0.2896
  173SOPE   O1119587   4.815   5.157  10.853 -0.0702  0.5568 -0.1904
  173SOPE    C119588   4.777   5.292  10.868  0.5933  0.3940  0.0785
  173SOPE    HA19589   4.790   5.321  10.975 -0.0219 -1.6095  0.7409
  173SOPE    HB19590   4.674   5.309  10.831  1.3934  2.9845 -1.2117
  173SOPE    C219591   4.853   5.378  10.771 -0.1473 -0.2126 -0.1351
  173SOPE    HS19592   4.823   5.485  10.766 -0.9364 -0.3864  0.5637
  173SOPE   O2119593   4.842   5.327  10.634 -0.0217  0.1122 -0.3143
  173SOPE   C2119594   4.723   5.340  10.577  0.3345 -0.0631 -0.7573
  173SOPE   O2219595   4.623   5.391  10.629 -0.1059 -0.5767  1.3555
  173SOPE   C2219596   4.735   5.295  10.432 -0.3341 -0.3861 -0.4843
  173SOPE   H2R19597   4.744   5.184  10.427  0.5391 -0.2670 -2.1776
  173SOPE   H2S19598   4.830   5.341  10.397 -0.4060 -1.0907 -1.6601
  173SOPE    C319599   5.006   5.376  10.809  0.3067 -0.0378 -0.0214
  173SOPE    HX19600   5.039   5.275  10.840 -0.1968 -1.0280 -2.4165
  173SOPE    HY19601   5.029   5.430  10.903 -0.2396 -3.2496  2.1483
  173SOPE   O3119602   5.081   5.418  10.697 -0.1794 -0.0689  0.1155
  173SOPE   C3119603   5.205   5.383  10.679  0.4022  0.3638  0.0121
  173SOPE   O3219604   5.266   5.294  10.736  0.2207 -0.0342 -0.1575
  173SOPE   C3219605   5.260   5.474  10.573  0.2631 -0.4649 -0.4386
  173SOPE   H2X19606   5.371   5.473  10.576  0.2861  0.7537  2.6033
  173SOPE   H2Y19607   5.243   5.579  10.607 -0.4660 -0.5092 -0.6428
  173SOPE   C2319608   4.616   5.354  10.349 -0.0109  0.6456 -0.1570
  173SOPE   H3R19609   4.601   5.463  10.370 -1.3657  0.4131  0.2097
  173SOPE   H3S19610   4.521   5.311  10.388 -1.0577  2.2675 -0.7832
  173SOPE   C2419611   4.642   5.340  10.197  0.3265 -0.4268 -0.2529
  173SOPE   H4R19612   4.630   5.233  10.168 -0.4073 -1.3234  2.9432
  173SOPE   H4S19613   4.557   5.387  10.143 -0.9731 -1.2050  1.0392
  173SOPE   C2519614   4.781   5.376  10.148 -0.3068 -0.1715  0.7264
  173SOPE   H5R19615   4.790   5.486  10.158  0.1160 -0.0498 -0.6808
  173SOPE   H5S19616   4.861   5.327  10.207  1.0298 -1.8528 -2.2493
  173SOPE   C2619617   4.817   5.344   9.998  0.3962  0.2235  0.3311
  173SOPE   H6R19618   4.921   5.376   9.973 -0.1208  0.3828 -1.7887
  173SOPE   H6S19619   4.805   5.235   9.981 -1.9654  0.5604 -0.5245
  173SOPE   C2719620   4.723   5.414   9.891  0.1927  0.0599  0.4099
  173SOPE   H7R19621   4.623   5.366   9.883  0.3245 -0.0958 -0.3718
  173SOPE   H7S19622   4.705   5.516   9.932  0.1008  0.7361 -1.2408
  173SOPE   C2819623   4.776   5.431   9.747  0.4347 -0.8226 -0.5335
  173SOPE   H8R19624   4.712   5.513   9.708  0.8337  0.6402  1.6567
  173SOPE   H8S19625   4.881   5.467   9.753  1.4306 -3.6217  0.3045
  173SOPE   C2919626   4.770   5.302   9.673 -0.5533  0.4710 -0.1498
  173SOPE   H9119627   4.814   5.220   9.732 -0.6426  1.0775  0.7868
  173SOPE  C21019628   4.716   5.279   9.557 -0.1065  0.5934  1.1083
  173SOPE  H10119629   4.724   5.177   9.515 -4.4756 -0.0103  1.2066
  173SOPE  C21119630   4.650   5.382   9.473  0.4833  0.3707 -0.3730
  173SOPE  H11R19631   4.693   5.484   9.485  0.0342  0.6208 -0.8239
  173SOPE  H11S19632   4.545   5.398   9.504  0.4842  0.6756 -0.5122
  173SOPE  C21219633   4.663   5.355   9.317  0.5161  0.1206 -0.5876
  173SOPE  H12R19634   4.581   5.410   9.266  0.6463  1.1254  0.2583
  173SOPE  H12S19635   4.635   5.249   9.299  0.1749 -0.1432  1.2819
  173SOPE  C21319636   4.791   5.401   9.262 -0.2090 -0.5274  0.4558
  173SOPE  H13R19637   4.880   5.351   9.305  0.3068 -0.4114 -0.4495
  173SOPE  H13S19638   4.812   5.510   9.270  1.2966 -0.8054  0.5728
  173SOPE  C21419639   4.777   5.379   9.112  0.3750 -0.3197  0.5550
  173SOPE  H14R19640   4.708   5.455   9.071  0.4736 -1.0589 -1.0284
  173SOPE  H14S19641   4.744   5.277   9.084  0.5372  0.2158 -1.8121
  173SOPE  C21519642   4.903   5.401   9.035 -0.0441  0.1535  0.6093
  173SOPE  H15R19643   4.879   5.381   8.928 -3.2063  0.7975  1.1016
  173SOPE  H15S19644   4.977   5.322   9.061  1.4200  0.8048 -1.3324
  173SOPE  C21619645   4.976   5.546   9.042 -0.4034  0.7554  0.3915
  173SOPE  H16R19646   5.025   5.570   9.140  0.0236 -0.7428  0.5796
  173SOPE  H16S19647   4.907   5.629   9.020 -1.0063  0.0795 -0.3322
  173SOPE  C21719648   5.094   5.545   8.946  0.8870  0.3306  0.1601
  173SOPE  H17R19649   5.073   5.504   8.845  1.5905  2.4025 -0.8877
  173SOPE  H17S19650   5.184   5.490   8.982  1.9914  1.5713 -0.6264
  173SOPE  C21819651   5.153   5.685   8.935 -0.2818  0.6090 -0.0306
  173SOPE  H18R19652   5.241   5.681   8.868 -0.6632  2.4992 -0.7193
  173SOPE  H18S19653   5.181   5.704   9.041 -0.7400 -0.9584  0.4005
  173SOPE  H18T19654   5.076   5.747   8.884 -2.0284 -0.8040  0.7976
  173SOPE   C3319655   5.219   5.444  10.436 -0.2777 -0.0821  0.5143
  173SOPE   H3X19656   5.111   5.471  10.440 -0.0358  0.9108  0.7094
  173SOPE   H3Y19657   5.233   5.337  10.411  1.4319 -0.4444  2.7266
  173SOPE   C3419658   5.282   5.532  10.322 -0.7168 -0.4764  0.4047
  173SOPE   H4X19659   5.389   5.505  10.312 -0.8289 -0.5018 -0.8519
  173SOPE   H4Y19660   5.279   5.639  10.352  3.6489 -0.3601  1.0468
  173SOPE   C3519661   5.213   5.488  10.185  0.1826 -0.2133  0.4008
  173SOPE   H5X19662   5.113   5.536  10.176  1.6896  3.0080 -0.9016
  173SOPE   H5Y19663   5.216   5.377  10.183  1.2543 -0.2498  2.1323
  173SOPE   C3619664   5.293   5.535  10.059 -0.1669 -0.1651  0.5076
  173SOPE   H6X19665   5.395   5.492  10.053 -0.0801  0.1236 -0.2369
  173SOPE   H6Y19666   5.308   5.644  10.071  0.4488 -0.4309  2.5534
  173SOPE   C3719667   5.227   5.495   9.935 -0.4516  0.9133  0.1295
  173SOPE   H7X19668   5.122   5.527   9.946 -0.1304  2.0086  0.1617
  173SOPE   H7Y19669   5.214   5.386   9.918 -1.7525  1.4667 -3.1178
  173SOPE   C3819670   5.281   5.546   9.800 -0.3593  0.1862  0.0909
  173SOPE   H8X19671   5.389   5.518   9.799 -0.1989  0.7827 -1.1826
  173SOPE   H8Y19672   5.260   5.655   9.796 -1.8500 -0.0184  1.4630
  173SOPE   C3919673   5.207   5.474   9.682 -0.5342 -0.3441 -0.1271
  173SOPE   H9X19674   5.098   5.473   9.706 -0.3581 -0.0451  0.7257
  173SOPE   H9Y19675   5.248   5.371   9.688  2.2545  0.7283  0.4033
  173SOPE  C31019676   5.213   5.541   9.546 -0.2604 -0.0404 -0.6116
  173SOPE  H10X19677   5.316   5.518   9.513 -0.1755 -0.5644  0.0042
  173SOPE  H10Y19678   5.206   5.651   9.561  2.3605  0.5208 -2.6924
  173SOPE  C31119679   5.123   5.480   9.437 -0.2415  0.3784  0.8956
  173SOPE  H11X19680   5.094   5.545   9.352 -2.8971 -0.1899  1.2857
  173SOPE  H11Y19681   5.033   5.442   9.490 -0.4948 -2.5029 -1.3492
  173SOPE  C31219682   5.176   5.349   9.366  0.1253  0.0430 -0.3371
  173SOPE  H12X19683   5.086   5.306   9.317 -0.8066  1.2145  0.2805
  173SOPE  H12Y19684   5.207   5.275   9.443  0.1432  1.7612  1.3856
  173SOPE  C31319685   5.289   5.379   9.274 -0.5101 -0.4921  0.0942
  173SOPE  H13X19686   5.374   5.406   9.341 -0.0404 -1.6782 -0.0058
  173SOPE  H13Y19687   5.267   5.465   9.207 -0.6662 -0.9498 -0.4448
  173SOPE  C31419688   5.310   5.266   9.165  0.1704 -0.5906 -1.3027
  173SOPE  H14X19689   5.217   5.265   9.103 -0.9073  1.9021  0.0953
  173SOPE  H14Y19690   5.324   5.171   9.221  0.0472  0.8706  1.3405
  173SOPE  C31519691   5.433   5.305   9.075 -0.6158  0.3961  0.5108
  173SOPE  H15X19692   5.517   5.334   9.141  0.5256  0.3288 -0.8644
  173SOPE  H15Y19693   5.405   5.391   9.011  2.9563  0.3404 -1.4045
  173SOPE  C31619694   5.487   5.190   8.996  0.1303  0.9757  0.7314
  173SOPE  H16X19695   5.524   5.113   9.067 -1.2916  0.7508  1.2646
  173SOPE  H16Y19696   5.577   5.221   8.938  1.4611 -1.2737  1.4800
  173SOPE  C31719697   5.374   5.128   8.914 -0.4529  0.4687 -0.6365
  173SOPE  H17X19698   5.308   5.203   8.865 -1.6301  0.0786  0.2833
  173SOPE  H17Y19699   5.311   5.065   8.980  0.2940 -0.6803 -1.0051
  173SOPE  C31819700   5.428   5.044   8.798 -0.3668 -0.0139 -0.2763
  173SOPE  H18X19701   5.354   5.009   8.723  1.5547 -1.6195 -1.5295
  173SOPE  H18Y19702   5.485   4.957   8.838  2.7134  1.4893 -1.0998
  173SOPE  H18Z19703   5.505   5.101   8.741  1.3434 -0.1538  1.7571
  174SOPE     N19704   5.511   6.422  11.094  0.1937 -0.1444 -0.1942
  174SOPE   HN119705   5.540   6.398  11.191 -1.3567  1.0601  0.6043
  174SOPE   HN219706   5.432   6.368  11.053 -0.9550  0.5198  1.0861
  174SOPE   HN319707   5.591   6.428  11.027  1.1545  2.8478  1.0767
  174SOPE   C1219708   5.446   6.560  11.102 -0.1007  0.7118 -1.0877
  174SOPE  H12A19709   5.514   6.629  11.156 -0.0535  1.0115 -1.5313
  174SOPE  H12B19710   5.352   6.544  11.159 -0.1828 -0.1006 -1.4326
  174SOPE   C1119711   5.412   6.601  10.963  0.7783  0.5804  0.2586
  174SOPE  H11A19712   5.346   6.690  10.973  1.1137  0.8436  0.1674
  174SOPE  H11B19713   5.356   6.516  10.920  0.0001  0.6068  1.1664
  174SOPE     P19714   5.591   6.779  10.863 -0.2537 -0.2190  0.4616
  174SOPE   O1319715   5.735   6.766  10.838 -0.2176  0.7091 -0.1733
  174SOPE   O1419716   5.545   6.863  10.977 -0.3172 -0.0683 -0.8186
  174SOPE   O1219717   5.532   6.629  10.886 -0.2188  0.1136 -0.1093
  174SOPE   O1119718   5.519   6.825  10.737  0.8472 -0.1064  0.1152
  174SOPE    C119719   5.389   6.796  10.681 -0.3532 -0.1453 -0.6425
  174SOPE    HA19720   5.317   6.788  10.765  1.1225 -0.8159  0.5938
  174SOPE    HB19721   5.380   6.701  10.623 -0.7277  0.2461 -1.2368
  174SOPE    C219722   5.328   6.909  10.602 -0.4920  0.4789  0.1745
  174SOPE    HS19723   5.230   6.864  10.573  1.6408 -2.8747 -2.4946
  174SOPE   O2119724   5.421   6.949  10.494  0.1017  0.2395 -0.0168
  174SOPE   C2119725   5.455   6.863  10.402 -0.3512  0.2353  0.0123
  174SOPE   O2219726   5.396   6.759  10.387  0.1088  0.1964  0.0142
  174SOPE   C2219727   5.571   6.923  10.332 -0.2076  0.1988 -0.6310
  174SOPE   H2R19728   5.656   6.910  10.402 -2.6200 -0.2412  2.4011
  174SOPE   H2S19729   5.559   7.033  10.327  2.1976  0.6972  2.0812
  174SOPE    C319730   5.305   7.023  10.703  0.3094  0.0098  0.4472
  174SOPE    HX19731   5.405   7.039  10.750 -0.2429 -0.6740  1.9195
  174SOPE    HY19732   5.239   6.989  10.786  0.2908 -0.7410  0.1341
  174SOPE   O3119733   5.248   7.137  10.633 -0.4982 -0.4369  0.0643
  174SOPE   C3119734   5.319   7.253  10.624  0.2785  1.0431 -1.0856
  174SOPE   O3219735   5.439   7.270  10.631 -0.0296 -0.2250 -0.9360
  174SOPE   C3219736   5.220   7.362  10.589 -1.3030 -0.2556 -0.5023
  174SOPE   H2X19737   5.199   7.428  10.676  0.9098  1.1765 -0.9819
  174SOPE   H2Y19738   5.135   7.308  10.542 -0.5781 -0.9493 -1.0475
  174SOPE   C2319739   5.610   6.857  10.195 -0.1024  0.2126 -0.0470
  174SOPE   H3R19740   5.615   6.750  10.224 -0.2250 -0.2587 -1.6431
  174SOPE   H3S19741   5.704   6.892  10.148 -0.6919  0.4076 -1.1156
  174SOPE   C2419742   5.507   6.860  10.083 -0.4242 -0.0381 -0.1018
  174SOPE   H4R19743   5.558   6.801  10.004  1.6900 -0.3843  1.4313
  174SOPE   H4S19744   5.413   6.808  10.112  0.1151 -0.6536  0.5842
  174SOPE   C2519745   5.454   6.999  10.033  0.6790 -0.1882 -0.3448
  174SOPE   H5R19746   5.401   7.048  10.119 -0.3861  0.1443 -1.1637
  174SOPE   H5S19747   5.554   7.046  10.042  0.7194 -0.6247  4.0349
  174SOPE   C2619748   5.378   6.990   9.904 -0.3038  0.1051  0.1056
  174SOPE   H6R19749   5.281   6.945   9.937  0.1340  0.0196  1.3270
  174SOPE   H6S19750   5.352   7.092   9.868 -1.1147 -0.7531 -1.9005
  174SOPE   C2719751   5.446   6.924   9.779  0.3910 -0.4098  0.1902
  174SOPE   H7R19752   5.546   6.968   9.757 -0.8995  2.2149 -0.9630
  174SOPE   H7S19753   5.460   6.814   9.788  0.7568 -0.6598 -2.5824
  174SOPE   C2819754   5.355   6.938   9.646 -0.2272  0.2446  0.0556
  174SOPE   H8R19755   5.395   6.862   9.575 -0.0798  1.0336 -0.7213
  174SOPE   H8S19756   5.252   6.904   9.670 -0.6633 -1.1805 -3.3009
  174SOPE   C2919757   5.348   7.076   9.582  0.5724  0.4477 -0.6005
  174SOPE   H9119758   5.292   7.152   9.638  2.0347 -0.8454  2.8991
  174SOPE  C21019759   5.397   7.109   9.462 -0.2114  0.2010  0.1771
  174SOPE  H10119760   5.374   7.212   9.432 -2.7239 -1.1215 -2.9038
  174SOPE  C21119761   5.468   7.020   9.359 -0.7334 -0.3529  0.3678
  174SOPE  H11R19762   5.476   6.916   9.400 -0.5976 -1.6486 -2.7001
  174SOPE  H11S19763   5.574   7.050   9.345 -0.9094  2.0886  3.3236
  174SOPE  C21219764   5.380   7.017   9.231  0.0088  0.3407  0.3361
  174SOPE  H12R19765   5.376   7.120   9.190  0.1067  0.8987  1.6788
  174SOPE  H12S19766   5.280   6.983   9.266 -0.0580  0.1364 -0.0466
  174SOPE  C21319767   5.435   6.910   9.131 -0.4984 -0.5155 -0.8873
  174SOPE  H13R19768   5.351   6.841   9.108 -3.7321  1.4811  3.3850
  174SOPE  H13S19769   5.517   6.865   9.190  0.2156  2.0512  0.2385
  174SOPE  C21419770   5.519   6.945   9.009  0.0987  0.1024  0.0281
  174SOPE  H14R19771   5.620   6.980   9.040 -0.8427  2.1141  1.0230
  174SOPE  H14S19772   5.472   7.023   8.945  1.1005  1.7240  1.1579
  174SOPE  C21519773   5.547   6.833   8.909  0.6184  0.2413 -0.2849
  174SOPE  H15R19774   5.536   6.869   8.804 -0.2579  0.7928 -0.0119
  174SOPE  H15S19775   5.466   6.758   8.916  0.3021  0.6358  0.3678
  174SOPE  C21619776   5.690   6.781   8.923  0.7074 -0.0489  0.1100
  174SOPE  H16R19777   5.689   6.688   8.863 -1.9747  0.0960 -0.1679
  174SOPE  H16S19778   5.730   6.759   9.025 -0.0332  1.1136  0.6788
  174SOPE  C21719779   5.795   6.885   8.856  0.4138  0.0392  0.3793
  174SOPE  H17R19780   5.812   6.982   8.908  0.6602  0.5911 -0.7175
  174SOPE  H17S19781   5.762   6.921   8.757  1.0048 -1.3317 -0.3475
  174SOPE  C21819782   5.938   6.821   8.850 -0.3308  0.3928 -0.0697
  174SOPE  H18R19783   6.005   6.881   8.785 -2.3799 -0.6617 -3.4273
  174SOPE  H18S19784   5.928   6.722   8.802  1.4766  1.1178 -2.1160
  174SOPE  H18T19785   5.982   6.810   8.951  1.9809  0.3534 -1.0242
  174SOPE   C3319786   5.288   7.452  10.484 -0.2360 -0.0285 -0.4099
  174SOPE   H3X19787   5.393   7.477  10.513  0.5718 -1.6545 -1.7716
  174SOPE   H3Y19788   5.229   7.543  10.459  0.7345  1.0348  0.9693
  174SOPE   C3419789   5.294   7.361  10.353  0.4938 -0.0208 -0.0777
  174SOPE   H4X19790   5.187   7.339  10.337  0.8257 -1.2533 -0.7246
  174SOPE   H4Y19791   5.350   7.268  10.378 -1.4710 -1.0030  0.8537
  174SOPE   C3519792   5.367   7.443  10.245  0.1887 -0.7403 -0.1860
  174SOPE   H5X19793   5.476   7.431  10.266  0.2588  1.6192  1.1317
  174SOPE   H5Y19794   5.344   7.550  10.259 -0.4539 -0.8535 -0.3572
  174SOPE   C3619795   5.327   7.392  10.103  0.0282 -0.5139  0.0721
  174SOPE   H6X19796   5.217   7.404  10.093  0.0448 -0.4258 -0.0006
  174SOPE   H6Y19797   5.355   7.286  10.083 -0.7493 -0.4151 -1.6740
  174SOPE   C3719798   5.373   7.491   9.992 -0.0765  0.3883  0.3263
  174SOPE   H7X19799   5.480   7.503  10.018  0.0057  0.4278 -0.0224
  174SOPE   H7Y19800   5.310   7.581  10.007 -1.5521 -0.6110  0.3655
  174SOPE   C3819801   5.353   7.426   9.852  0.6630  0.3589  0.8212
  174SOPE   H8X19802   5.245   7.398   9.852  0.2604  1.8255  0.3949
  174SOPE   H8Y19803   5.410   7.331   9.843  0.0129  0.1006 -0.9543
  174SOPE   C3919804   5.384   7.521   9.732  0.6090 -1.0095 -0.0591
  174SOPE   H9X19805   5.464   7.592   9.761 -1.5888  1.0442  1.4066
  174SOPE   H9Y19806   5.293   7.584   9.734 -0.2783 -2.2564  1.5259
  174SOPE  C31019807   5.404   7.449   9.597  0.1021  0.1393 -0.3170
  174SOPE  H10X19808   5.311   7.396   9.567  0.5664 -0.0109 -1.5438
  174SOPE  H10Y19809   5.481   7.370   9.604  3.1328  2.8173 -1.2947
  174SOPE  C31119810   5.441   7.553   9.486  0.3728  0.3798  0.0514
  174SOPE  H11X19811   5.550   7.574   9.492 -0.1252  2.8412  3.9802
  174SOPE  H11Y19812   5.387   7.646   9.514  0.2969  1.7096 -3.8866
  174SOPE  C31219813   5.403   7.514   9.338 -0.3186 -0.6618  0.2936
  174SOPE  H12X19814   5.295   7.487   9.333 -0.4252 -0.1446 -0.2708
  174SOPE  H12Y19815   5.471   7.428   9.320 -0.4427 -0.6105 -0.4380
  174SOPE  C31319816   5.442   7.629   9.250 -0.1670 -0.2778 -0.1296
  174SOPE  H13X19817   5.542   7.664   9.284  0.3720 -2.0173  0.1634
  174SOPE  H13Y19818   5.385   7.722   9.270 -0.5094 -0.3247 -0.8547
  174SOPE  C31419819   5.434   7.614   9.102 -0.0110 -0.0127 -1.4140
  174SOPE  H14X19820   5.326   7.594   9.085 -0.7380  1.2114  1.1489
  174SOPE  H14Y19821   5.493   7.525   9.072  0.8552 -0.3065  0.9430
  174SOPE  C31519822   5.478   7.735   9.017 -0.0535  0.4869 -0.3845
  174SOPE  H15X19823   5.574   7.775   9.058 -0.7734  0.3232  1.5408
  174SOPE  H15Y19824   5.401   7.815   9.018  2.1477  2.7374  0.7679
  174SOPE  C31619825   5.483   7.700   8.860 -0.6764  0.5256 -0.7750
  174SOPE  H16X19826   5.382   7.672   8.824 -1.2381  0.7718  0.5336
  174SOPE  H16Y19827   5.552   7.614   8.844  0.1672  1.0604 -0.1359
  174SOPE  C31719828   5.543   7.816   8.777 -0.3685  0.2647 -0.2250
  174SOPE  H17X19829   5.640   7.850   8.820 -0.1110 -0.4636 -0.2043
  174SOPE  H17Y19830   5.486   7.908   8.800  1.3057  1.2847  0.0798
  174SOPE  C31819831   5.559   7.783   8.632 -0.0429  0.1427  0.6004
  174SOPE  H18X19832   5.615   7.866   8.585 -0.0215 -0.9360 -1.3975
  174SOPE  H18Y19833   5.460   7.784   8.583  0.9190 -0.9291 -1.5192
  174SOPE  H18Z19834   5.625   7.694   8.618 -0.5813 -0.1890  0.1343
  175SOPE     N19835   6.515   5.868  10.714  0.4418 -0.2465 -0.0663
  175SOPE   HN119836   6.550   5.783  10.667 -0.7286  0.4837 -2.4058
  175SOPE   HN219837   6.530   5.871  10.817  1.0528  0.2174 -0.1616
  175SOPE   HN319838   6.411   5.866  10.706  0.4020 -1.5739  0.5346
  175SOPE   C1219839   6.562   5.991  10.641 -1.0892 -0.5637 -0.8415
  175SOPE  H12A19840   6.538   6.082  10.700 -0.3293 -1.2520  0.5900
  175SOPE  H12B19841   6.506   5.996  10.546 -0.0988  0.0334 -1.4025
  175SOPE   C1119842   6.707   5.986  10.612 -0.4605  0.3457  0.9536
  175SOPE  H11A19843   6.749   6.017  10.709 -1.0442  3.7046  0.2386
  175SOPE  H11B19844   6.740   6.077  10.557  0.6523 -1.4832 -1.6243
  175SOPE     P19845   6.899   5.811  10.587  0.2390 -0.2852 -0.2372
  175SOPE   O1319846   6.926   5.680  10.531 -0.1395  0.2181  0.5132
  175SOPE   O1419847   6.933   5.832  10.729  0.0596  0.2060 -0.2408
  175SOPE   O1219848   6.751   5.857  10.563  0.1411  0.7172 -0.2314
  175SOPE   O1119849   6.975   5.909  10.494  0.5098 -0.1388 -0.6824
  175SOPE    C119850   6.957   5.937  10.357  0.0976 -0.0854 -0.2619
  175SOPE    HA19851   6.909   6.035  10.338 -0.8113 -0.1840  1.3533
  175SOPE    HB19852   6.887   5.867  10.306 -1.7280  0.8998  0.7961
  175SOPE    C219853   7.093   5.934  10.289  0.4615  0.3829  0.0329
  175SOPE    HS19854   7.153   6.020  10.327 -1.6536  1.1100  1.9423
  175SOPE   O2119855   7.067   5.928  10.149  0.0360  0.0581  0.1530
  175SOPE   C2119856   7.051   6.047  10.094 -0.0179  0.9064  0.4000
  175SOPE   O2219857   7.067   6.157  10.145 -0.1162  0.1542 -0.0829
  175SOPE   C2219858   6.990   6.018   9.957  0.6012 -0.2399 -0.4860
  175SOPE   H2R19859   6.881   6.043   9.962 -0.1960 -2.6040 -3.0956
  175SOPE   H2S19860   6.995   5.910   9.930  0.2520  0.4040 -3.5001
  175SOPE    C319861   7.170   5.811  10.334 -0.2824  0.7224  0.2815
  175SOPE    HX19862   7.110   5.719  10.312  1.1829  0.1788 -1.6957
  175SOPE    HY19863   7.189   5.800  10.443 -1.5161 -0.0390  0.4438
  175SOPE   O3119864   7.296   5.800  10.268  0.3148  0.0140  0.8416
  175SOPE   C3119865   7.391   5.873  10.322  0.0188 -0.1803  0.1717
  175SOPE   O3219866   7.387   5.931  10.428  0.5942 -0.1803 -0.1617
  175SOPE   C3219867   7.523   5.860  10.241  0.2963  0.1716 -0.7909
  175SOPE   H2X19868   7.596   5.812  10.309 -1.5147 -0.3452  0.8815
  175SOPE   H2Y19869   7.558   5.964  10.225 -0.8341  0.8306  0.7577
  175SOPE   C2319870   7.047   6.106   9.830  0.6443 -0.3383  0.2556
  175SOPE   H3R19871   7.155   6.122   9.853  0.8407 -0.4737 -0.5396
  175SOPE   H3S19872   6.989   6.201   9.827 -0.5641 -1.0680 -0.8350
  175SOPE   C2419873   7.029   6.041   9.698 -0.4902 -0.1532 -0.0187
  175SOPE   H4R19874   7.057   5.934   9.703 -0.9106 -0.2513  0.3520
  175SOPE   H4S19875   6.919   6.042   9.680 -0.6888  0.6119  1.1224
  175SOPE   C2519876   7.083   6.112   9.578  0.1396  0.5442 -0.0185
  175SOPE   H5R19877   7.026   6.206   9.561 -1.6726 -0.5668 -0.4740
  175SOPE   H5S19878   7.190   6.126   9.602 -0.4086  0.8994  2.4789
  175SOPE   C2619879   7.077   6.028   9.447  0.0976  0.6849  0.7276
  175SOPE   H6R19880   7.146   5.943   9.467 -0.8390  0.0615  1.3876
  175SOPE   H6S19881   6.978   5.981   9.431  0.7293 -0.5167  0.1663
  175SOPE   C2719882   7.116   6.093   9.317  0.3006 -0.6887 -0.6709
  175SOPE   H7R19883   7.061   6.187   9.297 -2.2115 -1.7615  0.7673
  175SOPE   H7S19884   7.220   6.127   9.336  0.2626 -1.2813  0.7198
  175SOPE   C2819885   7.114   6.002   9.190  0.6972  0.0079 -0.7573
  175SOPE   H8R19886   7.198   5.931   9.200  0.7032  0.2829  2.3429
  175SOPE   H8S19887   7.020   5.942   9.194 -0.2075  1.2871 -2.0229
  175SOPE   C2919888   7.141   6.082   9.065 -0.0019  0.0405 -0.7473
  175SOPE   H9119889   7.227   6.150   9.073 -0.0813  0.1283 -0.6335
  175SOPE  C21019890   7.073   6.097   8.952  0.3616 -0.5994 -0.1306
  175SOPE  H10119891   7.119   6.153   8.870 -0.1784 -0.2854 -0.2225
  175SOPE  C21119892   6.941   6.025   8.922  0.4426  0.5488 -0.0111
  175SOPE  H11R19893   6.860   6.094   8.891  1.2173  0.6243 -2.0614
  175SOPE  H11S19894   6.897   5.989   9.017 -1.4745  1.4024 -0.5226
  175SOPE  C21219895   6.946   5.891   8.840  0.6450  0.1962  0.7780
  175SOPE  H12R19896   7.019   5.812   8.868 -0.6698 -1.1189  0.5587
  175SOPE  H12S19897   6.980   5.925   8.739 -1.4629  0.0098 -0.0342
  175SOPE  C21319898   6.809   5.822   8.818 -0.0949 -0.8668 -0.4441
  175SOPE  H13R19899   6.739   5.893   8.768  2.5158  2.1311 -0.1573
  175SOPE  H13S19900   6.767   5.795   8.917 -1.2344  3.9960  0.6699
  175SOPE  C21419901   6.831   5.694   8.732  0.5945  0.3657  0.1474
  175SOPE  H14R19902   6.923   5.637   8.754 -0.4540 -1.4019  0.1229
  175SOPE  H14S19903   6.862   5.746   8.639  1.3124  0.5620  0.4925
  175SOPE  C21519904   6.703   5.613   8.717  0.3312  0.8041  0.3625
  175SOPE  H15R19905   6.629   5.695   8.716  0.2844  0.8335  2.3831
  175SOPE  H15S19906   6.686   5.555   8.810  3.3609 -0.1255  0.4628
  175SOPE  C21619907   6.709   5.507   8.602  0.6039  0.3604  0.1086
  175SOPE  H16R19908   6.736   5.560   8.508 -3.5588  1.6964 -0.5677
  175SOPE  H16S19909   6.609   5.472   8.569  0.8896  1.5546 -2.2660
  175SOPE  C21719910   6.813   5.402   8.629 -0.3109  0.0606 -0.2493
  175SOPE  H17R19911   6.798   5.356   8.729  0.6486 -0.3295 -0.2670
  175SOPE  H17S19912   6.908   5.460   8.636  0.1255 -0.7809  1.3880
  175SOPE  C21819913   6.831   5.298   8.516  0.3903  0.1124  0.3223
  175SOPE  H18R19914   6.730   5.258   8.489  0.5378  1.3572 -2.4330
  175SOPE  H18S19915   6.891   5.210   8.546  1.0346  0.4755  0.1149
  175SOPE  H18T19916   6.878   5.343   8.427 -0.7407 -0.8067 -0.7884
  175SOPE   C3319917   7.513   5.787  10.107 -0.1575  0.5067 -0.2331
  175SOPE   H3X19918   7.454   5.693  10.117  0.0158  0.5122  0.9478
  175SOPE   H3Y19919   7.619   5.761  10.088 -0.4436 -0.8336 -0.0805
  175SOPE   C3419920   7.475   5.867   9.981  0.1159 -0.0324 -0.1641
  175SOPE   H4X19921   7.554   5.945   9.970  0.4998 -0.4390 -0.3441
  175SOPE   H4Y19922   7.382   5.925   9.998 -0.7266 -2.1655  3.4946
  175SOPE   C3519923   7.479   5.793   9.845 -0.1232 -0.4352 -0.2823
  175SOPE   H5X19924   7.396   5.720   9.833  1.0442 -1.6393 -1.4008
  175SOPE   H5Y19925   7.572   5.733   9.841 -1.5180 -2.6587 -2.8299
  175SOPE   C3619926   7.479   5.893   9.733  0.9966 -0.1771 -0.3009
  175SOPE   H6X19927   7.571   5.956   9.736  1.4643 -0.8527  3.1496
  175SOPE   H6Y19928   7.391   5.955   9.758  0.9512 -0.2067 -0.3891
  175SOPE   C3719929   7.456   5.830   9.596  0.3132 -0.4721  0.8465
  175SOPE   H7X19930   7.360   5.774   9.592  0.7684 -1.1958 -0.9192
  175SOPE   H7Y19931   7.538   5.758   9.577 -1.0086 -2.2211  1.5213
  175SOPE   C3819932   7.455   5.936   9.483  0.3239 -0.0596  0.1762
  175SOPE   H8X19933   7.551   5.992   9.493  0.6634 -0.6854  0.5322
  175SOPE   H8Y19934   7.370   6.003   9.505 -0.2728 -0.6776 -0.2106
  175SOPE   C3919935   7.439   5.872   9.345 -0.2279 -0.6935 -0.1042
  175SOPE   H9X19936   7.334   5.864   9.310 -0.4156  1.8436 -0.2927
  175SOPE   H9Y19937   7.494   5.776   9.357 -0.5115 -0.6031  2.5643
  175SOPE  C31019938   7.505   5.952   9.228 -0.1530  0.4380  0.0681
  175SOPE  H10X19939   7.593   6.008   9.265 -0.0262  1.2162 -1.3557
  175SOPE  H10Y19940   7.434   6.028   9.189  1.4506  1.6248 -0.6408
  175SOPE  C31119941   7.540   5.868   9.106 -0.6094 -0.4644 -0.2252
  175SOPE  H11X19942   7.633   5.815   9.135 -0.1903  0.4011  0.0517
  175SOPE  H11Y19943   7.567   5.932   9.018  0.4048 -1.0729 -0.3701
  175SOPE  C31219944   7.433   5.755   9.081  0.2880  0.1120  1.0265
  175SOPE  H12X19945   7.330   5.796   9.078 -0.9217 -2.5688 -3.3142
  175SOPE  H12Y19946   7.444   5.679   9.161  1.7309 -1.0566 -0.2207
  175SOPE  C31319947   7.458   5.682   8.950  0.4029 -0.0880 -0.1178
  175SOPE  H13X19948   7.475   5.767   8.880 -0.3124  0.8946  0.8641
  175SOPE  H13Y19949   7.366   5.627   8.923  0.1800 -0.3622  1.1487
  175SOPE  C31419950   7.575   5.582   8.957 -0.0451 -0.7913  0.7606
  175SOPE  H14X19951   7.555   5.497   9.026  2.2131 -3.6833 -1.8666
  175SOPE  H14Y19952   7.652   5.641   9.012 -0.6162  1.1292 -0.4243
  175SOPE  C31519953   7.619   5.537   8.828 -0.1871 -0.5068  0.8486
  175SOPE  H15X19954   7.552   5.477   8.763 -2.4421  2.4637  0.2348
  175SOPE  H15Y19955   7.707   5.469   8.838  0.0383 -0.2248  0.8147
  175SOPE  C31619956   7.688   5.645   8.735  0.3331 -0.2798 -0.4123
  175SOPE  H16X19957   7.743   5.722   8.793 -0.0447  0.8667 -1.5414
  175SOPE  H16Y19958   7.594   5.687   8.694  0.8205 -0.1690 -1.4442
  175SOPE  C31719959   7.768   5.597   8.611  0.1026 -0.4991 -0.1546
  175SOPE  H17X19960   7.702   5.535   8.547 -0.3715 -0.1062 -0.0567
  175SOPE  H17Y19961   7.858   5.546   8.651  1.3365  0.5997 -1.3862
  175SOPE  C31819962   7.815   5.712   8.521  0.3454 -0.1117 -0.5736
  175SOPE  H18X19963   7.874   5.784   8.581  0.3675 -0.6324  0.0400
  175SOPE  H18Y19964   7.725   5.769   8.488 -0.9988 -0.4499  2.1357
  175SOPE  H18Z19965   7.868   5.676   8.431 -1.5596  1.4188 -2.4116
  176SOPE     N19966   6.557   0.992  10.711 -0.2051 -0.1380 -0.5295
  176SOPE   HN119967   6.547   0.976  10.813  0.1793  1.5613 -0.1980
  176SOPE   HN219968   6.588   1.091  10.711 -1.0384  0.1722  1.6282
  176SOPE   HN319969   6.465   0.986  10.663 -2.0877 -2.7338  2.9252
  176SOPE   C1219970   6.637   0.889  10.649  0.2220  1.1068  0.5906
  176SOPE  H12A19971   6.726   0.856  10.707  2.8492 -0.1052 -3.7295
  176SOPE  H12B19972   6.675   0.930  10.553 -0.7514  1.1413  0.2119
  176SOPE   C1119973   6.554   0.759  10.631  0.7056  0.0617  1.2651
  176SOPE  H11A19974   6.626   0.692  10.581  0.9150  0.1854  1.4006
  176SOPE  H11B19975   6.466   0.788  10.569  1.6512 -1.7984 -1.1152
  176SOPE     P19976   6.401   0.593  10.769  0.0855 -0.2443  0.4563
  176SOPE   O1319977   6.358   0.591  10.906 -0.4069 -0.0518 -0.4624
  176SOPE   O1419978   6.451   0.462  10.720 -0.6114 -0.1155 -0.0124
  176SOPE   O1219979   6.510   0.702  10.756 -0.0396  0.3320  0.4935
  176SOPE   O1119980   6.289   0.647  10.670 -0.2733 -0.3934  1.0073
  176SOPE    C119981   6.245   0.554  10.560  0.2127 -0.0211  0.3463
  176SOPE    HA19982   6.136   0.570  10.546  0.2383 -1.3566 -1.7072
  176SOPE    HB19983   6.240   0.448  10.591  0.5388 -0.3063 -0.5767
  176SOPE    C219984   6.318   0.578  10.430 -0.4460  0.1125 -0.2424
  176SOPE    HS19985   6.421   0.559  10.465 -1.3946 -1.7286  1.7808
  176SOPE   O2119986   6.303   0.712  10.372 -0.4252 -0.0234 -0.2935
  176SOPE   C2119987   6.408   0.761  10.300  0.7092  0.0965 -0.1615
  176SOPE   O2219988   6.515   0.703  10.297 -0.9607  0.0847  0.1696
  176SOPE   C2219989   6.378   0.891  10.229 -0.7314 -0.0863 -0.2629
  176SOPE   H2R19990   6.446   0.969  10.270  0.7821 -1.7283  0.4840
  176SOPE   H2S19991   6.270   0.917  10.235 -0.7426 -0.0367 -0.6415
  176SOPE    C319992   6.286   0.470  10.326  0.5800 -0.5233 -0.1468
  176SOPE    HX19993   6.180   0.493  10.304 -0.0196 -1.5186  1.4945
  176SOPE    HY19994   6.298   0.371  10.376  0.1701 -0.6483 -0.2895
  176SOPE   O3119995   6.357   0.482  10.199 -0.2864  0.8896 -0.6983
  176SOPE   C3119996   6.470   0.412  10.202  0.3623 -0.4769 -0.3263
  176SOPE   O3219997   6.499   0.325  10.275 -0.1225 -0.5765 -0.3831
  176SOPE   C3219998   6.557   0.454  10.081  1.0669  0.1334  1.0583
  176SOPE   H2X19999   6.664   0.430  10.099  1.1121 -1.6446 -1.2165
  176SOPE   H2Y20000   6.542   0.563  10.074 -0.4933 -0.1593 -1.1293
  176SOPE   C2320001   6.405   0.869  10.078 -0.4572 -0.2057  0.2529
  176SOPE   H3R20002   6.506   0.840  10.043 -0.9799 -2.7057  0.6681
  176SOPE   H3S20003   6.395   0.970  10.033 -2.0113  0.3037  1.6091
  176SOPE   C2420004   6.310   0.770  10.017  0.0287  0.6279 -0.8344
  176SOPE   H4R20005   6.357   0.670  10.025 -1.7801 -0.5172 -3.3174
  176SOPE   H4S20006   6.221   0.771  10.084  0.5919  0.1256 -0.0645
  176SOPE   C2520007   6.266   0.797   9.874 -0.3120 -0.3008  0.5491
  176SOPE   H5R20008   6.230   0.902   9.870 -0.1575 -0.2679 -0.0063
  176SOPE   H5S20009   6.360   0.777   9.817  0.0759  1.7607  0.3882
  176SOPE   C2620010   6.150   0.704   9.824 -0.0240  0.7854 -1.0517
  176SOPE   H6R20011   6.068   0.712   9.899  0.5287  0.7053 -0.4214
  176SOPE   H6S20012   6.110   0.736   9.726 -0.3446 -0.4541 -1.3481
  176SOPE   C2720013   6.183   0.555   9.804 -0.0224  0.7328  0.1301
  176SOPE   H7R20014   6.214   0.519   9.904 -0.4638  1.6308  0.6047
  176SOPE   H7S20015   6.090   0.500   9.778  1.9898 -2.6175 -0.6047
  176SOPE   C2820016   6.291   0.522   9.699  0.1260  0.0205 -0.4109
  176SOPE   H8R20017   6.385   0.558   9.747  0.5011 -1.2386 -0.1822
  176SOPE   H8S20018   6.300   0.412   9.692  0.5286  0.1613 -2.7466
  176SOPE   C2920019   6.276   0.593   9.572 -0.4324 -0.2998 -0.4230
  176SOPE   H9120020   6.234   0.693   9.586  1.1094  0.5597 -1.5972
  176SOPE  C21020021   6.278   0.544   9.448 -0.1945 -0.6231  0.1843
  176SOPE  H10120022   6.269   0.617   9.367 -1.5798 -1.9126 -0.8909
  176SOPE  C21120023   6.309   0.396   9.413 -0.2007  0.0341 -0.8218
  176SOPE  H11R20024   6.292   0.338   9.506 -0.9612 -0.3220 -1.1725
  176SOPE  H11S20025   6.416   0.375   9.388 -0.3053 -1.1945 -0.3208
  176SOPE  C21220026   6.236   0.348   9.290  0.0104  0.3713  0.2962
  176SOPE  H12R20027   6.130   0.379   9.303 -1.6306 -2.6770 -3.6365
  176SOPE  H12S20028   6.220   0.241   9.264 -0.2996  0.9933 -2.3113
  176SOPE  C21320029   6.289   0.408   9.155 -0.5670 -0.5763  0.2215
  176SOPE  H13R20030   6.398   0.386   9.157 -0.4453  0.0514  0.9434
  176SOPE  H13S20031   6.282   0.519   9.155  4.7116  0.0191  0.6657
  176SOPE  C21420032   6.231   0.346   9.027  0.9307  0.0092 -0.1803
  176SOPE  H14R20033   6.120   0.343   9.033  0.9579  0.1946  0.4893
  176SOPE  H14S20034   6.276   0.247   9.004  1.6338  0.4738 -0.8581
  176SOPE  C21520035   6.254   0.444   8.910  0.9824 -0.4885  1.2116
  176SOPE  H15R20036   6.363   0.455   8.890  1.0263 -3.6158 -1.1554
  176SOPE  H15S20037   6.211   0.544   8.929 -2.3099 -1.2190 -1.4741
  176SOPE  C21620038   6.191   0.391   8.777  0.5471 -0.5989  0.0187
  176SOPE  H16R20039   6.173   0.467   8.699  0.6392 -1.0473 -0.4477
  176SOPE  H16S20040   6.094   0.348   8.812  1.0418 -2.6193 -0.9185
  176SOPE  C21720041   6.256   0.265   8.720 -0.2342  0.1579 -1.2516
  176SOPE  H17R20042   6.244   0.186   8.798 -1.5701  1.5745  0.0625
  176SOPE  H17S20043   6.366   0.277   8.713 -0.3692  2.1703 -0.6362
  176SOPE  C21820044   6.208   0.223   8.588  0.5840 -0.3192  0.4501
  176SOPE  H18R20045   6.238   0.308   8.523  0.0638 -1.2678 -1.0726
  176SOPE  H18S20046   6.097   0.214   8.581  0.4358  1.5210 -0.1409
  176SOPE  H18T20047   6.256   0.136   8.539 -1.0294 -0.0464 -1.7966
  176SOPE   C3320048   6.518   0.388   9.953  0.1275 -0.0314 -0.1832
  176SOPE   H3X20049   6.579   0.425   9.867 -0.5183  3.1990  0.6112
  176SOPE   H3Y20050   6.415   0.422   9.928 -0.4483 -2.1025 -0.8171
  176SOPE   C3420051   6.524   0.231   9.957 -0.3725 -0.1322  0.3024
  176SOPE   H4X20052   6.490   0.198   9.856  2.1862 -0.2198 -0.5934
  176SOPE   H4Y20053   6.457   0.196  10.038  0.6425  2.3946  2.3692
  176SOPE   C3520054   6.664   0.177   9.999  0.1262  0.2350 -0.3458
  176SOPE   H5X20055   6.679   0.067  10.000  2.4840  0.5106  1.0304
  176SOPE   H5Y20056   6.677   0.196  10.108 -2.0943 -0.3930  0.0843
  176SOPE   C3620057   6.782   0.236   9.913 -0.5995  0.1459 -0.1060
  176SOPE   H6X20058   6.872   0.230   9.978 -2.3353  0.7872  2.5356
  176SOPE   H6Y20059   6.780   0.346   9.898  1.2010  0.0865 -1.0311
  176SOPE   C3720060   6.796   0.174   9.771  0.0072  0.1742 -0.6369
  176SOPE   H7X20061   6.781   0.065   9.787  2.4584 -0.0829  0.2331
  176SOPE   H7Y20062   6.901   0.187   9.736  0.7248 -1.3765  0.8192
  176SOPE   C3820063   6.705   0.228   9.649 -0.1826  0.6059  0.3089
  176SOPE   H8X20064   6.697   0.338   9.638 -0.9512  0.4729 -0.6103
  176SOPE   H8Y20065   6.602   0.188   9.666  1.1337 -3.4014  0.0098
  176SOPE   C3920066   6.753   0.172   9.516  0.4758  0.2774  0.4049
  176SOPE   H9X20067   6.772   0.062   9.522 -0.5455  0.0019 -1.0387
  176SOPE   H9Y20068   6.850   0.224   9.501  1.2331 -0.4109  2.4843
  176SOPE  C31020069   6.667   0.206   9.396  0.2184  0.4952 -0.8214
  176SOPE  H10X20070   6.684   0.313   9.375 -1.0916  1.0379  0.7309
  176SOPE  H10Y20071   6.561   0.181   9.417  0.0526 -0.5171 -2.6027
  176SOPE  C31120072   6.714   0.138   9.267 -0.2347  0.4302 -0.8178
  176SOPE  H11X20073   6.704   0.029   9.285 -0.2459  0.9663  3.3600
  176SOPE  H11Y20074   6.815   0.181   9.247 -0.6933  1.7197 -0.4707
  176SOPE  C31220075   6.617   0.177   9.158  0.2601 -0.4744 -0.0946
  176SOPE  H12X20076   6.649   0.273   9.111  0.4195 -1.5090 -2.1771
  176SOPE  H12Y20077   6.511   0.175   9.189  0.0838  0.7541 -0.5614
  176SOPE  C31320078   6.616   0.076   9.043 -0.3975  0.4459  0.1506
  176SOPE  H13X20079   6.603  -0.029   9.075  2.5173 -0.1256 -0.2971
  176SOPE  H13Y20080   6.715   0.075   8.993 -0.3377  1.3882  0.2218
  176SOPE  C31420081   6.511   0.107   8.934  0.6863  0.4123  0.0243
  176SOPE  H14X20082   6.546   0.206   8.900  2.3912 -0.1278  0.1288
  176SOPE  H14Y20083   6.408   0.113   8.976  0.7046 -2.0198  0.6087
  176SOPE  C31520084   6.502  -0.004   8.824 -0.2405 -0.5158 -0.1123
  176SOPE  H15X20085   6.426   0.040   8.757 -1.1382 -0.1139  1.1320
  176SOPE  H15Y20086   6.463  -0.103   8.856 -0.7468 -0.3651 -0.2532
  176SOPE  C31620087   6.633  -0.020   8.738 -0.8659  0.5558  0.2711
  176SOPE  H16X20088   6.706  -0.070   8.806 -1.3457  0.3367  0.6309
  176SOPE  H16Y20089   6.659   0.084   8.710 -2.5458  0.5865 -1.3271
  176SOPE  C31720090   6.622  -0.112   8.618 -0.3502 -0.2227 -0.2109
  176SOPE  H17X20091   6.554  -0.080   8.536  2.3920  0.9019 -2.2269
  176SOPE  H17Y20092   6.599  -0.217   8.645 -1.0179  0.1221  0.5987
  176SOPE  C31820093   6.760  -0.126   8.545  1.3341  0.0304 -0.0675
  176SOPE  H18X20094   6.832  -0.176   8.614 -1.5087 -2.4971  1.3201
  176SOPE  H18Y20095   6.808  -0.031   8.512  3.8819 -1.2178 -0.2390
  176SOPE  H18Z20096   6.737  -0.196   8.462 -1.7022 -1.1230  1.5773
  177SOPE     N20097   5.083   3.919  10.921  0.2246 -0.9695  0.1208
  177SOPE   HN120098   5.119   3.970  11.005  0.1128 -0.1263 -0.3282
  177SOPE   HN220099   5.066   3.819  10.942  1.3498 -1.3361 -0.6699
  177SOPE   HN320100   5.151   3.930  10.844 -0.7608  1.1929 -0.5356
  177SOPE   C1220101   4.954   3.997  10.880 -0.1496  0.0692 -0.2188
  177SOPE  H12A20102   4.874   3.969  10.952  0.2378 -0.2865  0.0794
  177SOPE  H12B20103   4.929   3.966  10.777  0.6633 -2.3252  0.2457
  177SOPE   C1120104   4.970   4.156  10.888 -0.9006  0.2627  0.0072
  177SOPE  H11A20105   4.888   4.191  10.822 -1.0990  1.4449  0.8461
  177SOPE  H11B20106   5.067   4.184  10.842 -0.0404 -1.6937  0.5136
  177SOPE     P20107   5.033   4.189  11.138  0.1295 -0.6002 -0.1069
  177SOPE   O1320108   5.123   4.074  11.126  0.3075  0.3411 -0.6348
  177SOPE   O1420109   4.951   4.188  11.262 -0.7940 -0.5942 -0.0828
  177SOPE   O1220110   4.941   4.200  11.013  0.2625 -0.0847  0.4297
  177SOPE   O1120111   5.117   4.320  11.123 -0.1569  0.0448 -0.2145
  177SOPE    C120112   5.062   4.450  11.137  0.2215  0.0028  0.0451
  177SOPE    HA20113   5.122   4.511  11.209  1.4288 -2.5588  1.3597
  177SOPE    HB20114   4.952   4.452  11.154  0.3383  0.5528  0.7914
  177SOPE    C220115   5.093   4.511  11.004 -0.2814  0.4818 -0.5476
  177SOPE    HS20116   5.067   4.447  10.916 -0.4265 -0.9520  0.4914
  177SOPE   O2120117   5.241   4.545  10.998  0.2773  0.2828  0.1777
  177SOPE   C2120118   5.298   4.511  10.884 -0.1920 -0.4026 -0.0848
  177SOPE   O2220119   5.239   4.461  10.791  0.4800  0.8353  0.3005
  177SOPE   C2220120   5.442   4.546  10.895 -0.7670  0.0383  0.2453
  177SOPE   H2R20121   5.494   4.480  10.968  0.0363  1.0203  0.5758
  177SOPE   H2S20122   5.454   4.651  10.927  0.6511 -0.7184  2.4480
  177SOPE    C320123   5.010   4.640  10.986 -0.0395 -0.0538  0.0785
  177SOPE    HX20124   5.021   4.715  11.067 -2.0861 -0.6549  0.9770
  177SOPE    HY20125   4.902   4.622  11.006 -0.0899  0.5843  0.4179
  177SOPE   O3120126   5.016   4.699  10.851 -0.1516  0.3364  0.3989
  177SOPE   C3120127   5.107   4.792  10.839 -0.2029 -0.3254  0.1241
  177SOPE   O3220128   5.173   4.841  10.925 -0.0514 -0.2894  0.2598
  177SOPE   C3220129   5.102   4.840  10.690 -0.5744  0.3095  0.4023
  177SOPE   H2X20130   5.022   4.787  10.635  2.0349 -3.3075 -0.2886
  177SOPE   H2Y20131   5.200   4.820  10.642 -1.6159  0.4839 -1.9426
  177SOPE   C2320132   5.513   4.517  10.761  0.2047  0.2616  0.1012
  177SOPE   H3R20133   5.477   4.418  10.726 -0.0118  0.2537  0.3425
  177SOPE   H3S20134   5.623   4.510  10.774  0.1280 -0.3045  0.4726
  177SOPE   C2420135   5.471   4.602  10.644  0.5304  0.5110  0.1173
  177SOPE   H4R20136   5.364   4.598  10.617 -0.0974  3.2079  1.7947
  177SOPE   H4S20137   5.485   4.709  10.669 -1.0349  0.6659  0.4327
  177SOPE   C2520138   5.577   4.580  10.530 -0.0111 -0.1925  0.7318
  177SOPE   H5R20139   5.677   4.596  10.575 -0.2940 -1.6270  1.9430
  177SOPE   H5S20140   5.562   4.476  10.494  0.0579  0.2128 -0.5439
  177SOPE   C2620141   5.553   4.671  10.405 -0.0451  0.1073  0.0207
  177SOPE   H6R20142   5.456   4.658  10.353 -0.1623  0.9847  0.0114
  177SOPE   H6S20143   5.540   4.773  10.447  0.8899  0.2615 -0.0255
  177SOPE   C2720144   5.671   4.648  10.302  0.5127  0.1635 -0.4785
  177SOPE   H7R20145   5.667   4.741  10.242 -0.8707  0.6416  0.3283
  177SOPE   H7S20146   5.763   4.641  10.363 -1.6752 -2.7227  2.9013
  177SOPE   C2820147   5.648   4.521  10.210 -0.1803 -0.7189 -0.1230
  177SOPE   H8R20148   5.629   4.428  10.268  0.2882  0.3817  1.8755
  177SOPE   H8S20149   5.556   4.543  10.152  0.0690  1.9437  0.3481
  177SOPE   C2920150   5.771   4.489  10.138 -0.2315  0.1225 -0.0697
  177SOPE   H9120151   5.845   4.431  10.195 -0.8860  0.5224  1.2220
  177SOPE  C21020152   5.789   4.529  10.011  0.5507  0.1885 -0.3384
  177SOPE  H10120153   5.882   4.508   9.955  0.4050 -0.5901 -0.3039
  177SOPE  C21120154   5.696   4.621   9.930 -0.7718  0.0898  0.4627
  177SOPE  H11R20155   5.716   4.728   9.952  1.9537 -0.6585  2.1086
  177SOPE  H11S20156   5.588   4.611   9.956 -0.8187  1.0351  0.6637
  177SOPE  C21220157   5.709   4.611   9.779  0.5971 -0.7460 -0.3248
  177SOPE  H12R20158   5.813   4.634   9.750 -0.0692 -0.0617 -2.3426
  177SOPE  H12S20159   5.648   4.691   9.731 -1.3793 -1.4493  0.8523
  177SOPE  C21320160   5.668   4.478   9.726  0.6455 -0.2651 -0.0857
  177SOPE  H13R20161   5.579   4.450   9.787  0.9602  0.2933  0.6485
  177SOPE  H13S20162   5.742   4.402   9.758  0.9288  0.2206  0.4366
  177SOPE  C21420163   5.655   4.465   9.569  0.5835  0.0758  0.0017
  177SOPE  H14R20164   5.755   4.501   9.537  0.1084  1.7518  0.2858
  177SOPE  H14S20165   5.569   4.527   9.534 -0.6345 -0.6272  1.5738
  177SOPE  C21520166   5.640   4.324   9.510 -0.3419 -0.3842 -0.6717
  177SOPE  H15R20167   5.550   4.273   9.549  0.7085 -1.0544  1.0423
  177SOPE  H15S20168   5.735   4.278   9.546 -0.1088  0.8091  0.3376
  177SOPE  C21620169   5.638   4.334   9.363  0.5144 -0.3698  0.1289
  177SOPE  H16R20170   5.726   4.395   9.336  1.5475 -0.6454  2.6593
  177SOPE  H16S20171   5.546   4.386   9.327 -0.7066 -0.9456  2.2377
  177SOPE  C21720172   5.658   4.200   9.297  0.1027 -0.0753 -0.2938
  177SOPE  H17R20173   5.559   4.149   9.296  0.0342  0.0435  0.0486
  177SOPE  H17S20174   5.724   4.132   9.354 -1.3765 -3.1782 -2.0282
  177SOPE  C21820175   5.709   4.208   9.160  0.0184  0.1264 -0.5130
  177SOPE  H18R20176   5.735   4.111   9.114  0.5606  0.5606 -1.1380
  177SOPE  H18S20177   5.797   4.275   9.153 -0.0921  0.4689  0.9810
  177SOPE  H18T20178   5.620   4.242   9.102  1.0702  0.6167 -1.9005
  177SOPE   C3320179   5.081   4.992  10.674  0.3388  0.5507 -0.3695
  177SOPE   H3X20180   5.151   5.027  10.753  3.0238 -0.9655 -1.9181
  177SOPE   H3Y20181   4.975   5.006  10.704  0.1099 -1.1418 -0.3317
  177SOPE   C3420182   5.118   5.063  10.541 -0.4090 -0.1555 -0.1205
  177SOPE   H4X20183   5.226   5.046  10.520  0.0172  0.7730  1.2205
  177SOPE   H4Y20184   5.107   5.173  10.549  1.4344  0.3805 -3.1553
  177SOPE   C3520185   5.045   5.003  10.421 -0.6940 -0.8649  0.4702
  177SOPE   H5X20186   4.935   5.018  10.432 -0.5133  1.9717 -0.7106
  177SOPE   H5Y20187   5.051   4.892  10.429 -1.4282 -1.2400 -2.6339
  177SOPE   C3620188   5.094   5.055  10.287 -0.4340 -0.9217  0.9692
  177SOPE   H6X20189   5.199   5.033  10.259 -0.9486 -1.1890 -0.8791
  177SOPE   H6Y20190   5.078   5.164  10.300  0.3880 -0.5418 -0.8330
  177SOPE   C3720191   4.996   5.021  10.174 -0.2690  0.1871  0.0370
  177SOPE   H7X20192   4.897   5.067  10.190  0.0661  1.2575 -0.8666
  177SOPE   H7Y20193   4.970   4.913  10.173 -1.4022  0.4443 -2.3451
  177SOPE   C3820194   5.045   5.073  10.042  0.4196 -0.1801  0.2796
  177SOPE   H8X20195   5.154   5.060  10.027 -0.0112 -0.7432 -3.1198
  177SOPE   H8Y20196   5.034   5.182  10.021 -0.0633  0.6651  4.1909
  177SOPE   C3920197   4.972   4.994   9.931  0.4203 -0.1127  0.0307
  177SOPE   H9X20198   4.867   5.026   9.941  0.5091  0.9456 -1.8414
  177SOPE   H9Y20199   4.973   4.883   9.938 -0.1309 -0.1759 -0.6969
  177SOPE  C31020200   5.038   5.026   9.794  0.3275 -0.2581  0.4748
  177SOPE  H10X20201   5.147   5.007   9.787  0.4467  0.3931  0.4628
  177SOPE  H10Y20202   5.029   5.137   9.783  2.4145  0.1673  2.2657
  177SOPE  C31120203   4.959   4.950   9.681  0.7478  0.0772  0.0941
  177SOPE  H11X20204   4.862   5.003   9.670  2.2667  2.5357 -2.7928
  177SOPE  H11Y20205   4.932   4.849   9.719  0.3174  0.5862  1.1881
  177SOPE  C31220206   5.011   4.955   9.538  0.2489 -0.9624 -0.2605
  177SOPE  H12X20207   5.026   5.063   9.518 -0.9574 -0.6783  0.2949
  177SOPE  H12Y20208   4.937   4.906   9.471 -1.2725 -2.6116  2.4479
  177SOPE  C31320209   5.163   4.908   9.520 -0.0619 -0.0966  0.5403
  177SOPE  H13X20210   5.172   4.805   9.561 -1.4561  0.3800  2.1475
  177SOPE  H13Y20211   5.219   4.974   9.590 -0.1767  0.2521  0.3074
  177SOPE  C31420212   5.204   4.921   9.376 -0.3997  0.4850 -0.2645
  177SOPE  H14X20213   5.211   5.023   9.332  4.1070 -0.2661 -1.8337
  177SOPE  H14Y20214   5.130   4.872   9.310 -1.1797  2.1749 -0.6899
  177SOPE  C31520215   5.338   4.847   9.363 -0.1178 -0.0512  0.3673
  177SOPE  H15X20216   5.350   4.798   9.264 -0.8203  1.1633 -0.3420
  177SOPE  H15Y20217   5.344   4.767   9.440  0.9656 -0.8146 -0.4634
  177SOPE  C31620218   5.466   4.937   9.384 -0.5147  0.4740  0.3527
  177SOPE  H16X20219   5.495   4.929   9.491 -0.8189  0.2675  0.4229
  177SOPE  H16Y20220   5.436   5.042   9.363 -0.6961  0.4214  0.3469
  177SOPE  C31720221   5.589   4.892   9.304  0.0209  0.3599  0.8622
  177SOPE  H17X20222   5.671   4.966   9.312  1.3938 -0.9236 -0.7503
  177SOPE  H17Y20223   5.564   4.905   9.197  1.3478  0.4264  0.5495
  177SOPE  C31820224   5.644   4.765   9.356  0.1254  0.6643  0.6068
  177SOPE  H18X20225   5.630   4.765   9.466 -1.2870  1.0166  0.4466
  177SOPE  H18Y20226   5.749   4.750   9.324 -0.6440 -1.3773 -1.1783
  177SOPE  H18Z20227   5.606   4.666   9.325  2.7581  0.1777 -1.4925
  178SOPE     N20228   2.508   3.363  10.921 -0.3520  0.1295 -0.0870
  178SOPE   HN120229   2.554   3.421  10.993  1.2184  0.2987 -1.1785
  178SOPE   HN220230   2.407   3.369  10.947 -0.9292  1.3591 -2.3148
  178SOPE   HN320231   2.545   3.266  10.921  0.7984  0.5404  1.8258
  178SOPE   C1220232   2.524   3.420  10.783 -0.3422  0.2223 -0.0449
  178SOPE  H12A20233   2.632   3.448  10.773 -0.1408 -1.1843 -2.3318
  178SOPE  H12B20234   2.459   3.510  10.782 -1.9591 -0.9097 -0.4263
  178SOPE   C1120235   2.495   3.322  10.669  0.0698 -0.5750 -0.3477
  178SOPE  H11A20236   2.574   3.243  10.670  1.0513  0.3914 -0.3360
  178SOPE  H11B20237   2.495   3.357  10.563  2.1005 -2.7503 -1.1560
  178SOPE     P20238   2.316   3.118  10.695 -0.1860  0.1753  0.4059
  178SOPE   O1320239   2.168   3.112  10.692  0.1672  0.3997 -0.8467
  178SOPE   O1420240   2.389   3.043  10.792  0.4455  0.2285  0.5482
  178SOPE   O1220241   2.363   3.272  10.696  0.0625 -0.2909  0.3691
  178SOPE   O1120242   2.365   3.082  10.553 -0.0179  0.3540 -0.5001
  178SOPE    C120243   2.338   3.154  10.436  0.1911  0.0827  0.2595
  178SOPE    HA20244   2.337   3.265  10.441  2.2128  0.2350 -1.0843
  178SOPE    HB20245   2.238   3.120  10.401 -0.4788  0.8278  1.4036
  178SOPE    C220246   2.448   3.111  10.338 -0.2223 -0.0379  0.0534
  178SOPE    HS20247   2.449   3.000  10.333  0.6035 -0.0894  0.9851
  178SOPE   O2120248   2.576   3.182  10.371  0.1913  0.5150 -0.2094
  178SOPE   C2120249   2.667   3.106  10.429  0.0826  0.6678 -0.4462
  178SOPE   O2220250   2.649   2.989  10.469 -0.4781 -0.3039 -0.1060
  178SOPE   C2220251   2.805   3.179  10.431  0.0770 -0.1952  0.0243
  178SOPE   H2R20252   2.893   3.112  10.434  1.3895  1.4783  0.9043
  178SOPE   H2S20253   2.804   3.234  10.528  1.7879  0.3217 -0.2344
  178SOPE    C320254   2.418   3.161  10.192 -1.0817 -0.4329 -0.5356
  178SOPE    HX20255   2.492   3.110  10.127 -0.2878  0.3199 -0.2347
  178SOPE    HY20256   2.444   3.268  10.185  0.9321 -0.8619 -0.3249
  178SOPE   O3120257   2.279   3.128  10.160  0.6899  0.2656  0.3977
  178SOPE   C3120258   2.243   3.002  10.126  0.1360 -0.6407  0.1881
  178SOPE   O3220259   2.307   2.899  10.129 -0.0826  0.0924  0.3472
  178SOPE   C3220260   2.104   3.024  10.063  0.4262  0.1513  0.2401
  178SOPE   H2X20261   2.095   3.119  10.007 -2.0574 -0.2777 -0.2112
  178SOPE   H2Y20262   2.027   3.027  10.144 -0.0367  2.0052 -0.2129
  178SOPE   C2320263   2.820   3.282  10.321 -0.3835 -0.8651 -0.1446
  178SOPE   H3R20264   2.906   3.351  10.338 -0.9696  0.0176 -0.7486
  178SOPE   H3S20265   2.728   3.342  10.312 -0.6465 -1.3672 -0.8949
  178SOPE   C2420266   2.836   3.224  10.179 -0.8113 -0.5341  0.4780
  178SOPE   H4R20267   2.929   3.166  10.157 -0.8634  0.0345 -1.4623
  178SOPE   H4S20268   2.756   3.150  10.156 -1.3043 -0.4044  1.7167
  178SOPE   C2520269   2.833   3.343  10.077  1.0702 -0.4944 -0.7793
  178SOPE   H5R20270   2.734   3.393  10.081  1.6254  0.5371  1.2961
  178SOPE   H5S20271   2.905   3.416  10.119  2.8182 -1.8150 -1.2966
  178SOPE   C2620272   2.878   3.290   9.937 -0.0617  0.3516  0.2511
  178SOPE   H6R20273   2.984   3.258   9.945  0.2516  1.0569 -0.7827
  178SOPE   H6S20274   2.804   3.214   9.905 -2.4578  2.9147 -0.7049
  178SOPE   C2720275   2.867   3.404   9.834 -0.1411 -0.7165 -0.5367
  178SOPE   H7R20276   2.760   3.431   9.827 -0.0076 -0.3156 -1.1289
  178SOPE   H7S20277   2.915   3.499   9.866 -0.8000  0.4514 -2.8015
  178SOPE   C2820278   2.918   3.374   9.688 -0.0243  0.3880  0.7813
  178SOPE   H8R20279   3.025   3.344   9.698 -0.5842 -1.7550  0.7736
  178SOPE   H8S20280   2.862   3.288   9.647  1.4773  0.1009 -0.8145
  178SOPE   C2920281   2.899   3.495   9.600  0.9699  0.3157  0.7381
  178SOPE   H9120282   2.967   3.581   9.607 -0.2772  1.2830  1.2113
  178SOPE  C21020283   2.785   3.517   9.532  0.0185  0.1356  0.5429
  178SOPE  H10120284   2.786   3.592   9.452 -1.4020 -1.9350 -1.5714
  178SOPE  C21120285   2.664   3.428   9.527  0.0423 -0.3826  0.2597
  178SOPE  H11R20286   2.572   3.489   9.517  0.4993  0.6780  1.9577
  178SOPE  H11S20287   2.654   3.368   9.620 -0.6921 -2.9815 -1.4062
  178SOPE  C21220288   2.677   3.309   9.421  0.1389 -0.8798 -0.1383
  178SOPE  H12R20289   2.576   3.263   9.431 -1.0146  1.3728 -0.7723
  178SOPE  H12S20290   2.756   3.234   9.443  3.3234  1.5764 -2.2523
  178SOPE  C21320291   2.700   3.349   9.274 -0.2149  0.4222  0.4975
  178SOPE  H13R20292   2.720   3.267   9.201 -3.5885  0.0050 -0.1656
  178SOPE  H13S20293   2.777   3.428   9.261  2.0559 -1.5861  1.0434
  178SOPE  C21420294   2.584   3.431   9.213  0.3535 -0.2346 -0.6030
  178SOPE  H14R20295   2.561   3.519   9.276  2.0340 -1.0629  1.3054
  178SOPE  H14S20296   2.491   3.369   9.216  0.3490 -0.1963  0.3813
  178SOPE  C21520297   2.617   3.482   9.075 -0.2713  0.6168 -0.6171
  178SOPE  H15R20298   2.677   3.401   9.029 -0.5209 -0.6556  1.1842
  178SOPE  H15S20299   2.682   3.567   9.107 -0.7990  0.0875  2.1215
  178SOPE  C21620300   2.503   3.538   8.992 -0.3990  0.0811 -0.4144
  178SOPE  H16R20301   2.440   3.457   8.950  0.2118 -0.6153 -0.0414
  178SOPE  H16S20302   2.561   3.578   8.906  1.5187 -0.6215  0.4779
  178SOPE  C21720303   2.430   3.648   9.071  0.0193 -0.4233  0.1720
  178SOPE  H17R20304   2.515   3.695   9.124 -0.2965  2.5072 -1.6994
  178SOPE  H17S20305   2.370   3.597   9.148  1.2238 -2.4375 -0.1511
  178SOPE  C21820306   2.358   3.756   8.990 -0.1269 -1.0710  0.0795
  178SOPE  H18R20307   2.313   3.833   9.056  0.1331  0.4130 -1.4106
  178SOPE  H18S20308   2.277   3.719   8.924  1.4150  0.9038 -3.1897
  178SOPE  H18T20309   2.430   3.805   8.920 -0.2431  0.5779  1.0764
  178SOPE   C3320310   2.057   2.925   9.954 -0.5567 -0.2277  0.2917
  178SOPE   H3X20311   1.965   2.974   9.914 -0.9382 -1.5620 -0.5107
  178SOPE   H3Y20312   2.032   2.827   9.999  0.5350 -1.2279 -1.1744
  178SOPE   C3420313   2.156   2.890   9.836 -0.0716 -0.2992 -0.3620
  178SOPE   H4X20314   2.237   2.831   9.883 -0.9893 -1.1132  0.2595
  178SOPE   H4Y20315   2.201   2.984   9.799 -0.0635  0.0762  0.5687
  178SOPE   C3520316   2.085   2.797   9.731  0.1370 -0.4134  0.5334
  178SOPE   H5X20317   2.011   2.858   9.674  0.2555  0.1837  1.0074
  178SOPE   H5Y20318   2.034   2.719   9.792  1.2405 -1.0601  0.6464
  178SOPE   C3620319   2.184   2.739   9.621 -0.2816  0.2658  0.2339
  178SOPE   H6X20320   2.265   2.686   9.676  0.4867  2.4790  1.3675
  178SOPE   H6Y20321   2.213   2.828   9.563  1.1500 -0.1003  0.3298
  178SOPE   C3720322   2.113   2.641   9.532  0.0776  0.3973  0.0724
  178SOPE   H7X20323   2.011   2.685   9.529 -0.2846 -0.4077  0.4262
  178SOPE   H7Y20324   2.097   2.540   9.574  1.1360  0.4216  0.5571
  178SOPE   C3820325   2.164   2.641   9.389 -0.2362  0.0115 -0.0284
  178SOPE   H8X20326   2.270   2.609   9.382  0.7493  3.3760 -3.4739
  178SOPE   H8Y20327   2.151   2.745   9.352  0.6522 -0.6173 -2.3013
  178SOPE   C3920328   2.081   2.548   9.302  0.4427  0.0299  0.8123
  178SOPE   H9X20329   1.987   2.603   9.281  1.1201  0.1959 -2.2075
  178SOPE   H9Y20330   2.042   2.466   9.366 -1.4165 -0.3679 -0.7235
  178SOPE  C31020331   2.145   2.499   9.176  0.8745 -0.2876  0.0951
  178SOPE  H10X20332   2.191   2.401   9.203  1.2739 -0.4324 -1.0569
  178SOPE  H10Y20333   2.225   2.573   9.153  0.6006  0.1096  0.4101
  178SOPE  C31120334   2.047   2.486   9.057  0.1051  0.0520  0.2964
  178SOPE  H11X20335   1.994   2.575   9.018 -0.5058 -1.3596 -2.3001
  178SOPE  H11Y20336   1.976   2.410   9.095  0.0491  0.8457  1.8775
  178SOPE  C31220337   2.136   2.435   8.944 -1.1143  0.1523 -0.7178
  178SOPE  H12X20338   2.073   2.388   8.865 -0.0691 -0.9299 -0.9440
  178SOPE  H12Y20339   2.198   2.358   8.994 -2.0746  1.4774  2.7561
  178SOPE  C31320340   2.225   2.548   8.886  0.6402  0.0209 -0.5408
  178SOPE  H13X20341   2.283   2.503   8.803  2.0446 -0.1842  0.5195
  178SOPE  H13Y20342   2.301   2.573   8.962 -0.2704  0.2580  0.3217
  178SOPE  C31420343   2.154   2.676   8.836  0.4486  0.3350  0.4459
  178SOPE  H14X20344   2.095   2.722   8.918  0.4823 -0.2882  0.8258
  178SOPE  H14Y20345   2.094   2.638   8.750 -0.7108  1.7175  0.6188
  178SOPE  C31520346   2.259   2.767   8.779 -0.3631 -0.1460 -0.1249
  178SOPE  H15X20347   2.312   2.712   8.698  0.6406  2.9855 -1.7615
  178SOPE  H15Y20348   2.330   2.796   8.858 -1.4925 -0.4851  1.0507
  178SOPE  C31620349   2.188   2.887   8.717 -0.2406  0.1191  0.6862
  178SOPE  H16X20350   2.116   2.929   8.790 -2.1850  0.5459 -1.3797
  178SOPE  H16Y20351   2.126   2.840   8.638  2.2447 -0.2227 -1.1954
  178SOPE  C31720352   2.284   2.995   8.657  0.3779  0.3947  0.0019
  178SOPE  H17X20353   2.342   3.031   8.745 -0.2041  0.2813  0.4357
  178SOPE  H17Y20354   2.224   3.075   8.609 -1.3408 -1.1122 -0.4455
  178SOPE  C31820355   2.364   2.933   8.547  0.9929  0.5280 -0.5322
  178SOPE  H18X20356   2.428   2.851   8.585 -1.3977 -0.6607  1.1734
  178SOPE  H18Y20357   2.425   3.003   8.486  2.6441 -1.2937 -1.0797
  178SOPE  H18Z20358   2.291   2.892   8.474  0.6087 -1.1460  0.7407
  179SOPE     N20359   2.327   4.324   6.425 -0.2600  0.0355  0.4484
  179SOPE   HN120360   2.428   4.319   6.398 -0.6370 -1.2442 -0.9055
  179SOPE   HN220361   2.281   4.339   6.333  2.2530 -1.1452 -1.1239
  179SOPE   HN320362   2.307   4.413   6.474 -0.3521 -0.3167  1.0615
  179SOPE   C1220363   2.295   4.214   6.511  0.4891  0.2448  0.1440
  179SOPE  H12A20364   2.311   4.123   6.450 -1.9841 -0.9220  1.0971
  179SOPE  H12B20365   2.189   4.216   6.545 -0.0581  0.6682 -1.5134
  179SOPE   C1120366   2.382   4.212   6.638 -0.2709 -0.3382 -0.4288
  179SOPE  H11A20367   2.370   4.115   6.691  1.3364 -0.3803 -0.0839
  179SOPE  H11B20368   2.347   4.283   6.716  2.7580  0.2298  0.5600
  179SOPE     P20369   2.617   4.118   6.571 -0.0765 -0.1699  0.0587
  179SOPE   O1320370   2.739   4.183   6.530 -0.5064 -0.5036  0.4477
  179SOPE   O1420371   2.557   4.032   6.466 -0.2240 -0.2613 -0.0133
  179SOPE   O1220372   2.522   4.234   6.610  0.2310 -0.0619 -0.2816
  179SOPE   O1120373   2.648   4.028   6.695 -0.2706  0.3013 -0.0409
  179SOPE    C120374   2.751   4.054   6.796 -0.1447  0.8661  0.1819
  179SOPE    HA20375   2.801   4.152   6.777 -3.1763  2.5440  0.2492
  179SOPE    HB20376   2.829   3.975   6.791 -0.9510  0.1184 -1.2395
  179SOPE    C220377   2.690   4.050   6.935  0.5335  0.3963  0.3194
  179SOPE    HS20378   2.755   4.118   6.994 -0.1500  3.0767 -1.8053
  179SOPE   O2120379   2.698   3.908   6.971  0.4371  0.1093  0.2762
  179SOPE   C2120380   2.724   3.895   7.099 -0.7714  0.3085  0.2177
  179SOPE   O2220381   2.745   3.982   7.183  0.1368 -0.2607  0.1121
  179SOPE   C2220382   2.726   3.741   7.133 -0.6729  0.1769  0.8139
  179SOPE   H2R20383   2.819   3.689   7.101 -0.3429  1.2636 -0.0545
  179SOPE   H2S20384   2.650   3.695   7.067  0.2520  0.9759 -0.8738
  179SOPE    C320385   2.551   4.106   6.938 -0.3245 -0.0126 -0.5478
  179SOPE    HX20386   2.484   4.028   6.897 -3.1860  1.5525  0.8565
  179SOPE    HY20387   2.541   4.195   6.872  1.1173 -0.7355 -1.7955
  179SOPE   O3120388   2.496   4.135   7.072 -0.4752  0.4609 -0.3229
  179SOPE   C3120389   2.545   4.246   7.130  0.1153  0.5250  0.4865
  179SOPE   O3220390   2.623   4.320   7.075  0.3194 -0.2333  0.2796
  179SOPE   C3220391   2.494   4.251   7.272 -0.3026 -0.1258 -0.8552
  179SOPE   H2X20392   2.407   4.320   7.264  0.9099  1.4750 -0.7712
  179SOPE   H2Y20393   2.565   4.310   7.334 -0.8180 -0.1282 -0.2526
  179SOPE   C2320394   2.702   3.718   7.289 -0.2019 -0.0528  0.1686
  179SOPE   H3R20395   2.698   3.607   7.293 -3.7087 -0.1550 -2.1053
  179SOPE   H3S20396   2.604   3.753   7.327  0.2855  1.0471  0.4727
  179SOPE   C2420397   2.824   3.763   7.365  0.1391 -0.2122 -0.0928
  179SOPE   H4R20398   2.914   3.755   7.300  0.7684  1.6115  0.4723
  179SOPE   H4S20399   2.816   3.871   7.391  1.3396 -0.7387  2.9005
  179SOPE   C2520400   2.847   3.690   7.502  0.1516 -0.2615  0.1589
  179SOPE   H5R20401   2.888   3.587   7.496 -3.4761 -1.8250 -1.4977
  179SOPE   H5S20402   2.916   3.758   7.555  0.9209 -1.2413  0.4343
  179SOPE   C2620403   2.721   3.686   7.591 -0.1337 -0.0990  0.7100
  179SOPE   H6R20404   2.693   3.794   7.587  1.0969  0.2252 -2.9268
  179SOPE   H6S20405   2.650   3.624   7.533 -0.8688  1.7223 -0.4281
  179SOPE   C2720406   2.760   3.645   7.736  0.4694 -0.2265  0.4706
  179SOPE   H7R20407   2.819   3.551   7.730 -0.8203 -0.9916 -1.0753
  179SOPE   H7S20408   2.821   3.731   7.770  1.2196 -0.6349  0.1856
  179SOPE   C2820409   2.639   3.609   7.833 -0.1374  0.8385  0.4003
  179SOPE   H8R20410   2.679   3.636   7.933  1.7409  0.7690 -0.3044
  179SOPE   H8S20411   2.550   3.671   7.808 -1.0161  0.7513  3.0023
  179SOPE   C2920412   2.596   3.460   7.838 -0.7070 -0.0901  0.5404
  179SOPE   H9120413   2.529   3.440   7.753  0.3605  0.1587 -0.3817
  179SOPE  C21020414   2.633   3.369   7.926 -0.8430 -0.1669  0.6010
  179SOPE  H10120415   2.580   3.272   7.925 -0.7040 -0.2443 -1.0591
  179SOPE  C21120416   2.718   3.389   8.045 -0.6198 -0.0394 -0.2043
  179SOPE  H11R20417   2.729   3.495   8.078  0.1488  0.2499 -1.3403
  179SOPE  H11S20418   2.816   3.347   8.015  0.4943  2.2869 -0.1188
  179SOPE  C21220419   2.652   3.312   8.159 -0.2308 -0.4626 -0.6856
  179SOPE  H12R20420   2.646   3.204   8.133  0.7514 -0.3939 -1.2418
  179SOPE  H12S20421   2.551   3.339   8.196  1.0667  2.0794  1.3533
  179SOPE  C21320422   2.736   3.324   8.289  0.0877 -0.1741  0.0295
  179SOPE  H13R20423   2.747   3.432   8.312 -0.4944  0.1056 -0.9211
  179SOPE  H13S20424   2.835   3.278   8.271 -1.1438 -3.5452  1.1999
  179SOPE  C21420425   2.673   3.243   8.400  0.3095 -0.0201 -0.7258
  179SOPE  H14R20426   2.659   3.140   8.361 -0.5747 -0.0939 -0.2428
  179SOPE  H14S20427   2.569   3.271   8.428  1.2106  1.6677  1.1083
  179SOPE  C21520428   2.757   3.223   8.529  0.3037  0.2728  0.3051
  179SOPE  H15R20429   2.776   3.325   8.566 -1.6885  0.4666  0.9051
  179SOPE  H15S20430   2.848   3.160   8.518 -0.5752 -1.0547  0.3371
  179SOPE  C21620431   2.689   3.139   8.637 -0.7069  0.4347  0.5295
  179SOPE  H16R20432   2.641   3.055   8.583 -1.2499  0.1447  1.4564
  179SOPE  H16S20433   2.610   3.205   8.678 -0.6464  0.4315  0.6504
  179SOPE  C21720434   2.783   3.097   8.750 -0.2115  0.3311  0.0597
  179SOPE  H17R20435   2.833   3.193   8.777 -0.8191  0.9388 -0.9151
  179SOPE  H17S20436   2.861   3.023   8.722 -0.6626 -0.0013 -0.3142
  179SOPE  C21820437   2.711   3.028   8.871  0.0782 -0.3763 -0.1021
  179SOPE  H18R20438   2.677   2.923   8.856  2.1522 -1.1336  0.2314
  179SOPE  H18S20439   2.630   3.097   8.904  1.5539  1.0121  0.7927
  179SOPE  H18T20440   2.783   3.024   8.955  1.7058 -0.7021 -1.4538
  179SOPE   C3320441   2.478   4.115   7.346  0.5959  0.0742 -1.0076
  179SOPE   H3X20442   2.564   4.045   7.340 -1.3513 -2.3620 -2.7936
  179SOPE   H3Y20443   2.388   4.057   7.316 -2.6626  4.1055  0.0195
  179SOPE   C3420444   2.454   4.148   7.496 -0.0857  0.8397  1.0174
  179SOPE   H4X20445   2.372   4.219   7.518  0.5177  2.2891 -1.0426
  179SOPE   H4Y20446   2.544   4.191   7.544  0.5589  0.1733  0.4374
  179SOPE   C3520447   2.427   4.015   7.571  0.3005  0.3179 -0.2600
  179SOPE   H5X20448   2.509   3.941   7.564 -0.6884 -0.8189 -0.1746
  179SOPE   H5Y20449   2.340   3.962   7.526  0.5150 -0.5662  0.3244
  179SOPE   C3620450   2.407   4.053   7.725 -0.1456  0.8449  0.4970
  179SOPE   H6X20451   2.383   3.958   7.777 -0.4775 -0.0648 -1.2184
  179SOPE   H6Y20452   2.333   4.133   7.744 -2.3042 -0.3400 -2.1711
  179SOPE   C3720453   2.543   4.083   7.802  0.6946  0.0641  0.2786
  179SOPE   H7X20454   2.574   4.186   7.773  2.2111 -0.8910 -1.7347
  179SOPE   H7Y20455   2.622   4.017   7.760  1.2219  0.2887  0.9055
  179SOPE   C3820456   2.534   4.067   7.955  0.3110  0.3528  0.3328
  179SOPE   H8X20457   2.498   3.969   7.994  2.1453 -1.1626 -1.5779
  179SOPE   H8Y20458   2.468   4.144   8.000 -1.1872 -0.7753  0.1288
  179SOPE   C3920459   2.676   4.084   8.011 -0.3397  0.3306 -0.5711
  179SOPE   H9X20460   2.723   4.181   7.980 -0.5842  0.7915  0.4632
  179SOPE   H9Y20461   2.730   4.002   7.959  1.8979  0.8830  0.7263
  179SOPE  C31020462   2.693   4.071   8.165  0.2880  0.0332 -0.3861
  179SOPE  H10X20463   2.628   3.999   8.218  0.9111  0.7591  1.4437
  179SOPE  H10Y20464   2.662   4.161   8.223  0.5602 -0.2814  0.2593
  179SOPE  C31120465   2.838   4.039   8.204  0.3608  0.4153 -0.6512
  179SOPE  H11X20466   2.885   4.137   8.183 -0.4614  0.8358 -0.6078
  179SOPE  H11Y20467   2.890   3.965   8.139 -0.5946 -0.6316 -0.2731
  179SOPE  C31220468   2.847   3.988   8.347  0.1138 -0.3577 -0.1677
  179SOPE  H12X20469   2.797   3.889   8.353  0.5795 -0.7433 -1.9676
  179SOPE  H12Y20470   2.811   4.065   8.419  2.9198 -0.3957  1.4271
  179SOPE  C31320471   2.996   3.986   8.390 -0.4935 -0.1965  0.0331
  179SOPE  H13X20472   3.042   4.086   8.403  1.5130 -1.2849  1.8805
  179SOPE  H13Y20473   3.075   3.942   8.324  1.8863  1.0430  1.8883
  179SOPE  C31420474   3.003   3.913   8.525 -0.2938  0.2380  0.1118
  179SOPE  H14X20475   2.934   3.957   8.600  0.0565 -1.4664  1.4812
  179SOPE  H14Y20476   3.105   3.927   8.566  0.9269 -3.1950 -1.3625
  179SOPE  C31520477   2.991   3.761   8.530  0.1196  0.3502 -0.1077
  179SOPE  H15X20478   3.075   3.718   8.473  0.9795  0.5675  0.9710
  179SOPE  H15Y20479   2.892   3.744   8.481  0.5077 -1.8038 -0.2137
  179SOPE  C31620480   2.981   3.697   8.667  0.1233 -0.2861 -0.4069
  179SOPE  H16X20481   2.882   3.726   8.709  0.9455  1.5005  0.3698
  179SOPE  H16Y20482   3.060   3.750   8.724 -1.7747  1.4148  0.7629
  179SOPE  C31720483   2.986   3.543   8.664  0.2498  1.1403 -0.2731
  179SOPE  H17X20484   3.086   3.505   8.633  0.2207  0.4919  0.3925
  179SOPE  H17Y20485   2.914   3.513   8.585 -0.0843  2.3044 -0.4377
  179SOPE  C31820486   2.970   3.475   8.795  0.2159  0.6226  0.1064
  179SOPE  H18X20487   3.053   3.499   8.864  0.8313  2.8670 -1.2910
  179SOPE  H18Y20488   2.990   3.368   8.773  1.6558  0.9106 -0.0940
  179SOPE  H18Z20489   2.869   3.494   8.837 -0.8658  0.4095 -2.2048
  180SOPE     N20490   0.091   5.187   6.463  0.0877  0.5783 -0.6749
  180SOPE   HN120491   0.138   5.275   6.493  0.9925  0.6456 -2.2007
  180SOPE   HN220492   0.149   5.169   6.378  0.6995  0.1834 -0.1867
  180SOPE   HN320493  -0.011   5.199   6.448 -0.2671  0.6180  1.4526
  180SOPE   C1220494   0.102   5.069   6.553 -0.2178  0.3783  0.8784
  180SOPE  H12A20495   0.048   4.983   6.508  0.8637  0.1652 -0.0559
  180SOPE  H12B20496   0.048   5.092   6.647  0.4393 -0.7792  1.5648
  180SOPE   C1120497   0.241   5.025   6.565 -0.0328  0.1007  0.4577
  180SOPE  H11A20498   0.245   4.943   6.640 -0.0362 -0.4210 -0.1086
  180SOPE  H11B20499   0.307   5.110   6.594  0.3796 -0.1341  0.2125
  180SOPE     P20500   0.351   4.854   6.405 -0.2030  0.4464 -0.1769
  180SOPE   O1320501   0.491   4.877   6.383 -0.4096  0.0380  0.3389
  180SOPE   O1420502   0.274   4.792   6.287 -0.0965 -0.1002 -0.3755
  180SOPE   O1220503   0.282   4.986   6.439 -0.7314 -0.0131 -0.4595
  180SOPE   O1120504   0.339   4.760   6.527 -0.5847  0.0396  0.8396
  180SOPE    C120505   0.435   4.743   6.635  0.5441 -0.0911 -0.3472
  180SOPE    HA20506   0.407   4.804   6.723  2.0307  1.1001 -0.6545
  180SOPE    HB20507   0.540   4.755   6.602  0.7498  1.0545  0.6758
  180SOPE    C220508   0.432   4.593   6.684 -0.4853 -0.2729  0.1895
  180SOPE    HS20509   0.327   4.561   6.701 -1.2033  2.1763  0.8299
  180SOPE   O2120510   0.522   4.580   6.792 -0.1440 -0.2141  0.3884
  180SOPE   C2120511   0.463   4.532   6.904  0.2496 -0.6039  0.8888
  180SOPE   O2220512   0.344   4.534   6.927 -0.0993  0.1636 -0.0668
  180SOPE   C2220513   0.579   4.491   7.004 -0.6441 -0.4936  0.3848
  180SOPE   H2R20514   0.668   4.545   6.964 -2.8390  3.7581  0.6138
  180SOPE   H2S20515   0.597   4.384   6.981  2.3761  0.2930 -1.5806
  180SOPE    C320516   0.486   4.505   6.572 -0.1379 -0.1881  0.0299
  180SOPE    HX20517   0.579   4.559   6.543 -0.2193 -0.3744 -0.6013
  180SOPE    HY20518   0.410   4.515   6.491 -0.9802  1.6995  0.9871
  180SOPE   O3120519   0.515   4.369   6.622 -0.0790  0.6795  0.3279
  180SOPE   C3120520   0.530   4.270   6.528 -0.0284  0.0129  0.3522
  180SOPE   O3220521   0.534   4.293   6.410  0.3055  0.3349  0.7010
  180SOPE   C3220522   0.558   4.130   6.581  0.0898  0.1567 -0.2147
  180SOPE   H2X20523   0.569   4.065   6.491  0.2717  0.8098 -0.6694
  180SOPE   H2Y20524   0.471   4.087   6.635 -0.5552 -0.0354 -1.3776
  180SOPE   C2320525   0.545   4.525   7.151  0.6006  0.5394 -0.7095
  180SOPE   H3R20526   0.453   4.487   7.199  0.9110  0.6083 -0.0541
  180SOPE   H3S20527   0.522   4.634   7.145 -0.2656  0.2968 -2.4137
  180SOPE   C2420528   0.665   4.500   7.242  0.0183  0.6657 -0.3334
  180SOPE   H4R20529   0.672   4.390   7.258  0.5478  0.5319 -1.4102
  180SOPE   H4S20530   0.763   4.524   7.196  1.0839  0.5950  1.7429
  180SOPE   C2520531   0.661   4.563   7.385  0.6081  0.2720  1.0811
  180SOPE   H5R20532   0.671   4.674   7.386 -0.9362  0.4501  0.1352
  180SOPE   H5S20533   0.556   4.545   7.418  0.4860 -0.4183  0.3442
  180SOPE   C2620534   0.763   4.497   7.482  0.3740 -0.1077  0.1858
  180SOPE   H6R20535   0.741   4.391   7.508 -0.3517 -0.1525 -0.5797
  180SOPE   H6S20536   0.862   4.497   7.432 -1.2631 -0.5089 -3.3386
  180SOPE   C2720537   0.761   4.564   7.615  0.4374  0.2528 -0.3001
  180SOPE   H7R20538   0.766   4.673   7.596  1.6213  0.0527 -1.2515
  180SOPE   H7S20539   0.661   4.550   7.663  0.4433 -0.0906 -0.3845
  180SOPE   C2820540   0.864   4.512   7.720  0.3256  0.8709 -0.4360
  180SOPE   H8R20541   0.967   4.535   7.685  0.5694 -0.6136 -0.7347
  180SOPE   H8S20542   0.840   4.578   7.806 -0.9195  2.5348 -1.9689
  180SOPE   C2920543   0.850   4.360   7.750  0.1388 -0.3601  0.2808
  180SOPE   H9120544   0.895   4.293   7.675  0.9529 -1.7421  1.9237
  180SOPE  C21020545   0.824   4.312   7.871 -0.7116  0.0849 -0.0321
  180SOPE  H10120546   0.831   4.203   7.878 -1.5254  0.1354  2.4049
  180SOPE  C21120547   0.796   4.374   8.004  0.2592  0.1349  0.0467
  180SOPE  H11R20548   0.694   4.418   7.996  0.9734  2.5861  2.4664
  180SOPE  H11S20549   0.862   4.463   8.018 -0.2575  0.8733 -1.9465
  180SOPE  C21220550   0.809   4.283   8.125 -0.7665 -0.0986  0.3943
  180SOPE  H12R20551   0.894   4.212   8.130 -0.1442  0.6102  0.0697
  180SOPE  H12S20552   0.718   4.220   8.128  0.0406 -1.4550 -1.5822
  180SOPE  C21320553   0.815   4.364   8.253 -0.0830 -0.5085 -0.3203
  180SOPE  H13R20554   0.748   4.450   8.232  0.8730  0.1762 -0.6561
  180SOPE  H13S20555   0.918   4.403   8.268 -0.2021  0.0672 -0.9317
  180SOPE  C21420556   0.766   4.290   8.380 -0.1785  0.4546 -0.1193
  180SOPE  H14R20557   0.812   4.189   8.369  0.6209  0.5064  2.2682
  180SOPE  H14S20558   0.659   4.315   8.392  0.3871  2.4904  1.1387
  180SOPE  C21520559   0.823   4.344   8.513 -0.7096  0.3031 -0.2564
  180SOPE  H15R20560   0.776   4.444   8.525 -1.7949 -0.2713  0.3824
  180SOPE  H15S20561   0.932   4.365   8.516 -0.4280 -1.1572  1.4080
  180SOPE  C21620562   0.785   4.245   8.632 -0.7419  0.2767 -0.0112
  180SOPE  H16R20563   0.811   4.139   8.608  2.3031  1.0587 -0.6994
  180SOPE  H16S20564   0.676   4.256   8.649 -0.1701  0.6489  4.8820
  180SOPE  C21720565   0.855   4.291   8.761 -0.6641  0.6917 -0.7150
  180SOPE  H17R20566   0.833   4.397   8.786 -0.1367  0.5574  0.3862
  180SOPE  H17S20567   0.965   4.278   8.754 -0.4792 -1.1565  3.0288
  180SOPE  C21820568   0.815   4.190   8.875  0.3974 -0.4239  0.4400
  180SOPE  H18R20569   0.833   4.085   8.847  1.2440 -1.3807  3.9703
  180SOPE  H18S20570   0.708   4.201   8.903  0.8602  0.7615  1.9765
  180SOPE  H18T20571   0.869   4.203   8.972 -0.8687  1.2331  0.9662
  180SOPE   C3320572   0.690   4.117   6.662  0.0717 -0.4265 -0.7010
  180SOPE   H3X20573   0.779   4.149   6.603  1.4759 -1.5554  0.6968
  180SOPE   H3Y20574   0.698   4.010   6.691  2.9267 -0.3932 -1.0382
  180SOPE   C3420575   0.688   4.195   6.794  0.2465 -0.1590  0.0477
  180SOPE   H4X20576   0.582   4.193   6.827 -0.4067 -2.8129 -1.9066
  180SOPE   H4Y20577   0.704   4.303   6.773 -0.7446 -0.2171 -1.1109
  180SOPE   C3520578   0.788   4.138   6.897 -0.6416  0.0777  0.1094
  180SOPE   H5X20579   0.892   4.153   6.860 -0.6730  0.0097 -0.0041
  180SOPE   H5Y20580   0.776   4.030   6.919 -0.0298 -0.3669 -1.6322
  180SOPE   C3620581   0.791   4.210   7.033  1.1260  0.6224  0.0202
  180SOPE   H6X20582   0.692   4.198   7.083  0.9101 -0.0422 -0.5452
  180SOPE   H6Y20583   0.813   4.319   7.025  2.4128  0.6281  2.6735
  180SOPE   C3720584   0.888   4.151   7.134 -0.1005 -0.0654 -0.8236
  180SOPE   H7X20585   0.990   4.141   7.091 -0.5933 -1.3651 -1.7420
  180SOPE   H7Y20586   0.859   4.046   7.155  0.2616  0.2424  1.6111
  180SOPE   C3820587   0.884   4.214   7.277  0.8860  0.0099  0.0642
  180SOPE   H8X20588   0.781   4.220   7.319  0.7617  0.0911 -0.2544
  180SOPE   H8Y20589   0.924   4.314   7.252 -0.1508  0.4544  0.1501
  180SOPE   C3920590   0.976   4.150   7.395 -0.3584 -0.2724 -0.6150
  180SOPE   H9X20591   0.966   4.223   7.478 -0.1159  1.5552 -2.1192
  180SOPE   H9Y20592   1.077   4.139   7.350  0.6239  1.1626  1.1250
  180SOPE  C31020593   0.926   4.015   7.454  0.6335 -0.2978 -0.3425
  180SOPE  H10X20594   0.894   3.941   7.378  1.1684 -0.0095 -0.8541
  180SOPE  H10Y20595   0.829   4.038   7.504  0.1449 -0.1631 -1.3270
  180SOPE  C31120596   1.003   3.946   7.568  0.4751  0.0563  0.3263
  180SOPE  H11X20597   1.103   3.910   7.538  1.1857 -0.9310  3.4432
  180SOPE  H11Y20598   0.942   3.855   7.588  0.1431  0.3994  0.9073
  180SOPE  C31220599   1.019   4.034   7.697  0.5452  0.6581  0.3603
  180SOPE  H12X20600   0.918   4.071   7.724 -0.1281  1.5532 -2.8782
  180SOPE  H12Y20601   1.080   4.123   7.670  1.4237 -0.5080 -1.7717
  180SOPE  C31320602   1.073   3.960   7.818 -0.3383 -0.1295 -0.2864
  180SOPE  H13X20603   1.183   3.975   7.823 -0.6552  2.4066  0.6233
  180SOPE  H13Y20604   1.052   3.851   7.829  0.5639 -0.1512  1.6666
  180SOPE  C31420605   1.021   4.017   7.946  0.7393 -0.1443 -0.9204
  180SOPE  H14X20606   0.910   4.011   7.944  0.6052  1.3452  0.0460
  180SOPE  H14Y20607   1.044   4.125   7.961  0.1863  0.2288 -2.5047
  180SOPE  C31520608   1.069   3.940   8.073  0.4238 -0.2838  0.0074
  180SOPE  H15X20609   1.177   3.960   8.090  0.4764  0.5028 -1.1275
  180SOPE  H15Y20610   1.042   3.835   8.050 -1.9542  0.1303  0.7221
  180SOPE  C31620611   0.999   3.977   8.205  0.4292 -0.7384 -0.8019
  180SOPE  H16X20612   0.889   3.969   8.189  0.1197 -0.9779  1.2097
  180SOPE  H16Y20613   1.021   4.076   8.251 -0.2213 -0.8826 -0.1718
  180SOPE  C31720614   1.049   3.877   8.310  0.3160 -0.8534 -0.2423
  180SOPE  H17X20615   1.159   3.865   8.320  0.2907 -1.1485 -0.2930
  180SOPE  H17Y20616   1.016   3.779   8.268 -1.9575 -0.1956 -0.1253
  180SOPE  C31820617   0.992   3.904   8.452 -0.0426  0.1431 -0.3495
  180SOPE  H18X20618   0.882   3.887   8.456  0.1951 -1.3658  0.2189
  180SOPE  H18Y20619   1.014   4.006   8.490  0.5126 -0.2187  0.3080
  180SOPE  H18Z20620   1.032   3.821   8.513 -1.3837 -0.7074 -0.5821
  181SOPE     N20621   1.860   3.158   5.803  0.0435 -0.4330  0.0422
  181SOPE   HN120622   1.799   3.155   5.887 -0.3449 -1.9584 -0.2581
  181SOPE   HN220623   1.960   3.142   5.825  0.4749  1.5863 -0.2972
  181SOPE   HN320624   1.850   3.252   5.760 -0.2428 -1.3603 -2.0818
  181SOPE   C1220625   1.805   3.040   5.721 -0.0150 -0.0196  0.0658
  181SOPE  H12A20626   1.857   3.038   5.624  1.0327  0.0300  0.6171
  181SOPE  H12B20627   1.697   3.062   5.706 -0.4825 -2.6936 -0.9458
  181SOPE   C1120628   1.820   2.910   5.800  0.0755 -0.5570  0.4350
  181SOPE  H11A20629   1.780   2.823   5.743 -2.1525  1.0550 -0.6016
  181SOPE  H11B20630   1.756   2.926   5.889  0.3890 -2.3714  1.0373
  181SOPE     P20631   2.003   2.774   5.920 -0.3964  0.1036  0.2046
  181SOPE   O1320632   2.151   2.753   5.895 -0.2246 -0.4657  0.3983
  181SOPE   O1420633   1.921   2.661   5.886  0.1386 -0.2053  0.6028
  181SOPE   O1220634   1.960   2.896   5.838 -0.4849  0.5321 -0.4181
  181SOPE   O1120635   1.967   2.811   6.066 -0.6774 -0.6487  0.3148
  181SOPE    C120636   2.011   2.926   6.131  0.2435  1.0813 -0.2603
  181SOPE    HA20637   1.919   2.981   6.160 -0.6944 -1.8012  2.8299
  181SOPE    HB20638   2.091   2.987   6.085 -0.4076  4.1368  2.2814
  181SOPE    C220639   2.069   2.900   6.274  0.3325 -0.5402  0.0025
  181SOPE    HS20640   2.176   2.885   6.247  1.0394  2.1334  0.9413
  181SOPE   O2120641   2.001   2.793   6.342  0.1856  0.0160 -0.2267
  181SOPE   C2120642   2.048   2.677   6.318 -0.2933 -0.1671 -0.0378
  181SOPE   O2220643   2.156   2.652   6.271  0.0776  0.2713 -0.6124
  181SOPE   C2220644   1.947   2.566   6.359 -0.2023 -0.3383 -0.4919
  181SOPE   H2R20645   2.015   2.490   6.405 -0.5630  0.5224  1.6015
  181SOPE   H2S20646   1.921   2.527   6.259  0.5748 -2.3782  0.0372
  181SOPE    C320647   2.050   3.026   6.350 -0.3823  0.4596 -0.6020
  181SOPE    HX20648   1.941   3.049   6.342 -0.4256 -0.1686 -2.2660
  181SOPE    HY20649   2.114   3.104   6.303  0.2420 -1.5258 -3.3175
  181SOPE   O3120650   2.080   3.009   6.489  0.6202  0.3487 -0.0450
  181SOPE   C3120651   2.205   2.981   6.521  0.1447 -0.4428  0.0310
  181SOPE   O3220652   2.305   3.011   6.461  0.3345  0.2699  0.7356
  181SOPE   C3220653   2.202   2.881   6.637  0.0806  0.1010  0.0540
  181SOPE   H2X20654   2.163   2.782   6.605  1.6041 -0.8159  0.9169
  181SOPE   H2Y20655   2.140   2.925   6.717  1.3393  2.8035 -0.3395
  181SOPE   C2320656   1.823   2.595   6.447  0.3195 -0.0954  0.0706
  181SOPE   H3R20657   1.768   2.499   6.456 -0.2004  0.0860 -0.9863
  181SOPE   H3S20658   1.768   2.682   6.405  0.5054  1.0887  2.1572
  181SOPE   C2420659   1.861   2.625   6.586 -0.3183  0.3096 -0.0689
  181SOPE   H4R20660   1.922   2.547   6.637  0.7634  1.7538  0.9249
  181SOPE   H4S20661   1.927   2.714   6.583 -0.9842  0.8813  1.2533
  181SOPE   C2520662   1.738   2.647   6.682 -0.1448  0.3794  1.0077
  181SOPE   H5R20663   1.686   2.739   6.647  0.8111  1.3725  2.0964
  181SOPE   H5S20664   1.673   2.557   6.675 -1.1306  1.2005 -1.3797
  181SOPE   C2620665   1.766   2.671   6.826  0.2030  0.1992 -0.2400
  181SOPE   H6R20666   1.815   2.579   6.865 -0.7501 -0.4186 -0.4807
  181SOPE   H6S20667   1.830   2.762   6.828  0.0720  0.3022  2.4679
  181SOPE   C2720668   1.637   2.672   6.917 -0.8397 -0.8447  0.0855
  181SOPE   H7R20669   1.569   2.746   6.870  0.4789 -0.5944 -1.5086
  181SOPE   H7S20670   1.586   2.575   6.894 -0.0976 -0.8502 -1.7293
  181SOPE   C2820671   1.654   2.695   7.071  0.3944  0.3160  0.3378
  181SOPE   H8R20672   1.555   2.682   7.119  1.2213 -1.4745  1.6351
  181SOPE   H8S20673   1.707   2.606   7.109  0.6293  0.7794  1.1030
  181SOPE   C2920674   1.728   2.823   7.099  0.1527 -0.8093 -0.2455
  181SOPE   H9120675   1.810   2.845   7.030  1.6892  0.7207  1.9207
  181SOPE  C21020676   1.697   2.908   7.199  0.3858 -0.3510  0.0035
  181SOPE  H10120677   1.763   2.995   7.213  2.2948 -1.8888  1.0398
  181SOPE  C21120678   1.592   2.897   7.306  0.3579  0.6812 -0.0683
  181SOPE  H11R20679   1.494   2.863   7.267  0.5245 -0.5852  0.5563
  181SOPE  H11S20680   1.585   3.002   7.339 -1.2402  0.7224 -0.4821
  181SOPE  C21220681   1.640   2.803   7.417 -0.6322  0.3989 -0.7951
  181SOPE  H12R20682   1.744   2.825   7.450  1.3317 -1.7156 -4.8794
  181SOPE  H12S20683   1.642   2.699   7.377 -1.3489  1.2750 -3.3179
  181SOPE  C21320684   1.539   2.822   7.529 -0.1237  0.3342 -0.2052
  181SOPE  H13R20685   1.437   2.790   7.497 -0.8452  2.3954 -0.0805
  181SOPE  H13S20686   1.536   2.930   7.553 -0.5909  0.5592 -1.2446
  181SOPE  C21420687   1.572   2.742   7.653  0.1731  0.2657  0.8924
  181SOPE  H14R20688   1.680   2.754   7.675  0.3794  3.0586 -1.1143
  181SOPE  H14S20689   1.539   2.636   7.641  1.8232 -0.1529 -0.3573
  181SOPE  C21520690   1.516   2.797   7.785 -0.0909 -0.0159 -0.5720
  181SOPE  H15R20691   1.406   2.786   7.781 -0.3924  2.4107 -0.6655
  181SOPE  H15S20692   1.534   2.907   7.792  2.1059 -0.2810 -1.4056
  181SOPE  C21620693   1.586   2.716   7.899 -0.1521 -0.4815 -0.5340
  181SOPE  H16R20694   1.696   2.733   7.899 -0.1848 -0.1720 -1.9417
  181SOPE  H16S20695   1.571   2.607   7.883  2.2381 -1.1167  0.9896
  181SOPE  C21720696   1.542   2.758   8.041  0.2308  0.0156  0.0442
  181SOPE  H17R20697   1.433   2.740   8.043  0.2925 -0.3618  2.0899
  181SOPE  H17S20698   1.553   2.869   8.048 -2.3594  0.2151  3.9379
  181SOPE  C21820699   1.627   2.695   8.146 -1.0535  0.2489 -0.6051
  181SOPE  H18R20700   1.737   2.711   8.139 -0.7862 -0.5810  1.1118
  181SOPE  H18S20701   1.614   2.585   8.138  0.7896  0.1548 -4.4185
  181SOPE  H18T20702   1.588   2.742   8.239 -1.1250  1.0565 -1.0357
  181SOPE   C3320703   2.339   2.871   6.705 -0.3280 -0.2980  0.0830
  181SOPE   H3X20704   2.375   2.966   6.752  0.1548 -0.1502 -0.5771
  181SOPE   H3Y20705   2.415   2.836   6.633  1.7789  1.4273  1.3230
  181SOPE   C3420706   2.336   2.762   6.813  0.1422  0.0104  0.7879
  181SOPE   H4X20707   2.431   2.764   6.869  1.3200  0.2525 -1.1406
  181SOPE   H4Y20708   2.324   2.662   6.766  0.2049  1.1205 -1.7318
  181SOPE   C3520709   2.217   2.769   6.913 -0.5067  0.3088 -0.3824
  181SOPE   H5X20710   2.118   2.748   6.867 -0.4260 -2.0838  0.3498
  181SOPE   H5Y20711   2.216   2.873   6.951 -3.1396  0.4920 -0.7700
  181SOPE   C3620712   2.220   2.668   7.029  0.1264  0.4532 -0.4635
  181SOPE   H6X20713   2.313   2.664   7.089  0.5630  2.2481 -0.9423
  181SOPE   H6Y20714   2.208   2.571   6.978 -1.0225  0.5450 -0.4127
  181SOPE   C3720715   2.105   2.694   7.133 -0.1079 -0.0610  1.2651
  181SOPE   H7X20716   2.005   2.669   7.092  0.6411  0.6267 -1.1477
  181SOPE   H7Y20717   2.108   2.801   7.163 -1.0175 -0.2293  1.9898
  181SOPE   C3820718   2.136   2.614   7.260  0.5313  0.4852  0.3836
  181SOPE   H8X20719   2.239   2.622   7.300  0.7274  1.0532 -0.2162
  181SOPE   H8Y20720   2.122   2.505   7.241 -0.0911  0.1103  2.6363
  181SOPE   C3920721   2.034   2.661   7.365  0.1955  0.6947  0.2120
  181SOPE   H9X20722   1.930   2.652   7.327  1.4174 -1.5347 -3.0235
  181SOPE   H9Y20723   2.060   2.769   7.369 -0.0887  0.8255 -1.0240
  181SOPE  C31020724   2.048   2.585   7.491  1.0480 -0.1095 -0.6065
  181SOPE  H10X20725   2.153   2.593   7.529  1.2886 -0.5670 -1.1596
  181SOPE  H10Y20726   2.036   2.479   7.460  0.6392  0.0528 -1.0134
  181SOPE  C31120727   1.953   2.629   7.602 -0.1846 -0.2508 -0.3209
  181SOPE  H11X20728   1.854   2.617   7.554  0.5394 -2.5317 -1.3815
  181SOPE  H11Y20729   1.979   2.735   7.623 -2.7498  0.3302  0.2082
  181SOPE  C31220730   1.961   2.543   7.732 -0.3651 -0.0197  0.0752
  181SOPE  H12X20731   2.006   2.442   7.721 -0.5492 -0.2208  1.0644
  181SOPE  H12Y20732   1.857   2.515   7.760 -0.6101  0.5550 -0.2281
  181SOPE  C31320733   2.027   2.610   7.856  0.3768  0.7429 -0.1102
  181SOPE  H13X20734   1.988   2.714   7.857  0.7893  0.9958 -2.5710
  181SOPE  H13Y20735   2.134   2.620   7.828  0.8816 -1.3722  0.8975
  181SOPE  C31420736   2.011   2.546   7.993 -0.1372 -0.0305 -0.3431
  181SOPE  H14X20737   2.073   2.454   8.006  1.1261  0.8476  0.0235
  181SOPE  H14Y20738   1.907   2.512   8.009 -0.1679 -0.1657 -0.7917
  181SOPE  C31520739   2.056   2.636   8.104 -0.5030 -0.4369 -0.0904
  181SOPE  H15X20740   2.003   2.734   8.097  1.3321  0.6530  0.6014
  181SOPE  H15Y20741   2.160   2.674   8.100 -1.0711  1.0937 -3.1298
  181SOPE  C31620742   2.031   2.585   8.244 -0.4139 -0.0307  0.0388
  181SOPE  H16X20743   2.068   2.480   8.252  0.3415  0.1714 -0.7261
  181SOPE  H16Y20744   1.923   2.577   8.271 -0.4974  0.9087  0.0205
  181SOPE  C31720745   2.105   2.659   8.367  0.0169  0.2372  0.3231
  181SOPE  H17X20746   2.039   2.746   8.392 -2.5191 -1.5368  0.1733
  181SOPE  H17Y20747   2.206   2.686   8.329 -0.8864  2.0896 -0.9208
  181SOPE  C31820748   2.105   2.560   8.483 -0.1071 -0.4382 -0.4071
  181SOPE  H18X20749   2.001   2.535   8.514  0.3214  0.0783  1.5868
  181SOPE  H18Y20750   2.159   2.605   8.569  1.6802 -0.2253 -1.5931
  181SOPE  H18Z20751   2.167   2.470   8.463 -0.7747 -0.6894 -1.4788
  182SOPE     N20752   1.206   3.265   6.143  0.3491  0.3275  0.1879
  182SOPE   HN120753   1.169   3.172   6.115 -0.9923  0.1237  2.3615
  182SOPE   HN220754   1.119   3.316   6.171  0.3706  1.3607 -1.5201
  182SOPE   HN320755   1.241   3.316   6.060 -1.4043  2.8014  0.8247
  182SOPE   C1220756   1.308   3.259   6.252  0.1370  0.2934 -0.3223
  182SOPE  H12A20757   1.360   3.161   6.253 -0.0218  0.0746 -3.5865
  182SOPE  H12B20758   1.255   3.263   6.350  0.3820 -1.2424 -0.1088
  182SOPE   C1120759   1.395   3.391   6.242 -0.1870 -0.9085 -0.1226
  182SOPE  H11A20760   1.463   3.395   6.155 -0.3451  0.3840 -0.2186
  182SOPE  H11B20761   1.469   3.383   6.325 -0.1520 -0.5400 -0.1150
  182SOPE     P20762   1.393   3.650   6.267 -0.0141 -0.3666 -0.0782
  182SOPE   O1320763   1.291   3.761   6.253  0.3893  0.3099 -0.2155
  182SOPE   O1420764   1.500   3.656   6.166  0.4417 -0.4565 -0.6260
  182SOPE   O1220765   1.312   3.513   6.263 -0.1335 -0.5756 -0.0111
  182SOPE   O1120766   1.461   3.657   6.416  0.2676  0.2092  0.6396
  182SOPE    C120767   1.366   3.644   6.526 -0.9744 -0.9619 -0.0961
  182SOPE    HA20768   1.312   3.547   6.521  0.3465 -1.7662  0.4543
  182SOPE    HB20769   1.293   3.727   6.521 -0.7761 -0.8168 -0.6128
  182SOPE    C220770   1.448   3.639   6.665 -0.5740 -0.6392 -0.7038
  182SOPE    HS20771   1.474   3.536   6.696  2.6034 -0.3617 -2.0473
  182SOPE   O2120772   1.368   3.698   6.772 -0.8080  0.0329 -0.8670
  182SOPE   C2120773   1.264   3.627   6.811  0.2243  1.3177 -0.2820
  182SOPE   O2220774   1.231   3.512   6.768 -0.5178  0.0387 -0.4063
  182SOPE   C2220775   1.190   3.687   6.929 -1.0047 -0.0482  0.1835
  182SOPE   H2R20776   1.099   3.737   6.889  0.3597  2.1331 -0.3651
  182SOPE   H2S20777   1.259   3.760   6.978  0.7662 -0.6471 -1.3069
  182SOPE    C320778   1.582   3.717   6.650 -0.9029  0.4830  0.2684
  182SOPE    HX20779   1.552   3.820   6.619  1.5555  0.9747 -0.6661
  182SOPE    HY20780   1.637   3.679   6.561 -0.9451 -1.0820  0.8843
  182SOPE   O3120781   1.660   3.728   6.771 -0.0706 -1.2372 -0.5230
  182SOPE   C3120782   1.719   3.625   6.810 -0.3682 -0.0991  0.6534
  182SOPE   O3220783   1.708   3.518   6.752  0.0814 -0.1014 -0.6329
  182SOPE   C3220784   1.822   3.647   6.924  0.0625  0.0223  0.9265
  182SOPE   H2X20785   1.831   3.758   6.932  0.3434 -0.0429  1.5862
  182SOPE   H2Y20786   1.920   3.612   6.884 -0.4541 -0.9139  0.4304
  182SOPE   C2320787   1.151   3.582   7.033 -0.2794 -0.8470 -0.0911
  182SOPE   H3R20788   1.237   3.517   7.059 -0.6207 -0.8021  1.1940
  182SOPE   H3S20789   1.072   3.520   6.983  2.4524 -3.4793 -1.4477
  182SOPE   C2420790   1.097   3.639   7.172  0.2989 -0.2259 -0.3361
  182SOPE   H4R20791   1.182   3.700   7.211 -0.9816  1.1116  0.4545
  182SOPE   H4S20792   1.017   3.716   7.168  1.2731  0.9267  1.3151
  182SOPE   C2520793   1.046   3.528   7.264 -0.7578  0.3133  0.1103
  182SOPE   H5R20794   0.979   3.465   7.202  1.3811 -1.8094 -0.1655
  182SOPE   H5S20795   1.139   3.472   7.282 -0.6768  1.0770  2.4507
  182SOPE   C2620796   0.992   3.575   7.398 -0.0332  1.0482 -0.4039
  182SOPE   H6R20797   1.068   3.646   7.438 -0.1583  0.8971  0.1054
  182SOPE   H6S20798   0.897   3.633   7.396 -0.3196  0.6861  1.4411
  182SOPE   C2720799   0.977   3.457   7.500  0.1120 -0.0737  0.0111
  182SOPE   H7R20800   0.888   3.392   7.484  0.1557  0.3239 -2.2848
  182SOPE   H7S20801   1.063   3.388   7.488  0.0308 -0.2373  0.3813
  182SOPE   C2820802   0.972   3.498   7.647 -0.1591 -1.1372  0.4023
  182SOPE   H8R20803   0.916   3.594   7.656 -0.9648 -1.4326 -1.1261
  182SOPE   H8S20804   0.915   3.421   7.703 -1.8015 -0.1545  0.1554
  182SOPE   C2920805   1.111   3.525   7.709  0.4355 -0.0512 -0.1550
  182SOPE   H9120806   1.197   3.530   7.640  1.0000  0.2595  0.5662
  182SOPE  C21020807   1.132   3.539   7.842  0.3967 -0.0728 -0.1008
  182SOPE  H10120808   1.236   3.542   7.876  1.1755 -0.3719 -2.3066
  182SOPE  C21120809   1.019   3.530   7.940 -0.0931 -0.1979 -0.2166
  182SOPE  H11R20810   0.918   3.550   7.899  0.2546 -0.3926 -1.1843
  182SOPE  H11S20811   1.030   3.603   8.024 -1.3860  2.6769 -2.3917
  182SOPE  C21220812   1.016   3.393   8.006  0.2335 -0.1544 -0.2720
  182SOPE  H12R20813   1.097   3.382   8.082 -1.9014 -1.1367  2.0029
  182SOPE  H12S20814   1.033   3.315   7.929  0.3786 -0.4378  0.0418
  182SOPE  C21320815   0.878   3.357   8.081 -0.3156 -0.5782 -0.5954
  182SOPE  H13R20816   0.899   3.253   8.115 -1.5394 -1.3511 -2.1322
  182SOPE  H13S20817   0.806   3.350   7.997  0.9182 -1.3731 -1.6222
  182SOPE  C21420818   0.835   3.473   8.178 -0.7763 -0.5034  0.8092
  182SOPE  H14R20819   0.827   3.564   8.114  1.1847  0.3987  1.7633
  182SOPE  H14S20820   0.914   3.491   8.254  1.1145 -1.2950 -0.8948
  182SOPE  C21520821   0.701   3.444   8.246 -0.2063  0.3363 -0.1223
  182SOPE  H15R20822   0.626   3.456   8.165  0.2826  0.8991 -0.4923
  182SOPE  H15S20823   0.681   3.528   8.317 -1.2335  0.5496 -0.6491
  182SOPE  C21620824   0.686   3.299   8.307 -0.5142 -0.4825 -0.3749
  182SOPE  H16R20825   0.774   3.303   8.374 -0.4970  2.1335 -0.4310
  182SOPE  H16S20826   0.691   3.213   8.238 -1.6189 -1.4811  0.7416
  182SOPE  C21720827   0.562   3.283   8.397 -0.8097 -0.4253 -0.1402
  182SOPE  H17R20828   0.489   3.322   8.323 -1.1449  0.9520  0.8734
  182SOPE  H17S20829   0.568   3.352   8.484 -1.3522  2.3561 -2.1933
  182SOPE  C21820830   0.526   3.146   8.438 -0.0818 -0.9752 -0.2597
  182SOPE  H18R20831   0.415   3.139   8.441 -0.1646  0.3601  0.9111
  182SOPE  H18S20832   0.569   3.123   8.538  1.7739 -0.5241 -0.9158
  182SOPE  H18T20833   0.555   3.073   8.360  1.5421 -1.2621  0.5799
  182SOPE   C3320834   1.790   3.567   7.051  0.8287  0.0601  0.5302
  182SOPE   H3X20835   1.881   3.567   7.114  0.6953  1.6810  0.7594
  182SOPE   H3Y20836   1.761   3.466   7.014 -2.4199  0.6760  1.0239
  182SOPE   C3420837   1.683   3.639   7.134  0.0650  0.2194 -0.2632
  182SOPE   H4X20838   1.595   3.656   7.069  0.5937  0.4335 -0.9281
  182SOPE   H4Y20839   1.721   3.739   7.162 -2.3551  1.5329 -1.3623
  182SOPE   C3520840   1.639   3.553   7.251  0.5840 -0.0308  0.1102
  182SOPE   H5X20841   1.733   3.542   7.309  0.4992  0.2954  0.3154
  182SOPE   H5Y20842   1.606   3.457   7.207 -0.1150  0.6246 -0.8281
  182SOPE   C3620843   1.528   3.616   7.334 -0.3452 -0.2860  0.5126
  182SOPE   H6X20844   1.437   3.627   7.270  0.3134  2.4411 -0.0687
  182SOPE   H6Y20845   1.555   3.718   7.369 -0.8987 -0.6391  2.0373
  182SOPE   C3720846   1.506   3.527   7.453  0.6304 -0.3760  0.1577
  182SOPE   H7X20847   1.515   3.417   7.437 -2.4491 -0.4534 -2.0792
  182SOPE   H7Y20848   1.406   3.553   7.493  0.7694  0.1199  0.1889
  182SOPE   C3820849   1.595   3.576   7.571 -0.5917  0.6899 -0.0896
  182SOPE   H8X20850   1.592   3.687   7.580 -0.8284  0.6134  0.8070
  182SOPE   H8Y20851   1.697   3.541   7.547 -1.0510  1.0479 -2.9375
  182SOPE   C3920852   1.551   3.519   7.707 -0.0037 -0.8206 -0.1013
  182SOPE   H9X20853   1.535   3.410   7.690 -2.2965 -0.4827 -0.4279
  182SOPE   H9Y20854   1.456   3.563   7.744  0.4886 -2.0107  2.8522
  182SOPE  C31020855   1.662   3.541   7.819 -0.1363 -0.0539 -0.0779
  182SOPE  H10X20856   1.675   3.648   7.847  0.9551 -0.4238  0.8911
  182SOPE  H10Y20857   1.760   3.505   7.783  0.8096  1.0235  1.3197
  182SOPE  C31120858   1.630   3.462   7.945  0.0683  0.3645 -0.0020
  182SOPE  H11X20859   1.723   3.428   7.995  0.6550  1.3941 -0.3470
  182SOPE  H11Y20860   1.594   3.361   7.917  4.1110 -1.1820 -0.2535
  182SOPE  C31220861   1.513   3.517   8.028 -0.3163  0.3881 -0.3546
  182SOPE  H12X20862   1.420   3.523   7.968  0.0473  2.5539 -0.7677
  182SOPE  H12Y20863   1.541   3.617   8.068  0.2457 -0.6645  2.1164
  182SOPE  C31320864   1.486   3.431   8.152 -0.2845  0.1095  0.1431
  182SOPE  H13X20865   1.574   3.423   8.220  0.4817  0.8549 -0.7454
  182SOPE  H13Y20866   1.465   3.325   8.126 -0.9957  0.1909  0.3723
  182SOPE  C31420867   1.371   3.492   8.225  0.0155  0.5009 -0.0770
  182SOPE  H14X20868   1.279   3.482   8.163  0.0586 -0.6602  0.0338
  182SOPE  H14Y20869   1.402   3.596   8.250 -0.4786  0.4713  0.6868
  182SOPE  C31520870   1.336   3.422   8.355 -0.5393 -0.2249 -0.3037
  182SOPE  H15X20871   1.418   3.437   8.428 -1.2781 -2.0621  0.9867
  182SOPE  H15Y20872   1.331   3.312   8.339  0.1100 -0.1529 -1.0776
  182SOPE  C31620873   1.202   3.473   8.413  0.3290 -0.4580  0.8066
  182SOPE  H16X20874   1.130   3.466   8.329  1.9645 -0.8048 -0.6163
  182SOPE  H16Y20875   1.205   3.583   8.430  1.5463 -0.0144 -1.7905
  182SOPE  C31720876   1.151   3.395   8.534  0.2248  0.2832 -0.4329
  182SOPE  H17X20877   1.232   3.364   8.603 -0.5464  1.8833  1.2860
  182SOPE  H17Y20878   1.096   3.308   8.491 -0.8351  0.2282  0.9500
  182SOPE  C31820879   1.047   3.482   8.610  0.2975  0.2928  0.2129
  182SOPE  H18X20880   0.982   3.543   8.545  0.3629  1.3739  1.1299
  182SOPE  H18Y20881   1.096   3.556   8.678  1.4307 -0.1969 -0.0472
  182SOPE  H18Z20882   0.985   3.417   8.675 -1.8195  0.9283 -1.0985
  183SOPE     N20883   4.710   0.640   6.414 -0.1794 -0.0230  0.0036
  183SOPE   HN120884   4.799   0.611   6.458  0.1488 -2.3883 -1.9987
  183SOPE   HN220885   4.722   0.732   6.368 -0.6463 -0.1345 -0.3592
  183SOPE   HN320886   4.636   0.646   6.487 -0.5145  0.7339 -0.3839
  183SOPE   C1220887   4.669   0.530   6.319 -0.2423  0.0551  0.2568
  183SOPE  H12A20888   4.760   0.515   6.256  0.7126  1.8833  1.1095
  183SOPE  H12B20889   4.577   0.546   6.259  0.5388 -0.3578 -1.1021
  183SOPE   C1120890   4.658   0.403   6.405  0.3116 -0.4211  0.4393
  183SOPE  H11A20891   4.611   0.325   6.341  2.1736 -1.2867  0.0773
  183SOPE  H11B20892   4.584   0.422   6.487  1.7795 -2.1617  2.2854
  183SOPE     P20893   4.878   0.268   6.387  0.2077  0.0425 -0.0594
  183SOPE   O1320894   4.955   0.346   6.286  0.5750 -0.0774  0.1633
  183SOPE   O1420895   4.796   0.163   6.319 -0.3188 -0.2131 -0.1044
  183SOPE   O1220896   4.779   0.365   6.463 -0.9478 -1.2814  0.8413
  183SOPE   O1120897   4.977   0.213   6.495 -0.4817  0.5681 -0.5279
  183SOPE    C120898   4.933   0.133   6.607 -0.5835 -1.3532 -0.2001
  183SOPE    HA20899   4.969   0.028   6.605 -1.6377 -1.7340  0.1355
  183SOPE    HB20900   4.822   0.122   6.601 -0.6920  0.1286 -2.3021
  183SOPE    C220901   4.971   0.205   6.743  0.5548  0.1005 -0.3270
  183SOPE    HS20902   4.935   0.310   6.731 -2.1555 -0.5256  1.4370
  183SOPE   O2120903   5.111   0.187   6.771  0.6359 -0.3237 -0.5417
  183SOPE   C2120904   5.183   0.296   6.778  0.2456 -0.4665 -0.0039
  183SOPE   O2220905   5.135   0.412   6.778  0.3295 -0.0075  0.2246
  183SOPE   C2220906   5.329   0.266   6.789 -0.2406 -0.1144  0.7584
  183SOPE   H2R20907   5.380   0.285   6.692 -0.6975  2.5500  0.9461
  183SOPE   H2S20908   5.353   0.158   6.799  0.0624 -0.2474 -1.0715
  183SOPE    C320909   4.896   0.134   6.850 -0.2427 -0.2671  0.7479
  183SOPE    HX20910   4.934   0.030   6.863 -1.1972 -0.5984  0.9936
  183SOPE    HY20911   4.793   0.127   6.808 -0.1537  4.7766 -0.9519
  183SOPE   O3120912   4.886   0.218   6.964 -0.1436 -0.1787 -0.2262
  183SOPE   C3120913   4.963   0.184   7.064 -0.7508  0.0678 -0.4930
  183SOPE   O3220914   5.050   0.100   7.060  0.5130  0.2325  0.2311
  183SOPE   C3220915   4.920   0.276   7.183 -0.6777  0.4276 -0.9671
  183SOPE   H2X20916   4.810   0.270   7.186 -0.5908 -2.7083 -0.8366
  183SOPE   H2Y20917   4.962   0.374   7.152 -0.7016  1.5245  2.1477
  183SOPE   C2320918   5.405   0.330   6.904  0.5885 -0.1212 -0.7150
  183SOPE   H3R20919   5.413   0.440   6.888  2.5094 -0.0456  0.4465
  183SOPE   H3S20920   5.508   0.292   6.915  0.5972  0.3819  1.4011
  183SOPE   C2420921   5.341   0.316   7.044  0.1696 -0.3687 -0.2916
  183SOPE   H4R20922   5.247   0.376   7.045  1.0908  1.1419 -0.4463
  183SOPE   H4S20923   5.320   0.208   7.057  1.3848 -0.3779  2.4717
  183SOPE   C2520924   5.435   0.351   7.159  0.0102  0.0091 -0.0693
  183SOPE   H5R20925   5.519   0.278   7.156 -1.0892 -1.2434 -1.3519
  183SOPE   H5S20926   5.471   0.452   7.129 -0.8443 -0.2205 -2.0493
  183SOPE   C2620927   5.375   0.344   7.295  0.0039 -0.4470 -0.2438
  183SOPE   H6R20928   5.286   0.410   7.304 -0.0666 -0.6343  0.4665
  183SOPE   H6S20929   5.328   0.245   7.312  0.6761 -1.0252 -1.5279
  183SOPE   C2720930   5.480   0.361   7.413 -0.0826  0.2826  0.2299
  183SOPE   H7R20931   5.563   0.300   7.370  0.6648  1.3347  0.1537
  183SOPE   H7S20932   5.517   0.465   7.410 -1.0023  0.5983 -1.1443
  183SOPE   C2820933   5.441   0.307   7.549  0.0850  1.3984  0.3615
  183SOPE   H8R20934   5.399   0.208   7.520 -1.0561  1.5796  1.3142
  183SOPE   H8S20935   5.534   0.288   7.605  0.0219 -1.4805 -0.3272
  183SOPE   C2920936   5.336   0.391   7.618  0.2885 -0.1595  0.2638
  183SOPE   H9120937   5.267   0.451   7.557  1.7633  0.2462 -1.1020
  183SOPE  C21020938   5.332   0.414   7.754  1.0861  0.1000  0.6258
  183SOPE  H10120939   5.260   0.485   7.798  0.3683  1.1965 -2.1031
  183SOPE  C21120940   5.423   0.345   7.851 -0.4621  0.0341 -0.5999
  183SOPE  H11R20941   5.511   0.409   7.874  0.7232 -1.5765 -0.5208
  183SOPE  H11S20942   5.465   0.247   7.822  0.9780 -0.8897  3.8268
  183SOPE  C21220943   5.330   0.306   7.970 -0.4243 -0.3719  0.4781
  183SOPE  H12R20944   5.271   0.217   7.939  0.6839 -0.7052 -0.7296
  183SOPE  H12S20945   5.261   0.385   8.009 -1.3305  0.1808 -2.0392
  183SOPE  C21320946   5.406   0.255   8.093 -0.3238 -0.4587 -0.2929
  183SOPE  H13R20947   5.458   0.340   8.143 -0.3131 -0.6062 -0.0521
  183SOPE  H13S20948   5.483   0.180   8.065  1.2766  1.0227 -0.0168
  183SOPE  C21420949   5.314   0.209   8.199 -0.3372 -0.2790  0.3650
  183SOPE  H14R20950   5.263   0.114   8.171 -0.0789 -0.7362  1.3967
  183SOPE  H14S20951   5.242   0.290   8.225  1.4705  1.1306  1.2894
  183SOPE  C21520952   5.396   0.188   8.328 -0.1327  0.0282  0.1267
  183SOPE  H15R20953   5.451   0.278   8.363  1.1868 -1.1698  1.2760
  183SOPE  H15S20954   5.476   0.110   8.325 -0.0794  0.0034  1.6141
  183SOPE  C21620955   5.308   0.147   8.441 -0.4302  0.0172 -0.8424
  183SOPE  H16R20956   5.272   0.042   8.439 -0.6338 -0.0475  2.3774
  183SOPE  H16S20957   5.212   0.203   8.438  0.9731  2.6046 -0.4623
  183SOPE  C21720958   5.370   0.174   8.582  0.4115 -0.2802  0.0782
  183SOPE  H17R20959   5.415   0.275   8.580 -0.1652 -0.0081 -1.8881
  183SOPE  H17S20960   5.455   0.103   8.594 -0.7327 -1.8553 -0.7199
  183SOPE  C21820961   5.262   0.137   8.693 -0.2974  0.3922  0.0786
  183SOPE  H18R20962   5.211   0.040   8.675  1.4868 -0.7081  0.7363
  183SOPE  H18S20963   5.182   0.214   8.689 -0.6195  0.1058  0.8581
  183SOPE  H18T20964   5.299   0.150   8.797  0.4336  1.5894 -0.3102
  183SOPE   C3320965   4.982   0.240   7.324  0.1642 -0.0117 -0.5697
  183SOPE   H3X20966   5.084   0.280   7.337 -0.5075  0.9689  2.7328
  183SOPE   H3Y20967   4.990   0.130   7.340  1.3793  0.0266 -0.8470
  183SOPE   C3420968   4.876   0.283   7.435 -0.2416 -0.7846  0.6096
  183SOPE   H4X20969   4.786   0.221   7.416  0.6894 -2.0996  0.3400
  183SOPE   H4Y20970   4.848   0.387   7.410  0.3863 -0.8347 -0.3509
  183SOPE   C3520971   4.915   0.271   7.579  0.3080  0.7315  0.4078
  183SOPE   H5X20972   4.836   0.308   7.648 -0.3837 -0.2705  0.1742
  183SOPE   H5Y20973   5.004   0.337   7.583 -0.0826  1.2213  1.3436
  183SOPE   C3620974   4.942   0.118   7.616  1.3232 -0.7631  0.0349
  183SOPE   H6X20975   5.012   0.067   7.546  0.5023 -0.1287 -1.2985
  183SOPE   H6Y20976   4.845   0.065   7.610  1.0867 -0.4674  1.0168
  183SOPE   C3720977   5.007   0.092   7.749 -0.0241 -0.1324 -0.6305
  183SOPE   H7X20978   5.098   0.155   7.741  1.1304 -1.7270 -0.6723
  183SOPE   H7Y20979   5.033  -0.016   7.753  0.0473 -0.0865  2.1939
  183SOPE   C3820980   4.923   0.126   7.863 -0.0050 -0.4651 -0.7878
  183SOPE   H8X20981   4.824   0.077   7.852 -0.3917  0.7102 -3.5797
  183SOPE   H8Y20982   4.886   0.229   7.845  0.1649 -0.4160 -0.8652
  183SOPE   C3920983   4.984   0.124   8.000  0.7016 -0.0310  0.5349
  183SOPE   H9X20984   5.084   0.172   8.004  0.2201  0.9575  0.7672
  183SOPE   H9Y20985   4.989   0.018   8.033  0.3902  0.0730  0.9211
  183SOPE  C31020986   4.899   0.197   8.103 -0.0071  0.0046 -0.0994
  183SOPE  H10X20987   4.791   0.177   8.083 -0.3099 -2.0566  2.9818
  183SOPE  H10Y20988   4.923   0.305   8.089 -1.5941  0.4167  0.1172
  183SOPE  C31120989   4.926   0.140   8.245 -0.0542  0.3794  0.1190
  183SOPE  H11X20990   5.032   0.109   8.257 -1.1495 -3.1258  2.6084
  183SOPE  H11Y20991   4.862   0.050   8.261 -0.4144  0.5984 -0.0737
  183SOPE  C31220992   4.901   0.242   8.355 -0.5698 -0.8185  0.7155
  183SOPE  H12X20993   4.800   0.288   8.345 -0.7463 -0.7302  2.5590
  183SOPE  H12Y20994   4.981   0.318   8.354 -0.6983 -0.6843 -0.6402
  183SOPE  C31320995   4.896   0.174   8.490  0.2550  0.2324  0.5472
  183SOPE  H13X20996   4.995   0.133   8.517  0.5498  0.4297 -0.2297
  183SOPE  H13Y20997   4.825   0.089   8.492 -2.4704  2.2531 -1.7436
  183SOPE  C31420998   4.868   0.268   8.605  0.0535 -0.0485 -0.3084
  183SOPE  H14X20999   4.924   0.358   8.573  0.2660  0.1020  0.4621
  183SOPE  H14Y21000   4.910   0.249   8.706  0.0412 -0.0918 -0.3116
  183SOPE  C31521001   4.722   0.306   8.628  0.1431  0.0926  0.0373
  183SOPE  H15X21002   4.675   0.316   8.528  0.8327 -2.7554 -0.6556
  183SOPE  H15Y21003   4.718   0.408   8.672  1.3304 -0.0335  0.4838
  183SOPE  C31621004   4.655   0.193   8.702  0.1293  0.8966 -0.0485
  183SOPE  H16X21005   4.668   0.105   8.636  1.6340 -0.6003  2.1029
  183SOPE  H16Y21006   4.545   0.208   8.707 -0.1140 -0.9568  1.0253
  183SOPE  C31721007   4.705   0.152   8.841  0.7116  0.4745  0.2515
  183SOPE  H17X21008   4.805   0.107   8.829  0.4080 -0.4602  1.1700
  183SOPE  H17Y21009   4.635   0.080   8.888 -0.7119  0.4460 -1.7657
  183SOPE  C31821010   4.716   0.273   8.937  1.0286  0.2723  0.5732
  183SOPE  H18X21011   4.757   0.251   9.037  0.8630 -0.4665  0.4841
  183SOPE  H18Y21012   4.617   0.316   8.964  0.2352 -0.0789 -1.5150
  183SOPE  H18Z21013   4.771   0.363   8.901  1.2519  0.3580  1.1323
  184SOPE     N21014   5.162   1.492   5.676  0.6452 -0.1162  0.1522
  184SOPE   HN121015   5.227   1.414   5.697 -1.4804 -1.9625  0.3609
  184SOPE   HN221016   5.102   1.467   5.595  0.1007 -2.4853  1.2060
  184SOPE   HN321017   5.225   1.568   5.643  0.4910  0.5966  1.4051
  184SOPE   C1221018   5.066   1.520   5.788  0.0454 -0.5704 -0.5676
  184SOPE  H12A21019   5.011   1.429   5.819  0.1784 -0.2925  0.5034
  184SOPE  H12B21020   5.003   1.604   5.751  2.3371  1.2417 -0.5895
  184SOPE   C1121021   5.153   1.579   5.906 -0.4194  1.1669 -0.2314
  184SOPE  H11A21022   5.212   1.664   5.865 -1.4248  0.7005 -2.8274
  184SOPE  H11B21023   5.221   1.495   5.930 -1.5686 -0.5667 -2.6577
  184SOPE     P21024   4.993   1.540   6.112  0.3944  0.1266 -0.1156
  184SOPE   O1321025   4.995   1.403   6.066 -0.5584  0.3315  0.1553
  184SOPE   O1421026   4.858   1.600   6.145 -0.1006 -0.6610  0.3728
  184SOPE   O1221027   5.069   1.632   6.003  0.3449 -0.0672  0.2815
  184SOPE   O1121028   5.087   1.548   6.245  1.1471  0.3618  0.2190
  184SOPE    C121029   5.167   1.662   6.263 -0.3529  0.3975 -0.2923
  184SOPE    HA21030   5.137   1.752   6.206  1.9169  0.1576 -1.9931
  184SOPE    HB21031   5.272   1.644   6.232 -0.5764  1.2012 -1.5546
  184SOPE    C221032   5.154   1.709   6.416  0.1356  0.2387  0.7908
  184SOPE    HS21033   5.199   1.807   6.439 -1.1468  0.5173  2.2221
  184SOPE   O2121034   5.206   1.609   6.507  0.3646 -0.0021 -0.1955
  184SOPE   C2121035   5.339   1.625   6.525  0.4697 -0.1404  0.1940
  184SOPE   O2221036   5.400   1.722   6.482  0.2411  0.0162 -0.2910
  184SOPE   C2221037   5.408   1.512   6.599 -0.8225 -0.5805  0.2758
  184SOPE   H2R21038   5.487   1.471   6.533 -1.7239 -2.0602  0.0578
  184SOPE   H2S21039   5.331   1.435   6.619  0.5442 -1.5339  2.1425
  184SOPE    C321040   5.002   1.730   6.450  0.1794  0.3355 -0.1874
  184SOPE    HX21041   4.957   1.637   6.409 -1.1942  1.3364 -1.0256
  184SOPE    HY21042   4.961   1.816   6.393 -1.3711 -1.0810 -1.3104
  184SOPE   O3121043   4.979   1.735   6.595  0.0816  0.1041 -0.0768
  184SOPE   C3121044   4.996   1.849   6.661 -0.0487 -0.8145  0.6239
  184SOPE   O3221045   5.042   1.951   6.611  0.1815 -0.0521  0.4591
  184SOPE   C3221046   4.963   1.843   6.810 -0.1092  0.0050  0.7070
  184SOPE   H2X21047   5.006   1.746   6.844 -0.9503 -0.5217  0.3033
  184SOPE   H2Y21048   4.854   1.829   6.821 -0.1516  0.0837  0.3950
  184SOPE   C2321049   5.468   1.551   6.739  0.3592 -0.3908  0.0968
  184SOPE   H3R21050   5.513   1.652   6.735 -1.8824  0.6686  0.4955
  184SOPE   H3S21051   5.543   1.475   6.771  2.6617  1.8891  0.4456
  184SOPE   C2421052   5.352   1.556   6.838 -0.5552  0.1401  0.4521
  184SOPE   H4R21053   5.261   1.604   6.795 -1.3775 -1.3180  0.5000
  184SOPE   H4S21054   5.314   1.452   6.849 -0.8408  0.2970  0.9710
  184SOPE   C2521055   5.399   1.623   6.970  0.3199 -0.4827  0.2953
  184SOPE   H5R21056   5.506   1.653   6.961 -0.3976  1.5982 -2.5227
  184SOPE   H5S21057   5.330   1.709   6.981 -0.5396 -1.2499  1.0352
  184SOPE   C2621058   5.384   1.532   7.092  0.1853 -0.5755 -0.8807
  184SOPE   H6R21059   5.434   1.433   7.083  2.0139  0.2722 -0.5778
  184SOPE   H6S21060   5.434   1.581   7.179  0.5565 -0.6481 -1.0495
  184SOPE   C2721061   5.237   1.506   7.115 -0.4194 -0.2971  0.0022
  184SOPE   H7R21062   5.194   1.608   7.105  1.6079  0.5264 -0.8686
  184SOPE   H7S21063   5.199   1.460   7.021 -1.3133 -0.9486  0.6761
  184SOPE   C2821064   5.195   1.442   7.245 -0.8544  0.6998 -0.4598
  184SOPE   H8R21065   5.228   1.510   7.327  1.1251  0.7779 -1.2554
  184SOPE   H8S21066   5.085   1.450   7.233 -0.9259 -2.0854 -2.5228
  184SOPE   C2921067   5.243   1.298   7.244 -0.8418  0.3978 -0.0592
  184SOPE   H9121068   5.229   1.254   7.144  1.3084  1.5302 -0.9442
  184SOPE  C21021069   5.300   1.228   7.346  0.1613 -0.0164 -0.2752
  184SOPE  H10121070   5.349   1.134   7.318 -2.4758 -1.9656  1.2214
  184SOPE  C21121071   5.325   1.281   7.486 -0.1330  0.3861 -0.0063
  184SOPE  H11R21072   5.293   1.386   7.504 -0.4903 -0.1751  3.3837
  184SOPE  H11S21073   5.434   1.271   7.502 -0.3595 -0.6958  0.9751
  184SOPE  C21221074   5.249   1.193   7.586  0.1104  0.0349 -0.6694
  184SOPE  H12R21075   5.281   1.087   7.571 -1.0403 -0.0984 -2.5824
  184SOPE  H12S21076   5.140   1.202   7.566  0.0301 -0.0456 -0.2712
  184SOPE  C21321077   5.279   1.228   7.731 -0.1041  0.1193 -0.3340
  184SOPE  H13R21078   5.247   1.333   7.749  0.3877  0.2260 -0.0910
  184SOPE  H13S21079   5.385   1.222   7.762 -0.4275 -4.4335  0.6694
  184SOPE  C21421080   5.197   1.135   7.835 -0.0574  0.5098  0.5628
  184SOPE  H14R21081   5.214   1.028   7.811 -3.3370  0.2663 -1.4150
  184SOPE  H14S21082   5.093   1.158   7.803  0.3791 -1.1271 -2.4563
  184SOPE  C21521083   5.222   1.177   7.978  0.1012  0.8857 -0.3154
  184SOPE  H15R21084   5.195   1.284   7.992  1.8724  1.2935  0.2645
  184SOPE  H15S21085   5.329   1.160   8.000 -0.2296 -2.3261 -0.7501
  184SOPE  C21621086   5.137   1.085   8.075 -0.3745 -0.2117  0.3141
  184SOPE  H16R21087   5.174   0.982   8.057  0.9556  0.2811  0.1381
  184SOPE  H16S21088   5.029   1.086   8.050 -0.4234  1.0538  0.4924
  184SOPE  C21721089   5.163   1.132   8.223  0.0602 -0.8903 -0.0222
  184SOPE  H17R21090   5.164   1.239   8.255  0.4443 -0.8046 -0.3173
  184SOPE  H17S21091   5.266   1.099   8.244 -0.7117 -2.3247  1.8205
  184SOPE  C21821092   5.077   1.056   8.331 -0.4163  0.4402 -0.0816
  184SOPE  H18R21093   4.986   1.118   8.346 -0.6219 -0.0754  0.9098
  184SOPE  H18S21094   5.136   1.055   8.425  3.5436  0.8807 -2.3556
  184SOPE  H18T21095   5.053   0.950   8.306  1.0396 -0.0166  0.3768
  184SOPE   C3321096   4.987   1.976   6.880  0.5249  0.0550  0.1940
  184SOPE   H3X21097   4.918   2.048   6.831 -0.4987 -1.6862 -1.0203
  184SOPE   H3Y21098   5.085   2.026   6.867  1.0547 -0.9290  0.2625
  184SOPE   C3421099   4.967   1.958   7.033 -0.8511  0.3009 -0.2446
  184SOPE   H4X21100   4.899   1.872   7.051  0.2649 -0.1782  1.9499
  184SOPE   H4Y21101   4.921   2.045   7.085 -1.5083 -1.1790  1.7444
  184SOPE   C3521102   5.102   1.921   7.099  0.2925 -0.1105  0.3715
  184SOPE   H5X21103   5.172   2.006   7.090  2.0658 -1.4970  0.6689
  184SOPE   H5Y21104   5.143   1.837   7.038 -1.7136 -1.2195  0.4292
  184SOPE   C3621105   5.090   1.889   7.250 -0.5803  0.3798 -0.2727
  184SOPE   H6X21106   5.003   1.823   7.274 -2.0549  2.0838 -0.6972
  184SOPE   H6Y21107   5.062   1.988   7.292 -0.9483  0.4877 -0.7644
  184SOPE   C3721108   5.224   1.864   7.325 -1.0292 -0.4574 -0.3149
  184SOPE   H7X21109   5.260   1.964   7.357  0.4530 -0.9717 -0.2782
  184SOPE   H7Y21110   5.303   1.814   7.264 -0.3193 -0.3145  0.4677
  184SOPE   C3821111   5.200   1.780   7.451 -0.2920  0.4142 -0.0096
  184SOPE   H8X21112   5.158   1.680   7.426  0.6099  0.4756 -1.8932
  184SOPE   H8Y21113   5.114   1.833   7.496 -0.7535  1.1346 -1.6875
  184SOPE   C3921114   5.325   1.761   7.543  0.9338  0.1271 -0.4494
  184SOPE   H9X21115   5.369   1.860   7.565 -2.2247  1.2432  1.4896
  184SOPE   H9Y21116   5.392   1.711   7.469 -0.3282 -1.7567 -0.3888
  184SOPE  C31021117   5.301   1.679   7.667  0.6322  0.0643 -0.6225
  184SOPE  H10X21118   5.293   1.570   7.648  3.1474 -1.1498  3.7596
  184SOPE  H10Y21119   5.209   1.702   7.726  1.1345 -0.3080  0.3253
  184SOPE  C31121120   5.407   1.703   7.767 -0.2739 -0.2542 -0.0173
  184SOPE  H11X21121   5.413   1.814   7.778  0.3951 -0.0733 -1.8168
  184SOPE  H11Y21122   5.506   1.664   7.734  0.3785  2.2537 -1.3593
  184SOPE  C31221123   5.380   1.630   7.905  0.1787 -0.6181 -0.0043
  184SOPE  H12X21124   5.352   1.523   7.899  1.9598 -1.0917 -0.2016
  184SOPE  H12Y21125   5.290   1.674   7.954  0.7225  2.0409 -1.1729
  184SOPE  C31321126   5.499   1.653   7.998  0.5801  0.5040 -0.1394
  184SOPE  H13X21127   5.547   1.753   7.995  0.2128  0.6598 -2.8329
  184SOPE  H13Y21128   5.581   1.586   7.962  1.9426  3.1667 -2.3563
  184SOPE  C31421129   5.457   1.607   8.138 -0.1832  0.5161 -0.9111
  184SOPE  H14X21130   5.548   1.558   8.179 -0.3579 -0.7057 -1.9244
  184SOPE  H14Y21131   5.381   1.526   8.137  0.6613 -0.2896 -2.5562
  184SOPE  C31521132   5.412   1.729   8.226 -0.2948  0.4095 -0.7833
  184SOPE  H15X21133   5.309   1.751   8.189 -0.0811  0.8928 -1.1005
  184SOPE  H15Y21134   5.460   1.825   8.199 -0.3165  0.9204  0.8987
  184SOPE  C31621135   5.394   1.702   8.375  0.0702 -0.3557 -0.0940
  184SOPE  H16X21136   5.485   1.651   8.411 -1.1219 -0.8381  2.4331
  184SOPE  H16Y21137   5.309   1.633   8.397  0.6600 -1.1865 -0.3792
  184SOPE  C31721138   5.373   1.833   8.455 -0.5706 -0.2084 -0.0135
  184SOPE  H17X21139   5.288   1.893   8.417 -1.4386  0.6731  3.0669
  184SOPE  H17Y21140   5.460   1.899   8.432 -2.9381  2.1622 -2.9283
  184SOPE  C31821141   5.345   1.812   8.602  0.2664  0.1098 -0.3789
  184SOPE  H18X21142   5.295   1.714   8.610 -0.3757  0.3953 -0.7740
  184SOPE  H18Y21143   5.295   1.904   8.640 -1.0590 -0.3119 -1.0384
  184SOPE  H18Z21144   5.433   1.806   8.669 -0.4065  0.1226  0.5193
  185SAPI   C1221145   6.254   5.819  11.293  0.4019  0.4096 -0.2349
  185SAPI    H221146   6.174   5.801  11.217  0.1565 -2.7312  0.6185
  185SAPI    O221147   6.206   5.891  11.412 -0.8828  0.3783  0.6476
  185SAPI   HO221148   6.115   5.862  11.412 -1.0189  0.7721 -0.0121
  185SAPI   C1321149   6.302   5.683  11.339  0.1247  0.0911 -0.1219
  185SAPI    H321150   6.333   5.615  11.256  2.7849 -0.3966  1.1841
  185SAPI    O321151   6.191   5.617  11.410 -0.1902  0.0997  0.3317
  185SAPI   HO321152   6.140   5.574  11.341  0.8720  1.7442 -1.5788
  185SAPI   C1421153   6.429   5.702  11.437 -0.8815  0.2347 -0.4463
  185SAPI    H421154   6.397   5.774  11.516 -3.2566 -0.4426 -0.7017
  185SAPI    O421155   6.468   5.581  11.507  1.1339  0.0366  0.0267
  185SAPI   HO421156   6.468   5.502  11.452 -1.2340 -0.6691  0.8839
  185SAPI   C1521157   6.536   5.765  11.346 -0.4941  1.9408 -0.5021
  185SAPI    H521158   6.543   5.706  11.251 -0.9574  0.7418  0.1841
  185SAPI    O521159   6.665   5.755  11.406  0.3157 -0.4080  0.7253
  185SAPI   HO521160   6.707   5.679  11.366 -1.7212 -0.5378 -1.3934
  185SAPI   C1621161   6.492   5.902  11.307 -0.0838 -0.5983  0.6848
  185SAPI    H621162   6.477   5.968  11.395  0.4989  0.7764 -0.1990
  185SAPI    O621163   6.595   5.972  11.236  0.2049 -0.3827 -0.3639
  185SAPI   HO621164   6.558   6.021  11.162 -1.5568 -1.0858 -0.0171
  185SAPI   C1121165   6.367   5.886  11.220  0.2306  0.1606  0.1730
  185SAPI    H121166   6.394   5.824  11.133  0.9556 -1.9077  1.7919
  185SAPI     P21167   6.277   6.034  11.016  0.4267 -0.1406  0.2236
  185SAPI   O1321168   6.402   6.013  10.939 -0.4270 -0.5053 -0.7670
  185SAPI   O1421169   6.204   6.165  11.008 -0.3784 -0.1026 -0.1360
  185SAPI   O1221170   6.313   6.008  11.175 -0.2157  0.5087  0.1363
  185SAPI   O1121171   6.169   5.922  10.978 -0.6017  0.1195 -0.0319
  185SAPI    C121172   6.037   5.930  11.028 -0.1611 -0.5445  0.3848
  185SAPI    HA21173   6.007   5.831  11.069  0.9424 -0.4448  1.4944
  185SAPI    HB21174   6.029   5.999  11.115 -1.8921  0.1767 -0.3053
  185SAPI    C221175   5.951   5.975  10.909 -0.3262 -0.0002  0.2844
  185SAPI    HS21176   5.981   5.912  10.822  0.9085  0.7299  0.1427
  185SAPI   O2121177   5.977   6.113  10.882 -0.2788  0.0765  0.0762
  185SAPI   C2121178   6.020   6.147  10.759 -0.1342  0.3463 -0.2171
  185SAPI   O2221179   6.025   6.074  10.665  0.1636  0.0934 -0.0711
  185SAPI   C2221180   6.052   6.297  10.766  0.5040  0.1640 -0.2779
  185SAPI   H2R21181   5.963   6.352  10.803  0.6715  2.1281 -2.5799
  185SAPI   H2S21182   6.121   6.317  10.851  0.1613 -0.3662  0.1389
  185SAPI    C321183   5.800   5.966  10.937 -0.8818 -1.0531  0.5602
  185SAPI    HX21184   5.761   6.021  11.025  1.9184  2.6624 -0.2859
  185SAPI    HY21185   5.788   5.856  10.947 -3.0090 -0.9840 -0.7513
  185SAPI   O3121186   5.734   6.021  10.825  0.3744  0.1665 -0.4373
  185SAPI   C3121187   5.693   5.932  10.730  0.3355  0.2194 -0.6325
  185SAPI   O3221188   5.706   5.809  10.734  0.0683  0.2665  0.4145
  185SAPI   C3221189   5.628   6.015  10.620  0.0278 -0.2924 -0.5590
  185SAPI   H2X21190   5.665   6.119  10.628 -1.0743  0.1070 -0.4670
  185SAPI   H2Y21191   5.520   6.015  10.645  0.6227 -0.5072  2.3591
  185SAPI   C2321192   6.094   6.370  10.637 -0.0452  0.1660 -0.2718
  185SAPI   H3R21193   6.174   6.310  10.588 -0.2043  1.6119 -2.4587
  185SAPI   H3S21194   6.136   6.468  10.666  2.2008 -0.2181 -1.9754
  185SAPI   C2421195   5.966   6.389  10.547 -0.3779  0.4416 -0.8105
  185SAPI   H4R21196   5.911   6.295  10.525  0.0268  0.3325 -1.3759
  185SAPI   H4S21197   6.010   6.416  10.449 -0.4685  1.4565 -0.5866
  185SAPI   C2521198   5.879   6.508  10.595 -0.4324  0.9419 -0.3241
  185SAPI   H5R21199   5.907   6.549  10.693 -1.5841  0.7464  0.1007
  185SAPI   C2621200   5.778   6.565  10.528  0.3011 -0.0647 -0.2876
  185SAPI   H6R21201   5.711   6.637  10.577 -0.5393  0.1060 -1.6408
  185SAPI   C2721202   5.747   6.516  10.388 -0.7733 -0.7092 -0.3770
  185SAPI   H7R21203   5.839   6.492  10.329  2.2728  2.5791  2.5217
  185SAPI   H7S21204   5.698   6.605  10.343 -2.4520 -1.4603 -0.0866
  185SAPI   C2821205   5.651   6.403  10.391  0.5084  0.7511 -0.1330
  185SAPI   H8R21206   5.608   6.380  10.489  3.5326 -0.3227  1.0506
  185SAPI   C2921207   5.621   6.324  10.290  0.3387  0.3726 -0.0413
  185SAPI   H9R21208   5.559   6.236  10.312 -1.8430  1.7938 -0.1421
  185SAPI  C21021209   5.676   6.327  10.148  0.4808  0.8275  0.0582
  185SAPI  H10R21210   5.712   6.232  10.105  0.7000  1.4100 -1.0915
  185SAPI  H10S21211   5.770   6.387  10.157  0.3230  0.9529  1.0337
  185SAPI  C21121212   5.583   6.406  10.056  0.1552 -0.3546  0.1922
  185SAPI  H11R21213   5.483   6.425  10.097 -0.3012 -0.5803 -0.7775
  185SAPI  C21221214   5.609   6.437   9.925  0.5078  0.2076  0.0911
  185SAPI  H12R21215   5.523   6.472   9.866 -0.3984  0.1206  1.3130
  185SAPI  C21321216   5.737   6.413   9.852 -0.8815  0.4586 -0.5696
  185SAPI  H13R21217   5.728   6.413   9.742 -1.0921 -1.4233 -0.5791
  185SAPI  H13S21218   5.769   6.316   9.895  1.1224  1.1547 -0.3829
  185SAPI  C21421219   5.850   6.510   9.881 -0.8712 -0.7383  0.1094
  185SAPI  H14R21220   5.894   6.509   9.982  3.2788  0.2371 -1.4475
  185SAPI  C21521221   5.904   6.610   9.801 -0.8450  0.1097  0.3725
  185SAPI  H15R21222   5.986   6.671   9.841 -1.1724  0.2776  0.7964
  185SAPI  C21621223   5.855   6.647   9.667  0.2654  0.0481  1.2480
  185SAPI  H16R21224   5.767   6.587   9.635 -0.2763  0.6913  1.5150
  185SAPI  H16S21225   5.937   6.625   9.595  1.2352  2.9890  1.3431
  185SAPI  C21721226   5.820   6.799   9.682  0.2654 -0.1480  0.4083
  185SAPI  H17R21227   5.912   6.851   9.715  0.5953  1.2018 -2.3481
  185SAPI  H17S21228   5.733   6.822   9.748  1.5234  0.8599  1.7678
  185SAPI  C21821229   5.779   6.860   9.544  0.2676  0.7121  0.0761
  185SAPI  H18R21230   5.761   6.968   9.564 -0.7633  0.8764 -1.5830
  185SAPI  H18S21231   5.676   6.830   9.519 -0.1263  1.1826  1.0711
  185SAPI  C21921232   5.885   6.838   9.434  0.5859  0.6896  0.3337
  185SAPI  H19R21233   5.856   6.902   9.348  1.3965 -1.5853 -1.7507
  185SAPI  H19S21234   5.881   6.732   9.401 -0.5839  0.0356  2.3637
  185SAPI  C22021235   6.034   6.869   9.463  0.6573 -0.1390 -0.1048
  185SAPI  H20R21236   6.044   6.978   9.487 -0.5459  0.3325 -1.6383
  185SAPI  H20S21237   6.099   6.840   9.378  0.3358 -1.2169  0.0096
  185SAPI  H20T21238   6.057   6.816   9.558 -0.7591 -1.0949 -0.2720
  185SAPI   C3321239   5.653   5.971  10.476 -0.0459 -0.9369  0.0975
  185SAPI   H3X21240   5.763   5.955  10.468 -0.3344 -2.8286 -0.7098
  185SAPI   H3Y21241   5.631   6.056  10.409  0.4939  0.9697  2.2025
  185SAPI   C3421242   5.578   5.851  10.437  0.1182 -0.5751 -0.5578
  185SAPI   H4X21243   5.470   5.879  10.441  0.1474 -0.0387 -2.5651
  185SAPI   H4Y21244   5.590   5.769  10.511 -1.3516 -0.4959 -0.1965
  185SAPI   C3521245   5.612   5.804  10.295 -0.3615  0.1213 -0.3093
  185SAPI   H5X21246   5.553   5.712  10.272 -0.4629  0.7266 -2.8663
  185SAPI   H5Y21247   5.718   5.776  10.281 -0.6066 -0.0960 -1.9943
  185SAPI   C3621248   5.581   5.901  10.179  0.3984  0.2141  0.6462
  185SAPI   H6X21249   5.657   5.982  10.187  1.2842 -0.4074 -0.9296
  185SAPI   H6Y21250   5.481   5.949  10.191  1.3423  2.6372 -0.3978
  185SAPI   C3721251   5.616   5.843  10.041  0.5843  0.5694 -0.0450
  185SAPI   H7X21252   5.585   5.736  10.048  0.9027  0.5893  2.8454
  185SAPI   H7Y21253   5.727   5.837  10.041  0.5876 -0.7254  2.4717
  185SAPI   C3821254   5.569   5.928   9.923 -0.0611  0.3244  0.1265
  185SAPI   H8X21255   5.628   6.021   9.925 -0.4035  0.5673  2.9073
  185SAPI   H8Y21256   5.464   5.964   9.921 -0.3417 -0.4916 -1.0917
  185SAPI   C3921257   5.568   5.858   9.786  0.2103  0.0490  0.4812
  185SAPI   H9X21258   5.534   5.755   9.810 -0.8987  0.0129 -1.1162
  185SAPI   H9Y21259   5.675   5.859   9.755 -0.1359 -1.7895 -0.9812
  185SAPI  C31021260   5.485   5.918   9.673 -0.2856  0.4240 -0.3494
  185SAPI  H10X21261   5.507   6.026   9.661  1.7026  0.0395 -0.4859
  185SAPI  H10Y21262   5.382   5.907   9.713  0.9214  1.1787  3.2936
  185SAPI  C31121263   5.506   5.851   9.535  0.5264  0.1111  0.3664
  185SAPI  H11X21264   5.447   5.758   9.542  1.8597 -0.7599  0.4087
  185SAPI  H11Y21265   5.615   5.829   9.529  1.0627  2.8171 -2.0896
  185SAPI  C31221266   5.462   5.928   9.412  0.2568  0.0322  0.1840
  185SAPI  H12X21267   5.504   6.031   9.419  1.7294 -0.5671  0.7400
  185SAPI  H12Y21268   5.352   5.942   9.417  0.3794  0.6891  1.6887
  185SAPI  C31321269   5.505   5.878   9.275  0.4374 -0.2685 -0.0170
  185SAPI  H13X21270   5.449   5.782   9.266 -0.5919  0.4327 -1.4502
  185SAPI  H13Y21271   5.614   5.859   9.287  0.7906  0.6272 -1.4670
  185SAPI  C31421272   5.477   5.983   9.171 -0.2716  0.1173 -0.6882
  185SAPI  H14X21273   5.532   6.075   9.197  1.0243 -0.5904 -0.8318
  185SAPI  H14Y21274   5.367   6.003   9.172  0.1857  3.3643  1.7634
  185SAPI  C31521275   5.525   5.924   9.041  0.3891 -0.3377  0.7353
  185SAPI  H15X21276   5.506   5.815   9.031 -2.5313  0.3117 -3.5740
  185SAPI  H15Y21277   5.633   5.938   9.020 -0.0285  1.6733 -0.2658
  185SAPI  C31621278   5.443   5.997   8.923 -0.3552  0.1587 -0.3475
  185SAPI  H16X21279   5.491   6.097   8.913 -1.9689  0.8919 -1.1217
  185SAPI  H16Y21280   5.340   6.010   8.960  0.1470  2.2629  0.4319
  185SAPI  C31721281   5.444   5.918   8.795 -0.0621  0.3216  0.0426
  185SAPI  H17X21282   5.369   5.838   8.812  1.6022 -1.3879 -0.3047
  185SAPI  H17Y21283   5.544   5.870   8.781 -0.3658 -0.2303 -0.2631
  185SAPI  C31821284   5.397   5.990   8.665  0.4478  0.6846 -0.4039
  185SAPI  H18X21285   5.362   5.918   8.588 -0.4309  0.4398  0.2066
  185SAPI  H18Y21286   5.468   6.059   8.616 -1.0621  0.4255 -3.1391
  185SAPI  H18Z21287   5.315   6.055   8.700  0.3636  0.5154 -0.2827
  186SAPI   C1221288   5.089   3.069  10.665 -0.4482 -0.2518  0.4137
  186SAPI    H221289   5.062   3.126  10.573 -1.1968 -1.1876  0.0322
  186SAPI    O221290   4.965   3.067  10.737  0.1256  0.4181 -0.0415
  186SAPI   HO221291   4.898   3.102  10.678 -2.2510 -0.0496  2.1952
  186SAPI   C1321292   5.126   2.933  10.614  0.0734 -0.0217 -0.2151
  186SAPI    H321293   5.219   2.942  10.554  0.9120 -0.1431  1.0264
  186SAPI    O321294   5.021   2.872  10.545 -0.3102  0.5957 -0.1095
  186SAPI   HO321295   5.039   2.873  10.451 -0.0737  3.0905 -0.0964
  186SAPI   C1421296   5.170   2.844  10.735  0.0835 -0.0946 -0.0167
  186SAPI    H421297   5.087   2.831  10.808 -0.2194  1.0250 -0.1408
  186SAPI    O421298   5.200   2.708  10.698 -0.3305  0.0389  0.7624
  186SAPI   HO421299   5.252   2.712  10.617 -0.5648  0.2269  0.6153
  186SAPI   C1521300   5.284   2.908  10.817 -0.1992  0.0348 -0.2441
  186SAPI    H521301   5.372   2.912  10.750  0.5843 -2.4733  0.5100
  186SAPI    O521302   5.322   2.821  10.925 -0.3690  0.0114  0.4045
  186SAPI   HO521303   5.366   2.743  10.891 -0.3951 -0.0166  0.4351
  186SAPI   C1621304   5.246   3.053  10.854  0.9009 -0.2278 -0.2978
  186SAPI    H621305   5.159   3.041  10.922 -0.2730  1.6654 -1.3808
  186SAPI    O621306   5.347   3.117  10.925  0.1443  0.0546 -0.1479
  186SAPI   HO621307   5.356   3.208  10.897  0.8168 -0.3595 -1.3919
  186SAPI   C1121308   5.206   3.135  10.734  0.1757 -0.6636  0.4619
  186SAPI    H121309   5.296   3.126  10.669  0.9183  0.4018  1.3075
  186SAPI     P21310   5.195   3.382  10.634 -0.3499  0.0929  0.2207
  186SAPI   O1321311   5.095   3.495  10.656  0.1795  0.3999 -0.0960
  186SAPI   O1421312   5.197   3.313  10.501 -0.3565  0.4762 -0.5880
  186SAPI   O1221313   5.181   3.276  10.758 -0.4738  0.9801 -0.2744
  186SAPI   O1121314   5.343   3.435  10.656 -0.3293 -0.0559 -0.3570
  186SAPI    C121315   5.369   3.534  10.757 -0.2326 -0.1704 -0.3787
  186SAPI    HA21316   5.284   3.546  10.827 -2.0762  0.5051 -2.6203
  186SAPI    HB21317   5.460   3.510  10.817 -0.7548 -0.7482  0.1998
  186SAPI    C221318   5.390   3.677  10.695  0.3629  0.0165 -0.4932
  186SAPI    HS21319   5.297   3.720  10.653  0.1645 -0.1541 -0.2363
  186SAPI   O2121320   5.484   3.669  10.589 -0.2781 -0.1807 -0.6619
  186SAPI   C2121321   5.436   3.643  10.467 -0.1541 -0.3069  1.1332
  186SAPI   O2221322   5.316   3.649  10.440  0.1257 -0.4296  0.1543
  186SAPI   C2221323   5.541   3.615  10.363 -0.0396  0.0156 -0.2159
  186SAPI   H2R21324   5.527   3.684  10.277 -0.5137  1.8371  1.2370
  186SAPI   H2S21325   5.642   3.644  10.400  1.0931  0.3337 -3.2921
  186SAPI    C321326   5.441   3.781  10.805  0.1467 -0.5457 -0.3164
  186SAPI    HX21327   5.534   3.736  10.847 -0.0266 -0.7546 -0.1579
  186SAPI    HY21328   5.366   3.800  10.884  0.2860 -2.1821  0.2424
  186SAPI   O3121329   5.470   3.907  10.738  0.3196 -0.7462  0.9168
  186SAPI   C3121330   5.365   3.985  10.712 -0.0460  0.3577 -0.0503
  186SAPI   O3221331   5.252   3.947  10.717 -0.5888 -0.0912  1.0340
  186SAPI   C3221332   5.411   4.125  10.693 -0.2218 -0.2083 -0.3059
  186SAPI   H2X21333   5.479   4.157  10.775  0.6139  2.0225 -1.7799
  186SAPI   H2Y21334   5.323   4.192  10.686  0.5503  0.8764  0.2351
  186SAPI   C2321335   5.550   3.471  10.316 -0.0371 -0.8907  0.3130
  186SAPI   H3R21336   5.483   3.447  10.231 -1.0035  1.3017  0.3817
  186SAPI   H3S21337   5.519   3.402  10.397 -1.7856 -0.6623 -0.1277
  186SAPI   C2421338   5.693   3.429  10.268  0.0889 -0.1018  1.1965
  186SAPI   H4R21339   5.685   3.324  10.234  1.2737  0.5819 -1.4196
  186SAPI   H4S21340   5.762   3.434  10.355  0.3258  1.4681  0.9486
  186SAPI   C2521341   5.752   3.516  10.163 -0.3717 -0.0202 -0.7656
  186SAPI   H5R21342   5.839   3.572  10.200 -0.5113  0.0886 -0.5994
  186SAPI   C2621343   5.707   3.522  10.034 -0.0364  0.1630  0.2648
  186SAPI   H6R21344   5.749   3.604   9.973  1.2774 -0.3848  0.4048
  186SAPI   C2721345   5.605   3.442   9.964  0.5067  0.0821 -0.0066
  186SAPI   H7R21346   5.571   3.350  10.017 -0.8290 -0.2112 -1.2944
  186SAPI   H7S21347   5.658   3.394   9.879  1.6311 -0.6418  1.0671
  186SAPI   C2821348   5.488   3.526   9.919  0.1348  0.7002 -0.8749
  186SAPI   H8R21349   5.427   3.555  10.006  1.8139  0.6846  0.3451
  186SAPI   C2921350   5.459   3.561   9.790  0.1105 -0.0049  0.8231
  186SAPI   H9R21351   5.371   3.621   9.762 -1.9414 -1.8905  2.7787
  186SAPI  C21021352   5.539   3.531   9.663  0.3237 -0.0593  0.2529
  186SAPI  H10R21353   5.646   3.519   9.691  0.3573  1.0040  0.5890
  186SAPI  H10S21354   5.539   3.623   9.601  3.4784 -1.0826 -1.5215
  186SAPI  C21121355   5.508   3.407   9.587  0.1403  0.3064 -0.2372
  186SAPI  H11R21356   5.507   3.320   9.653  0.3533  0.3951 -0.1152
  186SAPI  C21221357   5.490   3.370   9.460  0.3508  0.4480  0.2406
  186SAPI  H12R21358   5.446   3.271   9.439  0.6233  0.6622 -1.4327
  186SAPI  C21321359   5.491   3.459   9.339 -0.2794  0.1482 -0.5593
  186SAPI  H13R21360   5.512   3.560   9.379 -0.7795  0.1186 -0.1987
  186SAPI  H13S21361   5.389   3.457   9.294  0.2034 -2.1872 -1.7268
  186SAPI  C21421362   5.590   3.404   9.234 -0.3252  0.2438  0.1416
  186SAPI  H14R21363   5.667   3.333   9.267  0.0743  0.4690 -0.2907
  186SAPI  C21521364   5.574   3.424   9.100  0.6238  0.2624 -0.4452
  186SAPI  H15R21365   5.632   3.366   9.027 -1.1763  0.1090 -1.8443
  186SAPI  C21621366   5.467   3.509   9.041  0.5582 -0.5164  0.8056
  186SAPI  H16R21367   5.514   3.565   8.958  2.0129 -0.8711  1.3558
  186SAPI  H16S21368   5.434   3.594   9.105 -0.2874 -2.4099  3.0422
  186SAPI  C21721369   5.341   3.425   9.008 -0.9086  0.3027  0.4683
  186SAPI  H17R21370   5.256   3.490   8.982 -0.3092 -0.1013 -2.9645
  186SAPI  H17S21371   5.310   3.362   9.094 -0.6066  1.2356  1.2823
  186SAPI  C21821372   5.365   3.323   8.897 -0.2941  0.2757  0.2245
  186SAPI  H18R21373   5.293   3.239   8.909  1.1773 -0.9641  0.7443
  186SAPI  H18S21374   5.466   3.275   8.906 -0.2568  0.7268  3.3005
  186SAPI  C21921375   5.354   3.378   8.759 -0.2557 -0.3410 -0.6560
  186SAPI  H19R21376   5.415   3.467   8.732 -1.7223 -0.1581 -3.7584
  186SAPI  H19S21377   5.252   3.421   8.769 -0.1022 -0.1213  0.0508
  186SAPI  C22021378   5.365   3.282   8.645 -0.3484 -0.1599 -0.2212
  186SAPI  H20R21379   5.470   3.245   8.650 -0.0647  0.6163 -0.3884
  186SAPI  H20S21380   5.356   3.326   8.544  0.9941 -0.2192 -0.3889
  186SAPI  H20T21381   5.297   3.194   8.650  0.6447 -1.0479 -1.4675
  186SAPI   C3321382   5.493   4.123  10.564 -0.5211  0.5030  0.4424
  186SAPI   H3X21383   5.580   4.057  10.586 -1.2767 -0.8885 -0.5616
  186SAPI   H3Y21384   5.535   4.224  10.544 -2.1237  1.1295  0.0611
  186SAPI   C3421385   5.411   4.075  10.444 -1.0090  0.2076 -0.7033
  186SAPI   H4X21386   5.327   4.148  10.438  0.1429  1.5771 -0.7037
  186SAPI   H4Y21387   5.361   3.977  10.460 -2.9138  1.3622  0.8670
  186SAPI   C3521388   5.493   4.068  10.318 -0.1048 -0.2893  1.0592
  186SAPI   H5X21389   5.578   3.997  10.324 -0.8307 -2.1240 -4.5615
  186SAPI   H5Y21390   5.541   4.166  10.295 -1.3495 -0.0018 -0.4577
  186SAPI   C3621391   5.408   4.016  10.202  0.2364  1.0065 -0.4556
  186SAPI   H6X21392   5.315   4.076  10.190 -0.2221  0.8272  1.8147
  186SAPI   H6Y21393   5.369   3.919  10.240 -2.6597  1.6813 -1.4115
  186SAPI   C3721394   5.480   4.003  10.060 -0.2227 -0.7848  0.2561
  186SAPI   H7X21395   5.578   3.954  10.080  0.8763  2.4247  4.0783
  186SAPI   H7Y21396   5.504   4.107  10.032 -1.1648 -0.1667  1.6327
  186SAPI   C3821397   5.400   3.948   9.941 -0.1190  0.3103 -0.5214
  186SAPI   H8X21398   5.307   4.009   9.929  0.8031  1.8198 -0.3112
  186SAPI   H8Y21399   5.366   3.843   9.951 -1.8841  0.8849 -0.0908
  186SAPI   C3921400   5.485   3.977   9.810 -0.2223  0.3254 -0.1170
  186SAPI   H9X21401   5.572   3.912   9.834  0.3060  1.3161  0.7459
  186SAPI   H9Y21402   5.499   4.088   9.812 -1.9474  0.5607 -0.2618
  186SAPI  C31021403   5.405   3.941   9.682  0.9283  0.6152  0.7176
  186SAPI  H10X21404   5.317   4.008   9.666  0.7085 -0.4222 -3.5734
  186SAPI  H10Y21405   5.362   3.839   9.692  0.4230  0.9213  1.8096
  186SAPI  C31121406   5.489   3.965   9.556  0.7565 -0.0885  0.3386
  186SAPI  H11X21407   5.595   3.939   9.580  0.4698 -0.4174  1.2988
  186SAPI  H11Y21408   5.486   4.075   9.542 -0.8700 -0.2020 -0.4429
  186SAPI  C31221409   5.452   3.901   9.421  0.8251 -0.5084 -0.2348
  186SAPI  H12X21410   5.436   3.792   9.432 -0.6953 -0.3481 -0.6448
  186SAPI  H12Y21411   5.536   3.911   9.348  1.0267 -0.9889 -0.0687
  186SAPI  C31321412   5.323   3.957   9.365  0.2702  0.6065  0.0770
  186SAPI  H13X21413   5.326   4.068   9.355 -0.6975  0.5094 -1.5824
  186SAPI  H13Y21414   5.246   3.925   9.438  0.3974  2.1435  0.9142
  186SAPI  C31421415   5.288   3.899   9.228  0.2723 -0.4666  0.0932
  186SAPI  H14X21416   5.188   3.940   9.202  0.7476  1.4916  1.1166
  186SAPI  H14Y21417   5.279   3.789   9.224 -0.4999 -0.3826 -0.6213
  186SAPI  C31521418   5.390   3.954   9.128 -0.2220 -0.4715 -0.4430
  186SAPI  H15X21419   5.489   3.906   9.124  0.6715  1.3365 -3.5001
  186SAPI  H15Y21420   5.409   4.061   9.152  1.5656 -0.7486 -0.4869
  186SAPI  C31621421   5.328   3.957   8.991 -0.1433 -0.3300  0.2331
  186SAPI  H16X21422   5.399   4.013   8.927 -2.0703  0.6800 -1.1146
  186SAPI  H16Y21423   5.226   3.999   8.979  0.2909  0.2904 -1.5126
  186SAPI  C31721424   5.337   3.814   8.926  0.2654 -0.8777 -1.4196
  186SAPI  H17X21425   5.286   3.746   8.997  1.7425  0.3978  0.9901
  186SAPI  H17Y21426   5.441   3.775   8.925  0.8485  0.3359  1.2513
  186SAPI  C31821427   5.280   3.812   8.784 -0.0268 -0.3025 -0.1897
  186SAPI  H18X21428   5.370   3.822   8.720 -1.0560  1.2609 -1.4984
  186SAPI  H18Y21429   5.215   3.900   8.764  0.7756  0.0209 -1.5182
  186SAPI  H18Z21430   5.220   3.722   8.758 -2.6061  1.0986  0.5846
  187SAPI   C1221431   3.091   3.054   5.954 -0.7156  0.0493  0.0600
  187SAPI    H221432   3.137   2.952   5.953 -0.1837  0.2544 -2.4135
  187SAPI    O221433   3.182   3.140   5.882  0.5013  0.0075  0.2816
  187SAPI   HO221434   3.206   3.213   5.940 -0.0064  0.3387  0.0757
  187SAPI   C1321435   2.954   3.031   5.893  0.1956  0.9938  0.6311
  187SAPI    H321436   2.904   2.953   5.954 -2.6949  1.0935 -1.4032
  187SAPI    O321437   2.972   2.973   5.763  0.5134  0.3869  0.3872
  187SAPI   HO321438   2.968   2.877   5.761  2.4410  0.1391  2.8230
  187SAPI   C1421439   2.875   3.160   5.895 -0.4610 -0.5760 -0.3695
  187SAPI    H421440   2.938   3.229   5.834  1.7391 -1.3896  0.8909
  187SAPI    O421441   2.741   3.162   5.838 -0.9547 -0.7073 -0.0178
  187SAPI   HO421442   2.691   3.095   5.886  0.2584 -0.6295  1.4276
  187SAPI   C1521443   2.874   3.233   6.032  0.3212 -0.2140  0.7918
  187SAPI    H521444   2.807   3.174   6.098  1.0305 -1.1685  0.6852
  187SAPI    O521445   2.804   3.363   6.008 -0.2077 -0.1525  0.3133
  187SAPI   HO521446   2.732   3.358   5.945  0.2636  3.0259 -0.6673
  187SAPI   C1621447   3.010   3.232   6.093  0.1615 -0.1640  0.2334
  187SAPI    H621448   3.073   3.306   6.038  3.2002 -1.8803  1.1282
  187SAPI    O621449   3.004   3.277   6.229 -0.4642 -0.0567  0.0937
  187SAPI   HO621450   3.016   3.207   6.294  3.1689 -0.2210 -0.5507
  187SAPI   C1121451   3.084   3.095   6.099 -0.1683 -0.1558 -0.3486
  187SAPI    H121452   3.027   3.013   6.147  1.4020 -0.9065  0.3235
  187SAPI     P21453   3.295   2.999   6.234  0.3127 -0.2487  0.2790
  187SAPI   O1321454   3.442   3.023   6.237  0.2423 -0.4712 -0.8667
  187SAPI   O1421455   3.258   2.867   6.176 -0.1038 -0.0095 -0.5195
  187SAPI   O1221456   3.218   3.122   6.149 -0.2719  0.3599 -0.3610
  187SAPI   O1121457   3.235   3.018   6.378  0.5496 -0.0117  0.1545
  187SAPI    C121458   3.128   2.948   6.428  1.3339  0.3348  0.3876
  187SAPI    HA21459   3.031   2.987   6.390  1.2023 -1.5113 -1.3167
  187SAPI    HB21460   3.136   2.842   6.396 -4.0409 -0.8162  1.8298
  187SAPI    C221461   3.127   2.947   6.580  0.0033 -0.0929  0.3070
  187SAPI    HS21462   3.121   3.054   6.612 -0.9383 -0.8014  2.7300
  187SAPI   O2121463   3.242   2.881   6.635 -0.2786  0.8581 -0.0951
  187SAPI   C2121464   3.344   2.959   6.683  0.9342 -0.5202 -0.0002
  187SAPI   O2221465   3.345   3.080   6.699 -0.1027  0.5264  0.2303
  187SAPI   C2221466   3.466   2.879   6.714 -0.1730 -0.0312 -0.0250
  187SAPI   H2R21467   3.482   2.804   6.634 -0.0715  0.1127 -0.1383
  187SAPI   H2S21468   3.550   2.948   6.736  0.6402 -1.0045  0.0187
  187SAPI    C321469   2.999   2.882   6.630  1.1454  0.3366 -0.5895
  187SAPI    HX21470   2.972   2.790   6.573 -1.1404  1.4388 -1.4252
  187SAPI    HY21471   2.923   2.956   6.598  0.7129  0.5304  0.8215
  187SAPI   O3121472   3.006   2.882   6.778  0.1731 -0.1221  0.6376
  187SAPI   C3121473   3.021   2.758   6.814  0.4919 -1.2994 -0.4028
  187SAPI   O3221474   3.031   2.660   6.749  0.1824  0.7457 -0.0052
  187SAPI   C3221475   3.015   2.759   6.969  0.6047  0.0455 -0.0003
  187SAPI   H2X21476   3.093   2.830   7.001  0.2721 -0.1687  1.3556
  187SAPI   H2Y21477   3.038   2.654   6.999 -1.2342 -0.3224  0.2548
  187SAPI   C2321478   3.446   2.787   6.833  0.1279  0.5591 -0.3763
  187SAPI   H3R21479   3.497   2.691   6.813 -3.1381 -0.9987 -2.0578
  187SAPI   H3S21480   3.338   2.760   6.840  0.1419  0.5314 -0.2764
  187SAPI   C2421481   3.489   2.849   6.967 -0.9548  0.4441  0.0893
  187SAPI   H4R21482   3.594   2.882   6.957 -0.9936  0.0961 -1.8928
  187SAPI   H4S21483   3.512   2.770   7.042  0.7803  1.1426  0.3454
  187SAPI   C2521484   3.393   2.955   7.016 -0.6299  0.0459  0.2009
  187SAPI   H5R21485   3.374   3.040   6.949 -3.4502 -0.5107  0.1845
  187SAPI   C2621486   3.330   2.951   7.133  0.0182  0.1517  0.1940
  187SAPI   H6R21487   3.258   3.032   7.152  0.9130  1.2006 -0.7086
  187SAPI   C2721488   3.324   2.847   7.242 -0.5071  0.4928  0.5113
  187SAPI   H7R21489   3.370   2.748   7.220 -1.4673 -0.4084  2.2986
  187SAPI   H7S21490   3.220   2.809   7.255 -0.3315  0.4399  1.9652
  187SAPI   C2821491   3.374   2.910   7.369 -0.2944 -0.4134 -0.4295
  187SAPI   H8R21492   3.461   2.977   7.362  0.4456 -1.0060  2.0914
  187SAPI   C2921493   3.347   2.869   7.493  0.0302  0.3680 -0.1180
  187SAPI   H9R21494   3.380   2.933   7.576 -0.4298  2.7807 -1.7013
  187SAPI  C21021495   3.246   2.768   7.548  0.2380  0.1485  0.5895
  187SAPI  H10R21496   3.175   2.724   7.474 -0.3304 -0.9010  1.7146
  187SAPI  H10S21497   3.175   2.812   7.621 -0.6080  0.1832 -0.2307
  187SAPI  C21121498   3.342   2.659   7.605  0.5416 -0.1300  0.0013
  187SAPI  H11R21499   3.379   2.582   7.535 -2.3077 -1.7275  0.0853
  187SAPI  C21221500   3.345   2.627   7.742  0.2173 -0.6162 -0.2031
  187SAPI  H12R21501   3.419   2.553   7.775 -1.2513 -2.2650 -0.4534
  187SAPI  C21321502   3.269   2.709   7.852  0.7208  0.4224  0.7472
  187SAPI  H13R21503   3.176   2.658   7.886  0.3963  1.3511  1.2730
  187SAPI  H13S21504   3.243   2.812   7.821 -1.1827  0.0029  0.8125
  187SAPI  C21421505   3.358   2.733   7.969  0.5858 -0.1492 -0.1037
  187SAPI  H14R21506   3.464   2.745   7.942  0.6180 -0.3709 -0.0806
  187SAPI  C21521507   3.324   2.736   8.101 -0.5099  0.2965 -0.3125
  187SAPI  H15R21508   3.398   2.764   8.177 -0.0442 -2.6818  0.4805
  187SAPI  C21621509   3.186   2.699   8.154 -0.2542 -0.0440 -0.4565
  187SAPI  H16R21510   3.120   2.655   8.076 -0.8715 -3.0068  1.5832
  187SAPI  H16S21511   3.135   2.791   8.191  0.5056 -0.6291  2.2472
  187SAPI  C21721512   3.197   2.592   8.267  0.3736  0.0757 -0.3075
  187SAPI  H17R21513   3.256   2.638   8.349 -0.9418 -0.7508  1.1524
  187SAPI  H17S21514   3.247   2.500   8.228  0.6198 -0.1199  0.4506
  187SAPI  C21821515   3.064   2.552   8.331  0.8333  0.4125 -0.2407
  187SAPI  H18R21516   3.003   2.523   8.242  0.4637  0.2006  0.0811
  187SAPI  H18S21517   3.033   2.646   8.381  0.7847 -0.2339  0.9782
  187SAPI  C21921518   3.059   2.429   8.427 -0.5232  0.2667  0.0366
  187SAPI  H19R21519   2.954   2.395   8.441  0.5723 -2.9929  1.4874
  187SAPI  H19S21520   3.094   2.455   8.529 -0.1101 -0.2474  0.0321
  187SAPI  C22021521   3.128   2.305   8.371  0.4069  0.1298 -0.3704
  187SAPI  H20R21522   3.237   2.326   8.377 -0.1285  3.7234 -0.6922
  187SAPI  H20S21523   3.100   2.289   8.265  0.6739 -0.4698 -0.3519
  187SAPI  H20T21524   3.098   2.220   8.436  2.8449 -1.7635 -1.5770
  187SAPI   C3321525   2.887   2.814   7.029  0.0903  0.6161 -0.3810
  187SAPI   H3X21526   2.862   2.918   7.001 -0.4128  0.7320  0.4724
  187SAPI   H3Y21527   2.887   2.805   7.140 -3.0416  0.0348 -0.3326
  187SAPI   C3421528   2.769   2.719   6.999  0.0979  0.1205 -0.8528
  187SAPI   H4X21529   2.788   2.610   6.992 -0.5344  0.0369 -1.3946
  187SAPI   H4Y21530   2.736   2.742   6.895  0.9011  1.9513 -0.7440
  187SAPI   C3521531   2.655   2.732   7.108  0.1071 -0.2620  0.1695
  187SAPI   H5X21532   2.559   2.690   7.070 -0.2923  0.2778  0.5631
  187SAPI   H5Y21533   2.636   2.840   7.126 -1.1707 -0.5321  0.5286
  187SAPI   C3621534   2.684   2.663   7.249 -0.4712 -0.6680  0.4081
  187SAPI   H6X21535   2.773   2.708   7.298  0.0253 -1.0327 -0.1543
  187SAPI   H6Y21536   2.710   2.556   7.234 -1.2452 -0.5317 -2.5583
  187SAPI   C3721537   2.573   2.676   7.356 -0.3981  0.1617  0.3897
  187SAPI   H7X21538   2.475   2.634   7.324  1.2776 -3.2985 -0.6815
  187SAPI   H7Y21539   2.552   2.782   7.379  0.9467  0.6189 -0.3709
  187SAPI   C3821540   2.623   2.609   7.483 -0.4537  0.0728 -0.3874
  187SAPI   H8X21541   2.714   2.662   7.521 -1.3677  2.3586 -1.1850
  187SAPI   H8Y21542   2.638   2.500   7.475 -4.7975 -0.8421  1.4432
  187SAPI   C3921543   2.515   2.602   7.597  0.3712 -0.7038  0.3786
  187SAPI   H9X21544   2.422   2.561   7.551  0.9111 -1.5716  0.0475
  187SAPI   H9Y21545   2.493   2.704   7.635 -0.7356 -0.6702 -0.2976
  187SAPI  C31021546   2.566   2.523   7.724  0.6780  0.2512  0.5816
  187SAPI  H10X21547   2.658   2.567   7.768 -0.5369  0.6419  2.8484
  187SAPI  H10Y21548   2.591   2.416   7.706 -0.2881  0.3955 -2.0596
  187SAPI  C31121549   2.461   2.545   7.837 -0.6357 -0.0447  0.4679
  187SAPI  H11X21550   2.379   2.474   7.815 -0.3411 -1.1875  2.7114
  187SAPI  H11Y21551   2.416   2.645   7.856 -1.5118 -0.3697  0.1328
  187SAPI  C31221552   2.532   2.506   7.967  0.5013 -0.2959 -0.9245
  187SAPI  H12X21553   2.620   2.572   7.978  1.9387 -2.3678  0.7525
  187SAPI  H12Y21554   2.579   2.407   7.948  2.6110  0.3455  0.5830
  187SAPI  C31321555   2.445   2.503   8.087 -0.3588 -0.3217  0.5545
  187SAPI  H13X21556   2.345   2.463   8.057 -1.5112 -0.1092  3.6833
  187SAPI  H13Y21557   2.425   2.602   8.133  0.5393 -0.7006  1.8208
  187SAPI  C31421558   2.500   2.412   8.195 -0.1450 -0.3590 -0.0039
  187SAPI  H14X21559   2.598   2.441   8.239 -0.3829 -0.3063  0.5086
  187SAPI  H14Y21560   2.515   2.317   8.139  1.1099  0.6725 -1.4569
  187SAPI  C31521561   2.391   2.388   8.300 -0.4512 -0.1764 -0.1243
  187SAPI  H15X21562   2.288   2.404   8.263  0.4271 -1.6027 -3.6599
  187SAPI  H15Y21563   2.409   2.451   8.389 -1.1081 -0.1716  0.0068
  187SAPI  C31621564   2.407   2.242   8.361  0.5781  0.4264  0.0323
  187SAPI  H16X21565   2.352   2.246   8.457 -0.7770  0.9592 -0.7411
  187SAPI  H16Y21566   2.514   2.221   8.381  0.9527 -1.1194 -3.0208
  187SAPI  C31721567   2.333   2.131   8.275 -0.7202  0.6514 -0.2464
  187SAPI  H17X21568   2.386   2.120   8.178 -1.0394  2.8852 -0.7126
  187SAPI  H17Y21569   2.238   2.166   8.230 -0.7913  0.5741 -0.1557
  187SAPI  C31821570   2.312   1.997   8.335 -0.4125  0.9253 -0.2821
  187SAPI  H18X21571   2.402   1.942   8.371 -1.4054 -1.7241 -1.5276
  187SAPI  H18Y21572   2.264   1.920   8.271  0.9776 -0.9394  0.7986
  187SAPI  H18Z21573   2.236   2.004   8.416 -0.3057 -0.6560 -0.0103
  188SAPI   C1221574   6.480   1.116   6.364 -0.1849  0.6154 -0.1932
  188SAPI    H221575   6.417   1.129   6.455 -0.2953  1.2373 -0.3517
  188SAPI    O221576   6.397   1.157   6.256  0.4991  0.3484 -0.1407
  188SAPI   HO221577   6.308   1.155   6.292  1.1926  0.1871  1.6654
  188SAPI   C1321578   6.599   1.208   6.386 -0.6596  0.1561 -0.2591
  188SAPI    H321579   6.626   1.188   6.492  1.0704  0.3756 -0.6278
  188SAPI    O321580   6.556   1.348   6.401 -0.2402  0.4633  0.4398
  188SAPI   HO321581   6.487   1.365   6.336  1.0715  1.7563 -0.6897
  188SAPI   C1421582   6.708   1.196   6.284  0.4372  0.6358 -0.1307
  188SAPI    H421583   6.673   1.240   6.188  1.6797 -0.7260 -1.2814
  188SAPI    O421584   6.816   1.276   6.321  0.1160 -0.1878 -0.1078
  188SAPI   HO421585   6.824   1.344   6.254  0.7115 -0.3459 -0.1989
  188SAPI   C1521586   6.744   1.048   6.267 -0.7196  0.0045 -0.0050
  188SAPI    H521587   6.789   1.007   6.359 -0.5124  3.5411  1.6420
  188SAPI    O521588   6.835   1.037   6.157  0.7748 -0.0579  0.6035
  188SAPI   HO521589   6.883   0.955   6.172  0.1058 -0.0590  3.3867
  188SAPI   C1621590   6.623   0.961   6.228 -0.4860  0.2055 -0.8977
  188SAPI    H621591   6.578   0.997   6.133 -0.2023  0.8372 -0.7967
  188SAPI    O621592   6.660   0.823   6.212  0.2633  0.1014 -0.3292
  188SAPI   HO621593   6.667   0.779   6.298  0.3993 -0.7730 -0.7757
  188SAPI   C1121594   6.525   0.975   6.345  0.3645  0.2387 -1.0721
  188SAPI    H121595   6.582   0.953   6.437 -1.0382  1.6503  0.1802
  188SAPI     P21596   6.374   0.776   6.428  0.0242 -0.4212 -0.0103
  188SAPI   O1321597   6.503   0.705   6.452 -0.1547  0.7480 -0.0409
  188SAPI   O1421598   6.259   0.694   6.377 -0.0764 -0.2781  0.0613
  188SAPI   O1221599   6.405   0.894   6.321  0.0335  0.7389 -0.2986
  188SAPI   O1121600   6.329   0.845   6.558 -0.0432 -0.0655  0.3198
  188SAPI    C121601   6.219   0.943   6.555  0.2915  0.7743  0.3711
  188SAPI    HA21602   6.267   1.036   6.593  0.0142  0.4318  1.6295
  188SAPI    HB21603   6.177   0.951   6.453 -1.4770  2.1147  1.1634
  188SAPI    C221604   6.109   0.893   6.651 -0.1941  0.0179  0.3358
  188SAPI    HS21605   6.028   0.968   6.660 -1.4136 -1.2679  0.4499
  188SAPI   O2121606   6.162   0.878   6.783  1.0246 -0.2267  0.2636
  188SAPI   C2121607   6.194   0.979   6.863 -0.1520  0.4322 -1.1510
  188SAPI   O2221608   6.174   1.094   6.832  0.0498 -0.2534 -1.3271
  188SAPI   C2221609   6.227   0.929   7.006  0.0707 -0.0043  0.0373
  188SAPI   H2R21610   6.286   0.838   6.983  1.4808  1.5718 -3.3003
  188SAPI   H2S21611   6.306   0.994   7.049  2.1021 -2.9889  1.1317
  188SAPI    C321612   6.049   0.760   6.602  0.6993 -0.6550  1.2285
  188SAPI    HX21613   6.122   0.679   6.622 -0.6758 -1.7697  1.9827
  188SAPI    HY21614   6.036   0.759   6.492 -3.5630  0.0617  1.5462
  188SAPI   O3121615   5.922   0.742   6.669  0.1763  0.0010  0.4159
  188SAPI   C3121616   5.817   0.796   6.609 -0.8725 -0.3771  0.5357
  188SAPI   O3221617   5.822   0.846   6.498 -0.3734  0.0480  0.4602
  188SAPI   C3221618   5.696   0.811   6.704  0.2667  0.3128 -0.1275
  188SAPI   H2X21619   5.640   0.715   6.702 -2.8393  1.9381  1.2085
  188SAPI   H2Y21620   5.640   0.892   6.652 -0.1732 -0.2152 -0.4911
  188SAPI   C2321621   6.111   0.907   7.102 -0.6517 -0.5223  0.3660
  188SAPI   H3R21622   6.086   0.799   7.116  0.5909 -0.8796 -0.0160
  188SAPI   H3S21623   6.021   0.967   7.076  1.3266  3.3613  1.7929
  188SAPI   C2421624   6.143   0.959   7.240  0.0374  0.0041 -0.2882
  188SAPI   H4R21625   6.194   1.057   7.232 -1.1526  0.6174 -0.4913
  188SAPI   H4S21626   6.226   0.897   7.280  0.2614 -1.2734 -2.5343
  188SAPI   C2521627   6.026   0.949   7.331  0.0767  0.0784 -0.2304
  188SAPI   H5R21628   5.939   0.905   7.279 -1.3060  0.9701  1.2428
  188SAPI   C2621629   6.023   0.989   7.460 -0.0058 -0.3039  0.4856
  188SAPI   H6R21630   5.932   0.985   7.522  1.0062  2.8849  2.4306
  188SAPI   C2721631   6.133   1.062   7.533  0.5757  0.1493  0.2336
  188SAPI   H7R21632   6.219   1.066   7.463 -0.8290 -0.0670 -1.5752
  188SAPI   H7S21633   6.158   1.016   7.632  1.3969  0.5002  0.1984
  188SAPI   C2821634   6.080   1.205   7.536 -0.2808 -0.5304  0.0315
  188SAPI   H8R21635   6.006   1.238   7.462  1.2648  0.9903 -0.9486
  188SAPI   C2921636   6.122   1.301   7.623  0.0691 -0.1357 -0.5892
  188SAPI   H9R21637   6.080   1.403   7.626  0.5467  0.0519  0.5586
  188SAPI  C21021638   6.233   1.293   7.729  0.2589 -0.2190 -0.3991
  188SAPI  H10R21639   6.292   1.387   7.715  0.2412 -0.2247 -0.5180
  188SAPI  H10S21640   6.308   1.212   7.720 -1.3648 -1.9616  1.0951
  188SAPI  C21121641   6.172   1.279   7.868 -0.2822  0.3759  0.0971
  188SAPI  H11R21642   6.079   1.223   7.880 -0.3176  0.7436  1.6697
  188SAPI  C21221643   6.238   1.318   7.980  0.8345  0.0853  0.4547
  188SAPI  H12R21644   6.181   1.305   8.073 -0.3277 -0.2771 -0.2851
  188SAPI  C21321645   6.379   1.369   7.993  0.7548 -0.1728  0.4893
  188SAPI  H13R21646   6.383   1.479   7.981  2.2123 -0.0498  1.7411
  188SAPI  H13S21647   6.446   1.327   7.915 -3.4311 -1.9482 -2.5056
  188SAPI  C21421648   6.438   1.353   8.131 -0.6532  0.1263  0.2120
  188SAPI  H14R21649   6.378   1.302   8.208 -2.4733 -1.1941 -1.9715
  188SAPI  C21521650   6.569   1.373   8.162 -0.3035 -0.0012 -0.6881
  188SAPI  H15R21651   6.603   1.340   8.262 -2.5686  0.0202  0.1354
  188SAPI  C21621652   6.677   1.433   8.074  0.5443 -0.0943  0.1297
  188SAPI  H16R21653   6.642   1.463   7.974 -0.6872 -0.5173  0.4182
  188SAPI  H16S21654   6.763   1.364   8.060 -0.4589 -1.5046  0.6201
  188SAPI  C21721655   6.730   1.559   8.144 -0.2018 -0.0326  0.0953
  188SAPI  H17R21656   6.776   1.524   8.239 -0.4203 -1.0551 -0.1665
  188SAPI  H17S21657   6.653   1.634   8.173  0.7071  1.0044 -0.0676
  188SAPI  C21821658   6.829   1.637   8.050  0.3982 -0.4454 -0.4687
  188SAPI  H18R21659   6.772   1.680   7.965 -0.8742  0.1022  0.6299
  188SAPI  H18S21660   6.898   1.560   8.008  0.5378 -0.3273 -0.4572
  188SAPI  C21921661   6.923   1.740   8.119  0.7253 -0.3145 -0.1684
  188SAPI  H19R21662   6.868   1.829   8.155 -1.8694 -1.9583  0.2354
  188SAPI  H19S21663   6.995   1.771   8.040 -1.7367  3.2410 -1.2588
  188SAPI  C22021664   7.005   1.679   8.238  0.4897 -0.2852  0.2130
  188SAPI  H20R21665   6.940   1.659   8.326 -0.5187  0.9684 -0.2102
  188SAPI  H20S21666   7.076   1.755   8.277  0.2436 -0.8999  1.9224
  188SAPI  H20T21667   7.058   1.587   8.206  0.0084 -0.2364 -0.7506
  188SAPI   C3321668   5.721   0.851   6.851 -0.0220 -0.0630  0.4688
  188SAPI   H3X21669   5.827   0.884   6.852  0.9513 -2.5886 -2.7653
  188SAPI   H3Y21670   5.714   0.764   6.919  2.8305  0.1715  1.1663
  188SAPI   C3421671   5.634   0.959   6.915 -0.0912  0.3792 -0.0786
  188SAPI   H4X21672   5.528   0.929   6.912 -0.1680  0.6152  0.1913
  188SAPI   H4Y21673   5.640   1.064   6.880  0.3146  0.4711  0.2606
  188SAPI   C3521674   5.670   0.975   7.064 -0.0729 -0.1887 -0.6775
  188SAPI   H5X21675   5.648   1.072   7.113 -1.7901 -1.1506  0.5599
  188SAPI   H5Y21676   5.779   0.971   7.085 -0.0889 -0.3901 -0.6373
  188SAPI   C3621677   5.597   0.876   7.153 -0.4483  0.1433  0.7143
  188SAPI   H6X21678   5.642   0.780   7.119  2.1438  2.2902 -2.4577
  188SAPI   H6Y21679   5.488   0.875   7.132  0.0921 -0.7415 -2.4404
  188SAPI   C3721680   5.607   0.905   7.300 -0.7576  0.0895  0.1072
  188SAPI   H7X21681   5.585   1.013   7.313  0.9303  0.4924 -0.1118
  188SAPI   H7Y21682   5.709   0.879   7.335 -1.2290 -1.7468  0.2384
  188SAPI   C3821683   5.521   0.830   7.393  0.1303  0.6482  0.4039
  188SAPI   H8X21684   5.545   0.723   7.379  0.5807  0.9716 -1.5181
  188SAPI   H8Y21685   5.412   0.831   7.372 -0.1233 -1.3044  1.4607
  188SAPI   C3921686   5.539   0.880   7.529  0.1371  0.1525  0.1859
  188SAPI   H9X21687   5.496   0.982   7.534  0.7678  0.3663  1.8363
  188SAPI   H9Y21688   5.646   0.890   7.558 -0.0278 -0.7791  1.1821
  188SAPI  C31021689   5.478   0.779   7.626 -0.0113 -0.2466  0.5546
  188SAPI  H10X21690   5.530   0.683   7.605  2.2764  1.0267  0.0534
  188SAPI  H10Y21691   5.373   0.752   7.602  0.5703 -2.6780  0.4716
  188SAPI  C31121692   5.498   0.823   7.769 -1.2370 -0.8897  0.3623
  188SAPI  H11X21693   5.445   0.919   7.789  1.3083  0.3582  1.6487
  188SAPI  H11Y21694   5.607   0.838   7.786 -0.9689 -1.7068 -0.5230
  188SAPI  C31221695   5.447   0.719   7.861  0.2084 -0.3109  0.1838
  188SAPI  H12X21696   5.516   0.632   7.852 -1.0836 -1.5460  1.5134
  188SAPI  H12Y21697   5.347   0.682   7.830 -0.1819 -0.1690  1.2172
  188SAPI  C31321698   5.445   0.766   8.009  0.2645  0.1818 -0.5028
  188SAPI  H13X21699   5.374   0.852   8.018 -0.8755 -0.6078 -1.6718
  188SAPI  H13Y21700   5.548   0.792   8.042 -0.2160  0.1101  1.1625
  188SAPI  C31421701   5.397   0.649   8.095  0.3090  0.0623  0.7641
  188SAPI  H14X21702   5.475   0.574   8.121 -1.4280 -1.4810  1.7534
  188SAPI  H14Y21703   5.327   0.587   8.036  0.3514  0.3966  0.3534
  188SAPI  C31521704   5.334   0.693   8.230  0.5332 -0.0079 -1.0670
  188SAPI  H15X21705   5.267   0.781   8.222 -1.1599 -1.0995  0.1858
  188SAPI  H15Y21706   5.412   0.728   8.301 -1.7514  3.2741  0.0792
  188SAPI  C31621707   5.257   0.581   8.302 -0.2084  0.0702  0.2285
  188SAPI  H16X21708   5.319   0.489   8.307  0.8397  0.7830  0.8515
  188SAPI  H16Y21709   5.165   0.572   8.241 -0.0087 -1.7845  0.1444
  188SAPI  C31721710   5.211   0.621   8.441 -0.3540 -0.8831  0.4727
  188SAPI  H17X21711   5.168   0.722   8.455  2.0771  0.2434  0.3987
  188SAPI  H17Y21712   5.300   0.628   8.508 -1.2693 -0.9580  1.7350
  188SAPI  C31821713   5.123   0.518   8.508 -0.4023 -0.0664  0.3747
  188SAPI  H18X21714   5.153   0.417   8.474 -1.7691 -0.1172 -0.7529
  188SAPI  H18Y21715   5.031   0.518   8.445 -0.0473 -0.8816 -0.1552
  188SAPI  H18Z21716   5.118   0.519   8.619 -1.3059  0.1707  0.3381
  189POPC     N21717   3.978   0.348  11.079  1.4677 -0.2310  0.1759
  189POPC   C1221718   3.841   0.388  11.020 -0.0684 -0.2091  0.2000
  189POPC  H12A21719   3.797   0.299  10.977 -1.6009  0.6318 -0.0130
  189POPC  H12B21720   3.851   0.460  10.940 -1.1235  0.4613  0.6591
  189POPC   C1321721   3.953   0.248  11.192 -0.2217 -0.8719  0.1834
  189POPC  H13A21722   4.051   0.211  11.217 -0.7995 -1.4597  1.6690
  189POPC  H13B21723   3.907   0.289  11.280 -0.9227 -3.0982  0.9130
  189POPC  H13C21724   3.888   0.165  11.169 -1.0249 -0.9996  2.6494
  189POPC   C1421725   4.060   0.280  10.972  0.2170  0.0329 -0.3622
  189POPC  H14A21726   4.013   0.191  10.935 -2.1420  0.9303  0.3349
  189POPC  H14B21727   4.064   0.356  10.895  0.1077  0.9747  0.5388
  189POPC  H14C21728   4.162   0.267  11.008  0.1405 -0.3403 -0.2800
  189POPC   C1521729   4.054   0.463  11.131 -0.5904 -0.7951 -0.3085
  189POPC  H15A21730   4.080   0.528  11.049 -0.2172 -1.2621 -0.5723
  189POPC  H15B21731   4.147   0.427  11.174 -0.3737  0.5621  0.4263
  189POPC  H15C21732   3.997   0.536  11.186 -0.1385 -1.2598  0.8019
  189POPC   C1121733   3.734   0.452  11.119  0.4924 -0.5621  0.3526
  189POPC  H11A21734   3.743   0.396  11.215 -0.0467  1.1176  1.4207
  189POPC  H11B21735   3.628   0.440  11.086  0.4249 -0.6830  0.6105
  189POPC     P21736   3.753   0.704  11.050  0.3985 -0.0406 -0.5305
  189POPC   O1321737   3.805   0.825  11.118 -0.2288 -0.6679 -0.4338
  189POPC   O1421738   3.615   0.713  11.000 -0.0638  0.2872  0.5571
  189POPC   O1221739   3.753   0.584  11.157 -0.4856 -0.1575  0.8119
  189POPC   O1121740   3.842   0.659  10.935 -0.0254 -0.7537  0.8752
  189POPC    C121741   3.918   0.762  10.866  0.5373 -0.0986  0.1086
  189POPC    HA21742   4.014   0.713  10.842  0.5704 -0.6641  1.3188
  189POPC    HB21743   3.956   0.836  10.941 -0.7258  0.3123  0.3741
  189POPC    C221744   3.832   0.818  10.758  0.3296  0.2162  0.2246
  189POPC    HS21745   3.764   0.887  10.813  0.2835 -0.2499  0.7594
  189POPC   O2121746   3.779   0.701  10.686  0.0834 -0.4633 -0.2202
  189POPC   C2121747   3.651   0.709  10.663 -0.6832 -0.2532  0.0416
  189POPC   O2221748   3.572   0.790  10.710  0.4794  0.0082 -0.1275
  189POPC   C2221749   3.606   0.586  10.583  0.0427 -0.2839 -1.0604
  189POPC   H2R21750   3.496   0.575  10.590  0.2480 -3.0961 -1.0753
  189POPC   H2S21751   3.643   0.501  10.643 -3.2786 -1.4210 -0.4038
  189POPC    C321752   3.906   0.903  10.645  0.0613 -0.4700 -0.4416
  189POPC    HX21753   3.978   0.835  10.596 -1.3467 -3.1834  0.9909
  189POPC    HY21754   3.951   0.990  10.698  0.8898 -2.0578  1.5692
  189POPC   O3121755   3.805   0.947  10.551 -0.1216  0.2178  0.6707
  189POPC   C3121756   3.745   1.064  10.566 -0.2789 -0.3335  0.1831
  189POPC   O3221757   3.793   1.160  10.626  0.3896 -0.0368  0.0834
  189POPC   C3221758   3.615   1.061  10.493 -0.3796 -0.3782  0.2420
  189POPC   H2X21759   3.535   1.041  10.567  0.0076 -0.7214  0.5751
  189POPC   H2Y21760   3.616   0.988  10.409  1.2618  0.3922 -0.4585
  189POPC   C2321761   3.663   0.597  10.441 -0.1949  0.7942 -0.3976
  189POPC   H3R21762   3.635   0.505  10.386  0.1921 -0.8910  2.0702
  189POPC   H3S21763   3.774   0.600  10.444 -0.1048 -1.2029  1.3675
  189POPC   C2421764   3.612   0.709  10.364 -0.6521 -0.2820  0.7302
  189POPC   H4R21765   3.660   0.806  10.391  0.6123 -0.9248  0.8636
  189POPC   H4S21766   3.502   0.723  10.372 -0.8713 -1.4788  0.0756
  189POPC   C2521767   3.633   0.697  10.208 -0.2953 -0.4582  0.3409
  189POPC   H5R21768   3.726   0.639  10.192 -1.1039 -1.2400 -2.0173
  189POPC   H5S21769   3.644   0.801  10.170  0.0710  0.0998  1.9280
  189POPC   C2621770   3.522   0.626  10.134 -0.3899  0.0171  0.3629
  189POPC   H6R21771   3.430   0.682  10.162  0.0856 -0.1087  2.3626
  189POPC   H6S21772   3.524   0.528  10.186 -0.2856 -0.5417 -0.6868
  189POPC   C2721773   3.547   0.611   9.985 -0.0477 -0.4465  0.7148
  189POPC   H7R21774   3.482   0.529   9.947 -0.0759 -1.0408  1.9827
  189POPC   H7S21775   3.650   0.578   9.962 -0.6243 -1.3722 -0.6431
  189POPC   C2821776   3.512   0.737   9.906  0.0309  0.2432  0.0911
  189POPC   H8R21777   3.551   0.815   9.974  0.5041  0.0528  0.0401
  189POPC   H8S21778   3.404   0.752   9.885 -0.2088 -2.3141 -0.8400
  189POPC   C2921779   3.597   0.743   9.781 -0.0520  0.5228 -0.1806
  189POPC   H9121780   3.683   0.812   9.784 -0.2104  0.7239 -0.2518
  189POPC  C21021781   3.570   0.686   9.665  0.7286  0.6787  0.2027
  189POPC  H10121782   3.637   0.684   9.578  1.6479 -3.3745  0.8400
  189POPC  C21121783   3.448   0.602   9.636 -0.6469 -0.3674 -0.2726
  189POPC  H11R21784   3.386   0.662   9.566  0.5177  1.0915 -0.1038
  189POPC  H11S21785   3.389   0.575   9.726 -0.4868  1.9364  0.5857
  189POPC  C21221786   3.470   0.470   9.557 -0.1377 -0.1489 -0.2898
  189POPC  H12R21787   3.369   0.429   9.540 -1.3863  1.8643  1.6782
  189POPC  H12S21788   3.528   0.407   9.628 -0.5300 -0.3822 -0.1756
  189POPC  C21321789   3.539   0.489   9.416  0.2327 -0.0872 -0.2140
  189POPC  H13R21790   3.632   0.550   9.426  0.9033 -1.1388  0.2456
  189POPC  H13S21791   3.467   0.547   9.357  0.3863  0.3918  0.0639
  189POPC  C21421792   3.572   0.364   9.338 -0.0041  0.1596  0.2182
  189POPC  H14R21793   3.477   0.307   9.336  0.3925 -0.4956  0.0077
  189POPC  H14S21794   3.653   0.309   9.390 -2.0554 -2.7586  0.5504
  189POPC  C21521795   3.606   0.392   9.188 -0.6868  0.0806 -0.1736
  189POPC  H15R21796   3.648   0.308   9.128 -0.1653  0.6863 -0.6721
  189POPC  H15S21797   3.681   0.474   9.187 -0.4343 -0.1280  0.8547
  189POPC  C21621798   3.470   0.421   9.106  0.1095  0.0855  0.2941
  189POPC  H16R21799   3.409   0.492   9.164 -1.3261 -1.9041  1.3341
  189POPC  H16S21800   3.411   0.327   9.109  0.9083 -0.4163  0.8545
  189POPC  C21721801   3.500   0.484   8.966 -0.0574  0.4469 -0.6545
  189POPC  H17R21802   3.552   0.581   8.982 -0.0239  0.4001 -0.4793
  189POPC  H17S21803   3.397   0.491   8.926 -0.5024 -1.2715  0.1136
  189POPC  C21821804   3.592   0.402   8.881 -0.0100  0.0300  0.1953
  189POPC  H18R21805   3.573   0.293   8.889  1.7895 -0.3467 -0.2780
  189POPC  H18S21806   3.696   0.420   8.917  0.1207 -0.3729  0.0294
  189POPC  H18T21807   3.576   0.438   8.777 -2.0852 -1.0218  0.0931
  189POPC   C3321808   3.586   1.207  10.446 -0.4160  0.0760 -0.4955
  189POPC   H3X21809   3.598   1.272  10.535 -0.2342  2.4591 -2.1765
  189POPC   H3Y21810   3.482   1.219  10.407 -0.2205 -0.6133 -1.2570
  189POPC   C3421811   3.680   1.245  10.335  0.5826  0.1482  0.5194
  189POPC   H4X21812   3.672   1.166  10.257  1.2439  0.2698  0.3186
  189POPC   H4Y21813   3.785   1.249  10.372  1.5221  1.7042 -2.0515
  189POPC   C3521814   3.648   1.377  10.266  0.0109 -0.3688  0.1896
  189POPC   H5X21815   3.721   1.457  10.294 -1.5865  0.7759  1.2388
  189POPC   H5Y21816   3.552   1.419  10.303 -0.1730 -1.0861  0.5489
  189POPC   C3621817   3.632   1.361  10.113 -0.0105  0.1905  0.5198
  189POPC   H6X21818   3.572   1.443  10.067 -1.7468 -1.6297 -0.6189
  189POPC   H6Y21819   3.584   1.262  10.098  0.3179 -0.0579  1.0685
  189POPC   C3721820   3.764   1.342  10.037 -0.0579 -0.5883  0.3034
  189POPC   H7X21821   3.756   1.278   9.947  1.3196 -0.2547 -0.0897
  189POPC   H7Y21822   3.846   1.298  10.098 -0.3735 -1.6850 -0.0484
  189POPC   C3821823   3.814   1.484   9.988 -0.1451 -0.1247 -0.8305
  189POPC   H8X21824   3.924   1.492   9.975 -0.3637  1.0837 -2.1361
  189POPC   H8Y21825   3.783   1.560  10.063  0.2545 -0.9797  0.2287
  189POPC   C3921826   3.747   1.505   9.854 -0.4293  0.5626 -0.0393
  189POPC   H9X21827   3.636   1.497   9.855 -0.3961 -0.8750 -1.7157
  189POPC   H9Y21828   3.784   1.430   9.780 -1.2284  0.9940 -0.8995
  189POPC  C31021829   3.777   1.649   9.803 -0.0256 -0.7717 -1.0628
  189POPC  H10X21830   3.887   1.645   9.789  0.0507  1.1299 -1.3084
  189POPC  H10Y21831   3.765   1.721   9.887  1.0081 -1.5671 -0.2052
  189POPC  C31121832   3.697   1.678   9.673 -0.8522 -0.3094 -0.6581
  189POPC  H11X21833   3.688   1.788   9.668  1.7824  0.0293  0.3846
  189POPC  H11Y21834   3.594   1.636   9.676 -0.1914 -1.9833  0.1446
  189POPC  C31221835   3.766   1.636   9.544 -0.2179 -0.0292 -0.4276
  189POPC  H12X21836   3.796   1.529   9.546 -2.2199 -0.6215  0.9223
  189POPC  H12Y21837   3.865   1.686   9.546  0.4888 -1.3711 -0.7742
  189POPC  C31321838   3.686   1.658   9.409 -0.0430 -0.5687 -0.0974
  189POPC  H13X21839   3.697   1.763   9.374 -1.1130 -0.5520 -0.4378
  189POPC  H13Y21840   3.576   1.647   9.424 -0.3774  3.2216  1.1453
  189POPC  C31421841   3.737   1.566   9.297  0.5120 -0.0598 -0.1569
  189POPC  H14X21842   3.757   1.467   9.342  0.9076 -1.1519 -2.5988
  189POPC  H14Y21843   3.833   1.611   9.263 -0.7461  1.7803 -1.4952
  189POPC  C31521844   3.639   1.544   9.180 -0.0411 -0.3155 -0.3238
  189POPC  H15X21845   3.557   1.474   9.205  1.5523 -1.6632  1.4936
  189POPC  H15Y21846   3.699   1.501   9.096  0.4832 -0.5895  0.1828
  189POPC  C31621847   3.572   1.673   9.112  0.6047  0.2423 -0.0957
  189POPC  H16X21848   3.479   1.710   9.159 -0.1507 -1.2258 -0.3596
  189POPC  H16Y21849   3.526   1.640   9.016 -1.2518 -1.8723  1.3912
  189POPC  H16Z21850   3.638   1.761   9.100 -1.4193  2.0037  1.1419
  190POPC     N21851   5.641   5.352  11.358 -0.0756  0.1494 -0.0871
  190POPC   C1221852   5.638   5.362  11.210  0.5398  0.0524  0.4933
  190POPC  H12A21853   5.609   5.462  11.180 -3.1380 -0.4664  1.8156
  190POPC  H12B21854   5.547   5.317  11.172  1.1763 -0.5935 -0.2929
  190POPC   C1321855   5.734   5.453  11.419  0.0529  0.0976 -0.3259
  190POPC  H13A21856   5.829   5.440  11.369  0.4782 -1.7731  0.8675
  190POPC  H13B21857   5.699   5.555  11.411 -3.7227 -1.1077 -1.6103
  190POPC  H13C21858   5.750   5.436  11.524 -0.5493 -0.2691 -0.2893
  190POPC   C1421859   5.503   5.373  11.406 -0.2099 -0.3825  0.5774
  190POPC  H14A21860   5.469   5.471  11.376 -0.8932 -1.0421 -0.9096
  190POPC  H14B21861   5.437   5.293  11.377  2.8853 -3.2122  0.6697
  190POPC  H14C21862   5.499   5.376  11.513 -3.3506  0.2679  0.5279
  190POPC   C1521863   5.680   5.213  11.396 -0.0538 -1.0609  0.1713
  190POPC  H15A21864   5.769   5.183  11.343  0.1502  0.6281 -0.5260
  190POPC  H15B21865   5.604   5.148  11.355  0.8738 -0.2474 -3.1246
  190POPC  H15C21866   5.686   5.211  11.503  1.5600  3.1057  0.3702
  190POPC   C1121867   5.764   5.308  11.129  0.6206  0.7592  0.1532
  190POPC  H11A21868   5.739   5.346  11.027 -1.9792  2.6336  1.3843
  190POPC  H11B21869   5.763   5.198  11.118 -3.7511  0.8705 -3.2505
  190POPC     P21870   5.975   5.472  11.103  0.5262  0.2155  0.0593
  190POPC   O1321871   6.083   5.515  11.190  0.3385 -0.4790  0.6171
  190POPC   O1421872   5.878   5.573  11.062  0.1548  0.1690 -0.0214
  190POPC   O1221873   5.894   5.356  11.166  0.3021 -0.4218 -0.6953
  190POPC   O1121874   6.043   5.408  10.977  0.0966 -0.1179  0.3855
  190POPC    C121875   6.022   5.281  10.921  0.7495 -0.0597  0.0152
  190POPC    HA21876   5.914   5.255  10.918  1.0910 -1.6625  0.4346
  190POPC    HB21877   6.078   5.207  10.982  2.9006  1.7530  0.3690
  190POPC    C221878   6.078   5.259  10.789 -0.7402 -0.5629  0.0676
  190POPC    HS21879   6.186   5.284  10.798 -0.7585 -0.2014 -0.6408
  190POPC   O2121880   6.016   5.330  10.682 -1.0002  0.8178  0.1204
  190POPC   C2121881   6.068   5.449  10.659  0.0836  0.3881 -1.2562
  190POPC   O2221882   6.162   5.501  10.719  0.4116  0.2429  0.5570
  190POPC   C2221883   5.990   5.521  10.558 -0.1901  0.2556  0.5063
  190POPC   H2R21884   6.054   5.602  10.518  0.1197  0.6219  1.7291
  190POPC   H2S21885   5.906   5.567  10.613  0.1571  1.0313  0.3933
  190POPC    C321886   6.081   5.114  10.754 -0.0622  0.2819  0.6177
  190POPC    HX21887   5.978   5.074  10.766  1.4412 -4.1498  0.9436
  190POPC    HY21888   6.136   5.042  10.818  1.6869 -0.3677 -1.4799
  190POPC   O3121889   6.123   5.087  10.616  0.0104 -0.3367 -0.1771
  190POPC   C3121890   6.255   5.054  10.608  0.3671 -0.4281 -0.0677
  190POPC   O3221891   6.336   5.049  10.702  0.2810  0.6687  0.7095
  190POPC   C3221892   6.297   5.023  10.466  0.2552  0.3150  0.6297
  190POPC   H2X21893   6.240   4.934  10.430  1.6236 -1.3784  2.4316
  190POPC   H2Y21894   6.405   4.999  10.456  0.7565  2.4430  0.5998
  190POPC   C2321895   5.927   5.435  10.446 -0.1260 -0.1792  0.0379
  190POPC   H3R21896   5.846   5.376  10.494 -1.3211  1.3415 -0.0648
  190POPC   H3S21897   5.995   5.369  10.387  0.7834  1.9081 -1.3516
  190POPC   C2421898   5.867   5.526  10.337 -0.4021 -0.1339  0.1014
  190POPC   H4R21899   5.940   5.605  10.307 -3.2103  2.6954  0.2146
  190POPC   H4S21900   5.778   5.574  10.382 -0.0934  1.9687 -1.3455
  190POPC   C2521901   5.838   5.445  10.206  0.2191  0.1620  0.1780
  190POPC   H5R21902   5.747   5.381  10.215 -0.5862  1.1191 -0.8647
  190POPC   H5S21903   5.923   5.383  10.171  0.9031  0.9995  0.3248
  190POPC   C2621904   5.806   5.528  10.088  0.2897 -0.9766  0.4734
  190POPC   H6R21905   5.877   5.614  10.087 -2.5981  1.6744  2.7909
  190POPC   H6S21906   5.701   5.563  10.100 -0.5172 -1.7202 -3.1866
  190POPC   C2721907   5.816   5.460   9.948 -0.1457  0.9896 -0.9980
  190POPC   H7R21908   5.739   5.381   9.933 -0.5933  0.6553  2.2912
  190POPC   H7S21909   5.919   5.419   9.939 -0.7109 -0.3918 -1.3314
  190POPC   C2821910   5.795   5.562   9.835 -0.5346  0.7691  0.2312
  190POPC   H8R21911   5.840   5.658   9.869 -0.6471  0.3616  1.5721
  190POPC   H8S21912   5.685   5.575   9.825 -0.9200 -1.6084  0.6279
  190POPC   C2921913   5.849   5.521   9.702  0.0115  0.9210  0.0501
  190POPC   H9121914   5.950   5.560   9.681 -0.4343  1.5126 -1.1184
  190POPC  C21021915   5.783   5.469   9.597  0.3821 -0.1102 -0.6435
  190POPC  H10121916   5.832   5.443   9.503 -1.0390 -1.2309 -1.1062
  190POPC  C21121917   5.633   5.453   9.603  0.3341  0.1047 -0.3197
  190POPC  H11R21918   5.595   5.543   9.550  1.0334  0.2533 -0.5881
  190POPC  H11S21919   5.585   5.457   9.702 -1.1971  2.5294 -1.0821
  190POPC  C21221920   5.583   5.325   9.540  0.6424  0.2072 -0.5438
  190POPC  H12R21921   5.637   5.311   9.444  1.7819  1.1487 -0.0527
  190POPC  H12S21922   5.473   5.332   9.521  0.4424 -0.0686  0.4510
  190POPC  C21321923   5.611   5.201   9.629  0.3131 -0.0854  0.3201
  190POPC  H13R21924   5.711   5.205   9.678  0.0970 -0.8024  0.8403
  190POPC  H13S21925   5.628   5.119   9.556 -2.2564  1.0585 -1.7147
  190POPC  C21421926   5.501   5.155   9.717 -0.0320  0.8438  0.6103
  190POPC  H14R21927   5.407   5.126   9.666 -0.4535  2.1066  0.6480
  190POPC  H14S21928   5.485   5.240   9.787  0.1952  0.9719  0.5071
  190POPC  C21521929   5.549   5.039   9.809 -0.0199  0.3407 -0.2389
  190POPC  H15R21930   5.654   5.056   9.842  0.3079  0.5783 -1.3709
  190POPC  H15S21931   5.545   4.942   9.756  1.3413  0.5794 -0.8175
  190POPC  C21621932   5.463   5.022   9.935  0.1681  0.2901  0.5397
  190POPC  H16R21933   5.382   4.949   9.912  1.2244 -0.9934  0.7456
  190POPC  H16S21934   5.408   5.114   9.965 -0.7649 -0.0979  0.0681
  190POPC  C21721935   5.534   4.966  10.059 -0.1602 -0.3571  0.3444
  190POPC  H17R21936   5.614   5.043  10.070  0.9283 -0.9683 -2.4281
  190POPC  H17S21937   5.576   4.863  10.051  0.5647 -0.2160  1.9467
  190POPC  C21821938   5.451   4.979  10.190  0.4239  0.2128 -0.0448
  190POPC  H18R21939   5.491   4.947  10.289 -0.6896 -0.0534  0.3392
  190POPC  H18S21940   5.354   4.925  10.180  0.5549 -0.0206 -0.0733
  190POPC  H18T21941   5.429   5.087  10.202  1.7229  0.3345  1.6124
  190POPC   C3321942   6.257   5.145  10.373 -0.7945 -0.5579  0.1908
  190POPC   H3X21943   6.295   5.245  10.405  1.6213 -1.0883 -0.8066
  190POPC   H3Y21944   6.146   5.152  10.373 -0.7914 -0.4617 -0.3616
  190POPC   C3421945   6.307   5.125  10.232 -0.0702  0.1207  0.7366
  190POPC   H4X21946   6.266   5.208  10.170  1.7496 -0.8324 -1.9626
  190POPC   H4Y21947   6.264   5.030  10.195 -0.8917  1.2924 -1.5438
  190POPC   C3521948   6.463   5.127  10.212  0.1042  0.1361 -0.0168
  190POPC   H5X21949   6.516   5.062  10.284 -0.1080 -0.1231 -0.0953
  190POPC   H5Y21950   6.502   5.230  10.229  1.0814 -0.6130  2.7891
  190POPC   C3621951   6.505   5.073  10.071  0.6179  0.2876 -0.3643
  190POPC   H6X21952   6.511   4.962  10.074 -1.6690  0.0805 -1.2408
  190POPC   H6Y21953   6.607   5.114  10.056  0.9188  0.2645  1.4313
  190POPC   C3721954   6.422   5.134   9.954  0.8168 -0.3044 -0.2761
  190POPC   H7X21955   6.396   5.240   9.978  1.1497  0.2817 -2.2647
  190POPC   H7Y21956   6.327   5.082   9.930 -0.0059  0.9947  0.0683
  190POPC   C3821957   6.491   5.126   9.825 -0.3234 -0.5426 -0.0802
  190POPC   H8X21958   6.528   5.027   9.794  0.6352 -0.1362 -0.2730
  190POPC   H8Y21959   6.586   5.183   9.835 -0.5996  0.4577 -2.3836
  190POPC   C3921960   6.419   5.188   9.707  0.0869  0.1792 -0.1369
  190POPC   H9X21961   6.425   5.299   9.705  0.9050  0.1497  0.2032
  190POPC   H9Y21962   6.314   5.152   9.698 -0.2888  0.9862  0.8240
  190POPC  C31021963   6.493   5.137   9.580 -0.5523 -0.8142 -0.2453
  190POPC  H10X21964   6.477   5.027   9.571 -0.2837 -0.8348 -0.5008
  190POPC  H10Y21965   6.603   5.144   9.597 -0.6843  0.8064  0.0263
  190POPC  C31121966   6.457   5.214   9.451 -0.3991  0.5660  0.1492
  190POPC  H11X21967   6.486   5.321   9.459 -3.3396  1.4851 -0.1412
  190POPC  H11Y21968   6.346   5.220   9.446 -0.4250  1.8688  1.5013
  190POPC  C31221969   6.517   5.157   9.321  0.4258  0.0008  0.6306
  190POPC  H12X21970   6.515   5.047   9.333 -1.5333  0.1664  2.2802
  190POPC  H12Y21971   6.624   5.186   9.317 -0.0077  1.6681  0.5039
  190POPC  C31321972   6.449   5.204   9.194 -0.2836 -0.2105  0.7085
  190POPC  H13X21973   6.470   5.312   9.203 -0.3985 -0.2545  1.7185
  190POPC  H13Y21974   6.342   5.178   9.181 -0.0946  0.2592 -2.4033
  190POPC  C31421975   6.520   5.144   9.074  0.4838 -0.2308 -0.2126
  190POPC  H14X21976   6.504   5.034   9.064 -0.7619 -0.0245 -0.7162
  190POPC  H14Y21977   6.628   5.165   9.083  0.1103  1.3843  0.9015
  190POPC  C31521978   6.457   5.221   8.955  0.1669 -0.3805  1.0125
  190POPC  H15X21979   6.498   5.324   8.957  0.3394 -0.4383  0.3716
  190POPC  H15Y21980   6.346   5.221   8.966  0.2048 -2.2265  1.7724
  190POPC  C31621981   6.489   5.160   8.819  0.1395 -0.2228  0.6486
  190POPC  H16X21982   6.442   5.062   8.798  2.4602 -1.1727 -0.4232
  190POPC  H16Y21983   6.597   5.142   8.805  0.0073 -1.1102  0.6968
  190POPC  H16Z21984   6.453   5.230   8.740  2.7176  0.1904 -0.2328
  191POPC     N21985   1.843   5.963   6.176  0.8186 -0.1664 -0.4726
  191POPC   C1221986   1.826   5.943   6.322 -0.2133  0.0416  0.2245
  191POPC  H12A21987   1.918   5.934   6.378  1.2244 -0.2356 -2.0480
  191POPC  H12B21988   1.792   5.841   6.334  0.9926 -0.2740  1.1033
  191POPC   C1321989   1.711   5.982   6.109  0.0158  0.1081  0.2022
  191POPC  H13A21990   1.658   6.062   6.158  1.3042 -0.0635  1.9743
  191POPC  H13B21991   1.727   6.007   6.005  4.0758  1.9365  1.0655
  191POPC  H13C21992   1.650   5.894   6.122 -1.1593  1.1513  2.2081
  191POPC   C1421993   1.923   6.090   6.150  0.6560  0.3032 -0.5738
  191POPC  H14A21994   2.026   6.068   6.171  0.5507 -0.0722 -0.4481
  191POPC  H14B21995   1.929   6.120   6.047 -0.0736 -0.0382 -0.7230
  191POPC  H14C21996   1.889   6.173   6.210  0.6232  0.4835 -0.8385
  191POPC   C1521997   1.915   5.847   6.118  0.2696  0.6872 -0.2666
  191POPC  H15A21998   1.964   5.872   6.025  1.0258 -0.0522 -0.0697
  191POPC  H15B21999   1.847   5.765   6.104  1.0427  0.0041 -0.0608
  191POPC  H15C22000   1.988   5.815   6.190  1.4246  1.3648 -1.1084
  191POPC   C1122001   1.740   6.044   6.396 -0.1716 -0.5552  0.3287
  191POPC  H11A22002   1.767   6.150   6.375  1.8441 -1.4283 -1.9507
  191POPC  H11B22003   1.770   6.041   6.503 -1.4460  3.0233  0.9519
  191POPC     P22004   1.522   5.916   6.444 -0.0359  0.1480 -0.0989
  191POPC   O1322005   1.584   5.788   6.400  0.3247  0.6199 -0.0002
  191POPC   O1422006   1.384   5.937   6.413  0.2860 -0.5749  0.1972
  191POPC   O1222007   1.597   6.028   6.369 -0.2546  0.6520 -0.0821
  191POPC   O1122008   1.559   5.950   6.593  0.1622  0.1792 -0.7987
  191POPC    C122009   1.511   6.065   6.673  0.3045  0.9757 -0.4182
  191POPC    HA22010   1.443   6.135   6.619 -0.4319  0.7544  0.1914
  191POPC    HB22011   1.596   6.122   6.716  0.2294 -0.0488  1.1681
  191POPC    C222012   1.413   6.009   6.780  0.0177  0.4347 -0.0615
  191POPC    HS22013   1.374   6.091   6.843 -3.5046  0.5856 -2.1695
  191POPC   O2122014   1.485   5.897   6.852  0.5311 -0.2403  0.9513
  191POPC   C2122015   1.558   5.936   6.953 -0.7246 -0.0697  0.0986
  191POPC   O2222016   1.566   6.049   7.000 -0.0020 -0.2094  0.0851
  191POPC   C2222017   1.647   5.820   6.999 -0.2163  0.2129 -0.2819
  191POPC   H2R22018   1.721   5.861   7.072 -1.5571  2.8322 -0.2925
  191POPC   H2S22019   1.683   5.766   6.909 -1.2326  0.7085 -0.9951
  191POPC    C322020   1.282   5.944   6.718 -0.2501 -0.5811  0.1934
  191POPC    HX22021   1.308   5.862   6.647  0.1083 -1.9695  1.8697
  191POPC    HY22022   1.228   6.016   6.653  0.6056  0.9986  1.1594
  191POPC   O3122023   1.209   5.880   6.827 -0.2249  0.3880 -0.7908
  191POPC   C3122024   1.140   5.960   6.901  0.3760  0.9103 -0.1455
  191POPC   O3222025   1.122   6.076   6.879 -0.3053  0.7575  0.5779
  191POPC   C3222026   1.088   5.885   7.020 -0.0898  0.3342  0.0436
  191POPC   H2X22027   1.165   5.815   7.061  1.3580  2.0347  0.3591
  191POPC   H2Y22028   1.002   5.821   6.993 -0.3291  0.2825  0.8986
  191POPC   C2322029   1.569   5.712   7.087  0.2767  0.8135  0.1689
  191POPC   H3R22030   1.581   5.607   7.051  0.7976  0.9452 -0.0457
  191POPC   H3S22031   1.461   5.737   7.084  0.2999  0.9078  0.1197
  191POPC   C2422032   1.596   5.733   7.235 -0.4756 -0.0557  0.8245
  191POPC   H4R22033   1.706   5.739   7.243 -0.5115  0.1735  1.1905
  191POPC   H4S22034   1.569   5.644   7.296  0.4359 -0.1457  1.1006
  191POPC   C2522035   1.542   5.869   7.296  0.3469  0.2477  0.3533
  191POPC   H5R22036   1.431   5.864   7.295  0.2909  0.6745  1.7884
  191POPC   H5S22037   1.561   5.966   7.245  0.5858  1.5253  2.7416
  191POPC   C2622038   1.583   5.880   7.446  0.1772 -0.2427  1.0956
  191POPC   H6R22039   1.671   5.947   7.451 -0.3741  0.4255  2.7535
  191POPC   H6S22040   1.598   5.777   7.484  1.0558 -1.2513 -1.7998
  191POPC   C2722041   1.463   5.942   7.521 -0.0093 -0.0579  0.6135
  191POPC   H7R22042   1.384   5.866   7.500 -0.3790  0.8867 -1.6989
  191POPC   H7S22043   1.445   6.041   7.475  0.1508 -1.0212 -1.6544
  191POPC   C2822044   1.478   5.977   7.674 -0.5979  0.3178  1.5149
  191POPC   H8R22045   1.567   6.043   7.680 -0.3013  0.2863 -1.2659
  191POPC   H8S22046   1.487   5.882   7.731 -2.2314 -0.6058  0.3140
  191POPC   C2922047   1.359   6.056   7.717  0.3763 -0.0167  0.3778
  191POPC   H9122048   1.364   6.155   7.668  0.3088  0.8568  2.0665
  191POPC  C21022049   1.252   6.022   7.795 -0.7246 -0.1089 -0.5214
  191POPC  H10122050   1.177   6.100   7.811  0.3114  0.9306 -0.6058
  191POPC  C21122051   1.238   5.880   7.859  0.0334 -0.5555  0.0985
  191POPC  H11R22052   1.264   5.806   7.780  1.1837 -2.2811  2.0027
  191POPC  H11S22053   1.131   5.878   7.891  0.3507 -0.3403  1.2123
  191POPC  C21222054   1.312   5.860   7.995 -1.1125 -0.4109 -0.1044
  191POPC  H12R22055   1.416   5.898   7.981  0.4401 -4.0372  0.5869
  191POPC  H12S22056   1.321   5.754   8.026  1.0777  0.1783  1.5188
  191POPC  C21322057   1.262   5.942   8.113  0.0995 -0.1789  0.7450
  191POPC  H13R22058   1.157   5.911   8.135  0.0608 -0.9255 -0.3867
  191POPC  H13S22059   1.249   6.045   8.072  0.2426 -0.3952  0.1359
  191POPC  C21422060   1.349   5.937   8.232  0.3014 -0.5600 -0.0184
  191POPC  H14R22061   1.329   6.023   8.299  0.0400 -1.7174  1.4430
  191POPC  H14S22062   1.455   5.937   8.197  0.1649 -1.1202 -0.4414
  191POPC  C21522063   1.342   5.805   8.319  0.5547 -1.1233  0.3430
  191POPC  H15R22064   1.324   5.713   8.258  0.9024  0.3773 -2.1790
  191POPC  H15S22065   1.252   5.817   8.382  0.1130 -0.0003 -0.4707
  191POPC  C21622066   1.473   5.796   8.408 -0.0913  0.0567  0.2959
  191POPC  H16R22067   1.470   5.876   8.485  0.1991  1.0634 -0.7093
  191POPC  H16S22068   1.561   5.800   8.340 -0.4662 -2.6139 -0.4751
  191POPC  C21722069   1.479   5.656   8.468 -0.5210 -0.8252 -0.0508
  191POPC  H17R22070   1.466   5.574   8.393 -0.7558 -0.9451  0.1214
  191POPC  H17S22071   1.395   5.635   8.537 -1.1327  1.8279  0.0801
  191POPC  C21822072   1.598   5.637   8.560  0.3739 -0.1055  0.2671
  191POPC  H18R22073   1.596   5.727   8.626  0.2714 -0.1347  0.3031
  191POPC  H18S22074   1.693   5.640   8.502  0.0247 -2.1226 -0.4619
  191POPC  H18T22075   1.593   5.544   8.620  0.9307 -0.4880 -0.2655
  191POPC   C3322076   1.059   5.972   7.139  0.0264  0.5513 -0.2015
  191POPC   H3X22077   0.989   6.055   7.116  2.2196  3.2372  1.9759
  191POPC   H3Y22078   1.151   6.029   7.165  0.5948 -0.5100  0.1684
  191POPC   C3422079   1.011   5.898   7.261  0.4160  0.3829 -0.6193
  191POPC   H4X22080   1.072   5.810   7.291 -1.3802 -0.1647  1.6724
  191POPC   H4Y22081   0.911   5.859   7.234  0.7029  0.1380 -1.3555
  191POPC   C3522082   1.001   5.994   7.375 -1.2088 -0.3471 -0.2172
  191POPC   H5X22083   0.986   6.099   7.343  1.4329  0.5338  1.1075
  191POPC   H5Y22084   1.097   5.984   7.431 -1.7930 -0.1730  0.8567
  191POPC   C3622085   0.892   5.967   7.486  0.0707 -0.1851 -0.1550
  191POPC   H6X22086   0.904   5.863   7.523 -0.0223 -0.7102 -1.5379
  191POPC   H6Y22087   0.784   5.975   7.461 -0.1228 -0.7837  0.4707
  191POPC   C3722088   0.910   6.070   7.603 -0.4764 -0.1258  0.0790
  191POPC   H7X22089   0.920   6.170   7.556 -1.0755 -0.3755 -0.6027
  191POPC   H7Y22090   1.008   6.049   7.651 -0.6370 -0.6821  0.1704
  191POPC   C3822091   0.811   6.040   7.714  0.1090 -0.3903  0.5237
  191POPC   H8X22092   0.819   5.944   7.769 -2.6628  0.0671  1.8813
  191POPC   H8Y22093   0.705   6.054   7.684 -0.6493 -2.9784  1.7262
  191POPC   C3922094   0.831   6.155   7.819  0.0247  0.0406 -0.2957
  191POPC   H9X22095   0.784   6.249   7.781 -0.4522  0.2026  0.6649
  191POPC   H9Y22096   0.938   6.164   7.846 -0.6378  0.3918  2.5708
  191POPC  C31022097   0.751   6.132   7.950 -0.3959 -0.5171  0.3334
  191POPC  H10X22098   0.798   6.046   8.003  1.7460  1.3613  1.6777
  191POPC  H10Y22099   0.644   6.122   7.920 -1.4069  3.5050  1.9156
  191POPC  C31122100   0.770   6.262   8.042 -0.1745  0.1514  0.1696
  191POPC  H11X22101   0.727   6.350   7.990  0.2408 -0.7512 -1.7843
  191POPC  H11Y22102   0.878   6.282   8.056 -0.1272  0.5629 -0.6987
  191POPC  C31222103   0.696   6.267   8.176 -0.1304 -0.0727  0.5145
  191POPC  H12X22104   0.586   6.266   8.157  0.2036 -1.9928 -1.8195
  191POPC  H12Y22105   0.732   6.355   8.233  0.0900 -0.9089  1.7096
  191POPC  C31322106   0.723   6.151   8.268  0.4408  0.1599  0.0913
  191POPC  H13X22107   0.828   6.113   8.262 -0.3492 -2.0728 -1.1174
  191POPC  H13Y22108   0.657   6.066   8.242 -0.5365  0.3212  1.9074
  191POPC  C31422109   0.698   6.192   8.414  0.7258 -0.2172  0.0281
  191POPC  H14X22110   0.620   6.270   8.407  1.0384  0.1061  0.1488
  191POPC  H14Y22111   0.788   6.232   8.465  1.1227  0.4207 -1.1304
  191POPC  C31522112   0.649   6.072   8.504 -0.0584 -0.0019  0.0094
  191POPC  H15X22113   0.722   5.991   8.483  1.1836  0.7596  1.2472
  191POPC  H15Y22114   0.549   6.044   8.462  0.9052  0.3956 -2.7864
  191POPC  C31622115   0.649   6.095   8.655 -0.0118  0.2668 -0.1084
  191POPC  H16X22116   0.750   6.124   8.691 -0.2130  2.0420 -0.8421
  191POPC  H16Y22117   0.613   6.010   8.716  2.7192 -0.4519  0.6235
  191POPC  H16Z22118   0.582   6.182   8.674 -2.5879 -1.7656  0.6500
  192POPC     N22119   0.486   2.105   5.702 -0.3727 -0.1909  0.1278
  192POPC   C1222120   0.375   2.153   5.791 -0.2256  0.2465 -0.0718
  192POPC  H12A22121   0.299   2.182   5.721  0.3260  0.3672 -0.6290
  192POPC  H12B22122   0.413   2.241   5.842  1.8117  0.3875 -1.6958
  192POPC   C1322123   0.533   2.210   5.606  0.0345 -0.1102  0.1971
  192POPC  H13A22124   0.459   2.227   5.528 -0.4840 -2.4009  0.1272
  192POPC  H13B22125   0.565   2.298   5.659  0.9108 -1.1103  1.3530
  192POPC  H13C22126   0.618   2.171   5.553  0.0006 -0.5572  0.4693
  192POPC   C1422127   0.602   2.056   5.779 -0.1770 -0.7048  0.0453
  192POPC  H14A22128   0.661   2.130   5.832 -0.0965 -1.3082  0.8066
  192POPC  H14B22129   0.566   1.997   5.862  1.3549  0.1783  1.4142
  192POPC  H14C22130   0.673   1.998   5.721  1.8975  1.4310  0.2838
  192POPC   C1522131   0.432   1.990   5.614  0.1958 -0.7491 -0.6535
  192POPC  H15A22132   0.337   2.028   5.580 -0.1495 -0.3663  0.6530
  192POPC  H15B22133   0.408   1.899   5.667  2.3655 -0.6839  0.5644
  192POPC  H15C22134   0.491   1.968   5.527  0.9614 -2.2708  0.2067
  192POPC   C1122135   0.299   2.067   5.896  0.6222  0.7708  0.0971
  192POPC  H11A22136   0.241   1.982   5.853  2.0885  0.0845 -0.5714
  192POPC  H11B22137   0.229   2.140   5.943  1.3267  0.8924  0.9716
  192POPC     P22138   0.466   2.084   6.101  0.2770 -0.2121  0.3079
  192POPC   O1322139   0.473   2.230   6.062  0.4941  0.3942  0.2238
  192POPC   O1422140   0.584   2.016   6.143  0.2351  0.4123 -0.6809
  192POPC   O1222141   0.390   2.004   5.984 -0.1103  0.1269 -0.0165
  192POPC   O1122142   0.364   2.063   6.221 -0.2658  0.1996  0.6239
  192POPC    C122143   0.307   2.181   6.287  0.1529  0.0524  0.6899
  192POPC    HA22144   0.233   2.141   6.359  1.1563  2.3078  3.1090
  192POPC    HB22145   0.251   2.249   6.219  0.0562 -0.2451  0.4707
  192POPC    C222146   0.405   2.273   6.366  0.3022  0.4148 -0.9220
  192POPC    HS22147   0.474   2.336   6.306 -0.7838  1.9902 -0.5982
  192POPC   O2122148   0.498   2.183   6.431 -0.5393  0.4387  0.0762
  192POPC   C2122149   0.589   2.237   6.512 -0.2744 -0.3684  0.2107
  192POPC   O2222150   0.602   2.355   6.538  0.2334  0.0564  0.0084
  192POPC   C2222151   0.688   2.126   6.558 -0.4547  0.3217  0.3863
  192POPC   H2R22152   0.719   2.065   6.470  0.1036 -1.4858  1.7702
  192POPC   H2S22153   0.625   2.053   6.612  0.3337  0.2641  1.2472
  192POPC    C322154   0.320   2.376   6.451  0.1882 -0.1603 -0.3849
  192POPC    HX22155   0.264   2.441   6.380 -0.8501 -0.2787  0.2993
  192POPC    HY22156   0.390   2.437   6.512  0.9021 -0.5342 -0.8200
  192POPC   O3122157   0.220   2.312   6.536  0.7442  0.1581  0.3696
  192POPC   C3122158   0.147   2.389   6.607 -0.4714 -0.1636  0.2230
  192POPC   O3222159   0.162   2.509   6.612  0.2183 -0.8607 -0.5699
  192POPC   C3222160   0.034   2.296   6.654  0.8822  0.1408  0.3864
  192POPC   H2X22161   0.062   2.191   6.679 -1.5055 -0.2440  1.8263
  192POPC   H2Y22162  -0.034   2.283   6.566  1.1941 -1.5454  0.3538
  192POPC   C2322163   0.801   2.170   6.649 -0.3961 -0.1980 -0.4413
  192POPC   H3R22164   0.863   2.242   6.591  1.7040 -1.9363 -0.4319
  192POPC   H3S22165   0.875   2.092   6.675  0.0299  0.9792  2.1157
  192POPC   C2422166   0.757   2.212   6.796  0.6081 -0.3990  0.7044
  192POPC   H4R22167   0.693   2.132   6.839  0.3838  0.9577  3.0960
  192POPC   H4S22168   0.710   2.313   6.788  2.1171  0.2991  0.2473
  192POPC   C2522169   0.871   2.202   6.898 -0.2872  0.4198  0.1857
  192POPC   H5R22170   0.960   2.266   6.880  0.6821 -0.6166  1.1827
  192POPC   H5S22171   0.909   2.100   6.880  1.1800  1.0303 -0.3282
  192POPC   C2622172   0.832   2.215   7.040 -0.1521  0.2007  0.6520
  192POPC   H6R22173   0.751   2.145   7.072 -0.6829  0.3527 -0.3025
  192POPC   H6S22174   0.797   2.319   7.057  1.7766  1.2599 -1.3353
  192POPC   C2722175   0.951   2.203   7.135 -0.2552 -0.0158  0.4722
  192POPC   H7R22176   1.017   2.288   7.105  1.1267 -1.2833 -0.1890
  192POPC   H7S22177   1.012   2.112   7.118 -0.3604 -0.1959  1.0558
  192POPC   C2822178   0.906   2.207   7.286 -0.2952  0.4405  0.0527
  192POPC   H8R22179   0.853   2.115   7.318  1.2455  0.1388  1.9648
  192POPC   H8S22180   0.831   2.287   7.297  0.8827  1.4350  1.0844
  192POPC   C2922181   1.017   2.225   7.387 -0.2588  0.5364  0.2223
  192POPC   H9122182   1.111   2.266   7.348 -0.5057  2.1520  1.2511
  192POPC  C21022183   1.019   2.211   7.519 -0.1600  0.2047  0.1536
  192POPC  H10122184   1.115   2.239   7.565  0.6458 -1.8790 -0.1132
  192POPC  C21122185   0.900   2.187   7.608  0.4285  0.1371 -0.8355
  192POPC  H11R22186   0.804   2.199   7.554  0.4989 -2.5224 -1.6678
  192POPC  H11S22187   0.904   2.269   7.684  4.0041 -0.6058 -0.0611
  192POPC  C21222188   0.900   2.061   7.694 -0.4426  0.5172 -0.1305
  192POPC  H12R22189   0.999   2.047   7.741  0.0628  0.7415 -1.1150
  192POPC  H12S22190   0.903   1.966   7.637  2.0404  1.2384 -1.3032
  192POPC  C21322191   0.801   2.066   7.809 -0.1464 -0.3445 -0.3357
  192POPC  H13R22192   0.699   2.079   7.768  0.3847  0.1468 -1.5277
  192POPC  H13S22193   0.819   2.152   7.877 -0.2850 -1.0127  0.5734
  192POPC  C21422194   0.801   1.929   7.879  0.7002  0.0338 -0.4797
  192POPC  H14R22195   0.905   1.909   7.911  0.4824  0.9238  0.8463
  192POPC  H14S22196   0.770   1.848   7.810  0.5097 -1.2914  1.1236
  192POPC  C21522197   0.715   1.920   8.004  0.8967  0.5083 -0.1693
  192POPC  H15R22198   0.725   1.815   8.041 -0.2908  1.0071  1.6857
  192POPC  H15S22199   0.608   1.930   7.975  0.9891  1.6435 -0.1502
  192POPC  C21622200   0.738   2.036   8.108 -0.3516 -0.2313  0.2446
  192POPC  H16R22201   0.655   2.109   8.095  0.7789  1.7245  2.9742
  192POPC  H16S22202   0.831   2.093   8.089 -1.2765  1.6754  1.1378
  192POPC  C21722203   0.740   1.978   8.250  0.2963  0.0939  0.2219
  192POPC  H17R22204   0.785   2.053   8.318  2.4212 -1.4151  0.5695
  192POPC  H17S22205   0.810   1.895   8.272  1.4852  1.1903  0.6828
  192POPC  C21822206   0.599   1.944   8.304  0.0067  0.2557 -0.2726
  192POPC  H18R22207   0.550   2.044   8.299  1.6807  1.3302  2.6034
  192POPC  H18S22208   0.607   1.909   8.409 -1.6120 -2.5600 -0.9625
  192POPC  H18T22209   0.539   1.869   8.248  0.7374 -1.6522  1.3641
  192POPC   C3322210  -0.050   2.368   6.764 -0.0837 -0.0309  0.6102
  192POPC   H3X22211  -0.133   2.295   6.776  0.1108 -0.5269 -0.8588
  192POPC   H3Y22212  -0.096   2.457   6.717 -0.4428 -0.5408 -0.0180
  192POPC   C3422213   0.018   2.410   6.894 -0.7427  0.1781  0.3564
  192POPC   H4X22214  -0.053   2.478   6.945 -0.5505 -0.1767  1.1058
  192POPC   H4Y22215   0.109   2.465   6.862 -0.8449 -1.1459 -2.6085
  192POPC   C3522216   0.065   2.296   6.988 -0.0072  0.3948 -0.1994
  192POPC   H5X22217   0.175   2.306   7.000  0.0230  0.8118 -0.7697
  192POPC   H5Y22218   0.035   2.200   6.943 -1.4596  0.5653  0.3536
  192POPC   C3622219  -0.013   2.289   7.124  0.1183 -0.0381 -0.0532
  192POPC   H6X22220   0.024   2.195   7.170 -0.2592 -0.3011 -0.2903
  192POPC   H6Y22221  -0.121   2.268   7.113  0.3246 -1.0138 -0.2952
  192POPC   C3722222   0.024   2.401   7.217  0.1845 -0.0482 -0.2905
  192POPC   H7X22223   0.003   2.501   7.175  0.0872 -1.5731 -4.2704
  192POPC   H7Y22224   0.133   2.382   7.232  0.0719 -2.1728 -1.7377
  192POPC   C3822225  -0.050   2.409   7.352 -0.0081 -0.3453  0.2974
  192POPC   H8X22226  -0.067   2.302   7.378  2.7048 -1.2106 -1.1358
  192POPC   H8Y22227  -0.148   2.460   7.335  0.6882  1.0800  0.4015
  192POPC   C3922228   0.021   2.485   7.468  0.2134 -0.5200  0.7279
  192POPC   H9X22229   0.056   2.589   7.450 -1.8275  0.3873  1.6142
  192POPC   H9Y22230   0.112   2.423   7.486  1.0607  0.8620  1.4120
  192POPC  C31022231  -0.059   2.482   7.598  0.3422  0.0236  0.6330
  192POPC  H10X22232  -0.079   2.378   7.631  1.5716  0.6610  3.7888
  192POPC  H10Y22233  -0.155   2.532   7.574  1.4873  1.6373 -0.8279
  192POPC  C31122234   0.020   2.567   7.698  0.3469  0.0441  1.3679
  192POPC  H11X22235   0.019   2.670   7.658 -0.1938 -0.6897 -0.6398
  192POPC  H11Y22236   0.126   2.535   7.705  0.8734  1.6876  1.1839
  192POPC  C31222237  -0.045   2.581   7.840 -0.6090 -0.3230 -0.6956
  192POPC  H12X22238  -0.059   2.474   7.864  4.1362 -1.1993 -0.8861
  192POPC  H12Y22239  -0.143   2.633   7.839  0.1890  1.2765 -0.2321
  192POPC  C31322240   0.055   2.618   7.948  0.1013 -0.2717 -1.0334
  192POPC  H13X22241   0.092   2.722   7.935 -0.1963 -0.0375 -0.0630
  192POPC  H13Y22242   0.144   2.552   7.941  2.5209  2.4366  1.4438
  192POPC  C31422243   0.004   2.593   8.089  0.0077  0.1649 -0.5024
  192POPC  H14X22244  -0.016   2.486   8.112 -0.0639  0.2089 -0.3562
  192POPC  H14Y22245  -0.091   2.650   8.101 -0.1215 -0.5537  3.1043
  192POPC  C31522246   0.094   2.641   8.203  0.3284 -0.5378  0.8956
  192POPC  H15X22247   0.110   2.748   8.179 -0.3380 -0.6028  0.1364
  192POPC  H15Y22248   0.198   2.604   8.188  1.2830  0.8715  3.4142
  192POPC  C31622249   0.032   2.626   8.348 -0.4005 -0.3778 -0.7121
  192POPC  H16X22250   0.100   2.666   8.427  0.9791 -1.5336 -1.2878
  192POPC  H16Y22251   0.023   2.519   8.377 -1.6130  0.3720  2.0652
  192POPC  H16Z22252  -0.067   2.675   8.357  0.0136  0.3548 -0.0030
  193SOD    SOD22253   3.494   5.923   0.422 -0.2303 -0.3441  0.5825
  194SOD    SOD22254   4.289   0.725   3.256  0.5222  0.7134  0.0724
  195SOD    SOD22255   0.897   5.234  17.217 -0.2759 -0.1272 -0.1094
  196SOD    SOD22256   1.071   1.721  14.615  0.3961 -0.3368 -0.4365
  197SOD    SOD22257   4.029   5.125  12.459  0.1222  0.0465 -0.0827
  198SOD    SOD22258   5.524   0.707  13.131  0.1188 -0.1349 -0.3683
  199SOD    SOD22259   2.586   3.860  15.917  0.0585  0.0984  0.0574
  200SOD    SOD22260   6.487   4.976   4.056 -0.4752  0.2780  0.1534
  201SOD    SOD22261   0.698   1.356  11.032  0.3663 -0.5310  0.7407
  202SOD    SOD22262   5.327   4.295   5.885 -0.3262  0.3183  0.3935
  203SOD    SOD22263   1.536   0.038   3.545 -0.2499 -0.2773  0.3462
  204SOD    SOD22264   6.639   0.675  16.147  0.3974  0.1999  0.1510
  205SOD    SOD22265   1.969   3.612  11.847  0.2210  0.6091 -0.6340
  206SOD    SOD22266   2.120   2.638  13.283  0.2794  0.1117 -0.3168
  207SOD    SOD22267   3.585   0.856  11.574  0.6383  0.1048 -0.0857
  208SOD    SOD22268   6.422   4.709   3.219 -0.1375 -0.1790  0.0753
  209SOD    SOD22269   0.689   0.051  11.011 -0.3987  0.2774  0.1606
  210SOD    SOD22270   2.726   2.702   5.693  0.2637 -0.2061 -0.7389
  211SOD    SOD22271   1.460   2.870  13.885  0.1961  0.2903  0.0835
  212SOD    SOD22272   5.179   2.485  13.292 -0.1860 -0.7346  0.0349
  213SOD    SOD22273   4.688   2.245  11.023  0.4095  0.1719 -0.1814
  214SOD    SOD22274   4.955   0.373   4.934  0.2245 -0.1791 -0.2243
  215SOD    SOD22275   1.670   5.621  14.220 -0.1255  0.0609 -0.7246
  216SOD    SOD22276   4.132   2.288  16.319 -0.2306 -0.3296  0.3627
  217SOD    SOD22277   0.017   5.318   2.609 -0.8034 -0.5659 -0.1301
  218SOD    SOD22278   3.015   1.519  14.763 -0.0345  0.4789 -0.1062
  219SOD    SOD22279   5.555   3.553  15.406  0.3913 -0.0154  0.2416
  220SOD    SOD22280   4.487   5.619   3.124  0.0378  0.4717 -0.6924
  221SOD    SOD22281   1.169   3.999   5.115  0.1024  0.0116 -0.0877
  222SOD    SOD22282   2.871   3.494   6.211 -0.0502 -0.1594 -0.2379
  223SOD    SOD22283   2.343   5.341   1.065  0.1262 -0.3427  0.0385
  224SOD    SOD22284   3.533   5.898  11.847  0.0973  0.2793  0.1403
  225SOD    SOD22285   4.614   4.314   5.130  0.0238  0.0295 -0.5486
  226SOD    SOD22286   0.129   4.238  13.587 -0.0185  0.2896  0.0289
  227SOD    SOD22287   4.947   3.996   1.575  0.0842  0.0736 -0.0424
  228SOD    SOD22288   6.044   5.398   0.713 -0.3256 -0.1151  0.0678
  229SOD    SOD22289   1.624   2.174  11.588  0.3593  0.1648 -0.1024
  230SOD    SOD22290   1.242   3.387   0.654  0.2045  0.1670 -0.4975
  231SOD    SOD22291   4.946   5.839  11.861 -0.0693 -0.3663 -0.0200
  232SOD    SOD22292   5.039   3.375   6.326 -0.1485 -0.5752  0.1110
  233SOD    SOD22293   1.850   1.441   6.288 -0.1392  0.3225 -0.0810
  234SOD    SOD22294   2.021   0.556   5.757  0.2832  0.0920 -0.3814
  235SOD    SOD22295   4.669   0.456  13.385 -0.4607 -0.1515 -0.2018
  236SOD    SOD22296   3.860   3.353   1.283  0.3113  0.5177  0.3379
  237SOD    SOD22297   5.835   4.580  13.263 -0.1028 -0.5263  0.0460
  238SOD    SOD22298   3.614   2.701  13.841 -0.4624  0.6073 -0.0110
  239SOD    SOD22299   6.639   0.696   0.889  0.0639 -0.2177 -0.2960
  240SOD    SOD22300   6.169   5.099  11.857  0.2642  0.1530 -0.1923
  241SOD    SOD22301   1.338   3.346  11.232 -0.2556 -0.2422  0.2960
  242SOD    SOD22302   3.951   4.180  13.198  0.1257 -0.4552  0.0233
  243SOD    SOD22303   1.410   5.660   4.177  0.3676  0.4756 -0.0731
  244SOD    SOD22304   1.539   2.613   6.115  0.5382 -0.0491 -0.0827
  245SOD    SOD22305   3.711   4.132   4.888  0.2963 -0.3661 -0.6385
  246SOD    SOD22306   6.273   2.677   2.511 -0.4523  0.3179 -0.2070
  247SOD    SOD22307   3.414   2.441  16.878  0.1266 -0.5103 -0.1435
  248SOD    SOD22308   2.704   1.423  16.414 -0.0096  0.2259 -0.1847
  249SOD    SOD22309   0.098   2.729   0.183 -0.0524  0.0292  0.5007
  250SOD    SOD22310   4.315   1.725   2.675  0.0801 -0.5142 -0.2489
  251SOD    SOD22311   0.065   6.244  10.939 -0.6615 -0.4509 -0.3345
  252SOD    SOD22312   6.635   0.193  10.460  0.0607  0.2787 -0.0881
  253SOD    SOD22313   2.741   0.606   3.587  0.5371  0.3459 -0.2408
  254SOD    SOD22314   6.434   2.877  10.705  0.1599  0.6567 -0.1547
  255SOD    SOD22315   1.199   5.079   6.096 -0.1060  0.2540 -0.1183
  256SOD    SOD22316   2.089   3.848   3.905 -0.0527  0.2903 -0.4037
  257SOD    SOD22317   3.279   0.296  14.350 -0.1162 -0.0435 -0.6190
  258SOD    SOD22318   1.168   0.070  12.613  0.5073 -0.7231 -0.4405
  259SOD    SOD22319   6.144   5.889  14.602  0.1820 -0.3114 -0.3598
  260SOD    SOD22320   5.200   6.359   6.221 -0.0478 -0.3039  0.0617
  261SOD    SOD22321   5.622   1.226  10.440 -0.1916  0.2720 -0.2869
  262SOD    SOD22322   3.867   5.859  16.320  0.0412  0.2800  0.4138
  263SOD    SOD22323   0.769   0.302  13.489 -0.4736 -0.0707 -0.4305
  264SOD    SOD22324   4.966   3.946   2.823 -0.0458 -0.3068 -0.0900
  265SOD    SOD22325   2.261   4.990   3.009  0.1238 -0.3469  0.2492
  266SOD    SOD22326   6.570   1.440  12.284 -0.2130 -0.1737 -0.6615
  267SOD    SOD22327   4.832   0.733   1.688 -0.0078 -0.0097 -0.3948
  268SOD    SOD22328   3.253   3.225   2.096  0.2077 -0.0377  0.3372
  269SOD    SOD22329   0.284   3.187   5.318  0.1035  0.4459  0.0160
  270CLA    CLA22330   0.830   5.405  15.270 -0.5750 -0.2913 -0.2915
  271CLA    CLA22331   2.246   1.000  12.443 -0.2029  0.0295  0.0726
  272CLA    CLA22332   5.602   2.077  11.265 -0.1551 -0.3183 -0.0917
  273CLA    CLA22333   1.655   5.531  14.746  0.0539 -0.1865 -0.5945
  274CLA    CLA22334   2.469   0.860   2.261 -0.0873  0.1602 -0.1927
  275CLA    CLA22335   2.056   2.136  13.254  0.1305 -0.1221 -0.2263
  276CLA    CLA22336   4.114   5.063  11.929 -0.3600  0.0293  0.0595
  277CLA    CLA22337   3.338   5.280  11.556 -0.0564  0.0252 -0.0412
  278CLA    CLA22338   0.131   0.977   1.182  0.0427 -0.0254  0.2669
  279CLA    CLA22339   4.663   4.960  12.769 -0.0391 -0.1594 -0.4868
  280CLA    CLA22340   2.664   3.154  13.248  0.1387  0.0211  0.2068
  281CLA    CLA22341   1.230   6.332   3.229  0.3743 -0.2600  0.0692
  282CLA    CLA22342   3.255   2.119  13.711  0.1621  0.1854 -0.3441
  283CLA    CLA22343   0.171   5.409   6.015 -0.0310 -0.1328  0.1334
  284CLA    CLA22344   6.035   6.645  16.246 -0.4928 -0.2876  0.2930
  285CLA    CLA22345   0.599   4.717   5.413  0.0215 -0.9118 -0.1685
  286CLA    CLA22346   4.018   5.922   3.234  0.2753  0.0632  0.2860
  287CLA    CLA22347   6.682   2.024   2.001  0.1057 -0.2609 -0.0019
  288CLA    CLA22348   1.631   6.635  13.115 -0.3337  0.4627 -0.2151
  289CLA    CLA22349   1.418   6.422  11.872 -0.2014  0.3433 -0.1286
  290CLA    CLA22350   0.767   1.232   1.131 -0.0265  0.0769  0.0968
  291CLA    CLA22351   6.645   4.634  14.786 -0.0820  0.0835  0.0940
  292CLA    CLA22352   5.662   3.137   4.738  0.3889 -0.3068 -0.0316
  293CLA    CLA22353   1.772   5.108  16.112 -0.1659 -0.4583  0.0182
  294CLA    CLA22354   0.693   6.026   3.936  0.2375 -0.3659 -0.0914
  295CLA    CLA22355   0.309   6.266  13.785 -0.2719  0.0815 -0.2254
  296CLA    CLA22356   4.984   1.715   4.998 -0.0724 -0.1221 -0.2668
  297CLA    CLA22357   1.592   5.062   3.764  0.3334 -0.0389  0.6477
  298CLA    CLA22358   2.630   3.016   2.537  0.0026  0.2108 -0.0082
  299CLA    CLA22359   3.609   2.421  16.377 -0.2822 -0.0734 -0.4371
  300CLA    CLA22360   5.462   0.949  14.472 -0.0291  0.3332  0.3770
  301CLA    CLA22361   5.387   5.925   2.840 -0.4101  0.3427  0.4178
  302CLA    CLA22362   2.964   3.652  16.554 -0.7740  0.2174  0.0394
  303CLA    CLA22363   6.399   4.763   1.155 -0.1787  0.0493  0.0647
  304CLA    CLA22364   4.522   3.717   0.074 -0.1089 -0.1465  0.1665
  305CLA    CLA22365   3.613   4.643  13.458 -0.3879 -0.1518 -0.2963
  306CLA    CLA22366   3.459   0.301  14.899 -0.2218 -0.3239  0.4294
  307CLA    CLA22367   4.668   4.650   2.014 -0.0322  0.1349 -0.1820
  308CLA    CLA22368   2.178   3.722  12.569  0.0790 -0.1147 -0.3439
  309CLA    CLA22369   3.768   2.769   0.392 -0.0795  0.5903  0.0395
  310CLA    CLA22370   5.534   0.412  16.571 -0.3171  0.1726 -0.1291
  311CLA    CLA22371   5.026   4.919   1.303 -0.2152  0.2327  0.4371
  312CLA    CLA22372   0.775   4.111   4.980  0.0875 -0.4775  0.3757
  313CLA    CLA22373   2.822   3.102  14.764 -0.0480 -0.4006  0.0297
  314CLA    CLA22374   3.578   2.542   2.064 -0.0538  0.4052  0.2179
  315CLA    CLA22375   2.195   1.573  11.641 -0.0226 -0.1801 -0.2252
  316CLA    CLA22376   5.170   4.879  14.086  0.0092  0.2933 -0.2832
  317CLA    CLA22377   5.077   0.999   2.009  0.0817 -0.1413  0.4767
  318CLA    CLA22378   6.248   3.275   0.709  0.1455  0.3669 -0.2020
  319CLA    CLA22379   0.639   0.786  13.568 -0.0948  0.4577  0.1173
  320CLA    CLA22380   1.973   1.284   5.472 -0.0048  0.1793  0.5342
  321CLA    CLA22381   3.437   4.342  14.845 -0.1258 -0.1529  0.2337
  322CLA    CLA22382   3.381   4.222   4.544  0.0707 -0.1108 -0.0799
  323TIP3   OH222383   6.604   3.446   4.195 -0.1306  0.6557 -0.3240
  323TIP3    H122384   6.516   3.471   4.165 -0.5384 -0.1618  0.1404
  323TIP3    H222385   6.632   3.379   4.132 -1.3805 -1.7654  1.5424
  324TIP3   OH222386   4.206   5.211   4.146  0.5828 -0.0837 -0.7236
  324TIP3    H122387   4.297   5.232   4.125  1.0658 -1.2728  0.0914
  324TIP3    H222388   4.195   5.120   4.118 -0.6192  0.2933 -1.5698
  325TIP3   OH222389   1.912   4.055   2.316  0.1087  0.4755 -0.2011
  325TIP3    H122390   1.995   4.046   2.270 -0.5801  1.3698 -1.7180
  325TIP3    H222391   1.875   4.137   2.282 -0.6930  0.9111  1.6061
  326TIP3   OH222392   3.867   5.671   4.180 -0.3942 -0.0246 -0.3073
  326TIP3    H122393   3.907   5.593   4.141 -0.8690 -0.8977  0.9034
  326TIP3    H222394   3.942   5.721   4.214  0.0050  0.6159 -1.9960
  327TIP3   OH222395   4.948   1.269   4.936  0.0036  0.7372  0.3863
  327TIP3    H122396   4.994   1.296   4.857 -0.7166 -0.7893 -0.6147
  327TIP3    H222397   4.855   1.285   4.916 -0.2583 -0.4600  0.5486
  328TIP3   OH222398   0.060   2.468   0.584 -0.2829  0.0781  0.3223
  328TIP3    H122399  -0.022   2.509   0.556  0.9340  1.5753 -1.2413
  328TIP3    H222400   0.070   2.392   0.527 -1.0432 -0.7204  1.2068
  329TIP3   OH222401   3.016   3.980   0.412  0.1689 -0.0889 -0.0502
  329TIP3    H122402   2.988   4.035   0.484  0.2859  0.3121 -0.3068
  329TIP3    H222403   3.080   3.920   0.450  0.5577  0.4109  0.0863
  330TIP3   OH222404   2.736   3.327  11.425 -0.7984 -0.0183 -0.1085
  330TIP3    H122405   2.702   3.326  11.514 -0.1807 -0.7865  0.1271
  330TIP3    H222406   2.760   3.236  11.407  2.5591  0.6535  0.3076
  331TIP3   OH222407   0.853   5.950  14.219  0.0542 -0.2036  0.0988
  331TIP3    H122408   0.794   5.966  14.293 -0.9963 -0.6199 -0.6278
  331TIP3    H222409   0.918   6.020  14.225  1.0289 -1.2053  2.4096
  332TIP3   OH222410   5.718   3.124  11.123  0.0623  0.2538  0.5013
  332TIP3    H122411   5.637   3.151  11.166 -0.0110  0.0265  0.5112
  332TIP3    H222412   5.718   3.170  11.039 -1.8808 -2.4520 -1.1370
  333TIP3   OH222413   4.410   2.765   2.558 -0.1711 -0.6471 -0.6033
  333TIP3    H122414   4.455   2.774   2.642 -1.4908 -1.0944  0.1765
  333TIP3    H222415   4.447   2.686   2.519  0.6957 -0.2461 -0.6244
  334TIP3   OH222416   3.400   6.556  14.549  0.1045  0.2428 -0.3964
  334TIP3    H122417   3.314   6.552  14.590 -0.2336 -2.3523 -1.1795
  334TIP3    H222418   3.445   6.628  14.593 -1.3494 -0.3603  2.2438
  335TIP3   OH222419   6.677   3.900   3.562 -0.1472  0.3715  0.4197
  335TIP3    H122420   6.733   3.908   3.485 -1.9566  0.6960 -0.9556
  335TIP3    H222421   6.588   3.907   3.527 -1.0379  0.6034  2.5671
  336TIP3   OH222422   2.996   1.473   5.991  0.0437  0.2705  0.2078
  336TIP3    H122423   2.970   1.563   6.011 -2.4737 -0.3553  0.0488
  336TIP3    H222424   2.984   1.465   5.897  2.0277  0.2348 -0.0908
  337TIP3   OH222425   3.977   0.775   0.466 -0.2253  1.0280  0.5081
  337TIP3    H122426   3.952   0.717   0.395 -0.0798  2.1841 -0.5334
  337TIP3    H222427   4.015   0.852   0.422  2.9419  0.4268  1.8910
  338TIP3   OH222428   1.451   5.775  12.437 -0.1745  0.0491 -0.1819
  338TIP3    H122429   1.471   5.807  12.349 -0.5103 -0.3238 -0.3967
  338TIP3    H222430   1.537   5.757  12.475  0.0630  1.7549  0.1633
  339TIP3   OH222431   1.744   3.844   2.828  0.1032  0.1611 -0.6816
  339TIP3    H122432   1.707   3.767   2.871  1.0238  0.1626  0.1736
  339TIP3    H222433   1.718   3.917   2.884  1.6285  0.1218  0.1274
  340TIP3   OH222434   6.695   1.333  14.289 -0.2170  0.5289 -0.3098
  340TIP3    H122435   6.756   1.341  14.216 -1.8313 -3.2387 -2.3500
  340TIP3    H222436   6.735   1.267  14.346 -2.2736 -2.2920 -1.8734
  341TIP3   OH222437   0.666   4.719   5.881  0.2792 -0.2110  0.3210
  341TIP3    H122438   0.710   4.634   5.871  0.3323 -0.0839 -0.6001
  341TIP3    H222439   0.722   4.781   5.834  0.8180  0.5527  1.9065
  342TIP3   OH222440   0.468   5.116  14.177 -0.4057 -0.7031  0.5319
  342TIP3    H122441   0.440   5.028  14.201 -1.4338 -0.1931  1.3102
  342TIP3    H222442   0.542   5.134  14.235  0.1602 -1.2555 -0.0141
  343TIP3   OH222443   4.251   0.720  14.126  0.3660  0.3796  0.2117
  343TIP3    H122444   4.182   0.771  14.082 -0.0778  2.0752  2.6444
  343TIP3    H222445   4.328   0.778  14.124  1.1741 -0.6735 -0.6845
  344TIP3   OH222446   4.069   3.455  11.601 -0.2181 -0.3326 -0.0468
  344TIP3    H122447   4.036   3.393  11.666 -0.1219 -0.7896 -0.4324
  344TIP3    H222448   3.990   3.497  11.567 -0.3119 -0.5173 -0.0603
  345TIP3   OH222449   4.496   1.409  11.496  0.1417 -0.3761 -0.2458
  345TIP3    H122450   4.537   1.328  11.528 -2.3228 -1.1697  1.1711
  345TIP3    H222451   4.552   1.479  11.530  1.3776 -1.4241 -0.0255
  346TIP3   OH222452   0.112   4.177  11.881  0.1416 -0.1842 -0.0812
  346TIP3    H122453   0.085   4.088  11.859 -0.4976 -0.1203  0.4277
  346TIP3    H222454   0.049   4.234  11.836 -0.8280 -0.0448  1.3951
  347TIP3   OH222455   1.316   0.777   5.775  0.4279  0.3447  0.2867
  347TIP3    H122456   1.323   0.740   5.687  0.8764  0.0518  0.4433
  347TIP3    H222457   1.351   0.709   5.833 -0.1713  0.4000  0.7262
  348TIP3   OH222458   5.488   6.284   4.474  0.0891 -0.0851 -0.3097
  348TIP3    H122459   5.550   6.257   4.541 -0.2033 -0.3507 -0.1481
  348TIP3    H222460   5.479   6.208   4.417 -0.5073 -0.2379 -0.0197
  349TIP3   OH222461   0.860   0.693  17.115  0.4889 -0.3785  0.5903
  349TIP3    H122462   0.896   0.677  17.027  0.7166 -0.8132  0.7621
  349TIP3    H222463   0.823   0.781  17.109 -0.3952 -0.7781 -0.2412
  350TIP3   OH222464   2.084   4.746  13.933 -0.3352 -0.1173  0.0271
  350TIP3    H122465   2.026   4.677  13.902 -0.0444  0.2043 -1.2943
  350TIP3    H222466   2.028   4.802  13.987 -0.9277 -0.5559 -0.1227
  351TIP3   OH222467   2.105   5.308  14.854 -0.3636 -0.0023  0.1504
  351TIP3    H122468   2.059   5.244  14.800 -1.3303 -0.8388  1.8849
  351TIP3    H222469   2.040   5.375  14.872  0.4160  1.1062 -0.9925
  352TIP3   OH222470   6.255   3.014   1.133  0.4142  0.1639 -0.0445
  352TIP3    H122471   6.343   3.041   1.106  1.2781  0.9388  3.1673
  352TIP3    H222472   6.197   3.065   1.077  1.9976  0.7331 -1.2708
  353TIP3   OH222473   6.696   3.831  13.299  0.3837 -0.2352  0.2314
  353TIP3    H122474   6.764   3.766  13.316  1.3629  0.3954 -1.0938
  353TIP3    H222475   6.640   3.828  13.377  1.8229 -0.8912  1.2899
  354TIP3   OH222476   2.180   1.379  12.917  0.2853  0.5851  0.2718
  354TIP3    H122477   2.154   1.443  12.850  0.0832  0.9816  0.7189
  354TIP3    H222478   2.110   1.384  12.983 -0.5232 -1.1676 -0.3834
  355TIP3   OH222479   4.181   6.722  16.728  0.4411 -0.0078 -0.6137
  355TIP3    H122480   4.152   6.683  16.810 -2.4618 -2.0082 -2.4069
  355TIP3    H222481   4.174   6.816  16.742  0.6532 -0.2769  1.5962
  356TIP3   OH222482   1.145   3.783   0.614 -0.0724  0.4638 -0.1279
  356TIP3    H122483   1.085   3.833   0.559 -0.9847 -1.5069 -1.0207
  356TIP3    H222484   1.088   3.744   0.681  0.9089  2.1828  1.8017
  357TIP3   OH222485   5.149   0.050   1.234 -0.2393  0.1380  0.0336
  357TIP3    H122486   5.110  -0.014   1.174 -0.0452 -1.4984  1.5526
  357TIP3    H222487   5.243   0.041   1.220  0.0356 -2.5522  2.6132
  358TIP3   OH222488   3.210   0.217  16.009 -0.4865  0.6138 -0.0626
  358TIP3    H122489   3.235   0.258  16.092 -0.5501  0.0291  0.2486
  358TIP3    H222490   3.291   0.218  15.957  0.6417 -2.4173  1.3982
  359TIP3   OH222491   5.638   5.688  15.207  0.0318  0.1828  0.5779
  359TIP3    H122492   5.615   5.654  15.121 -0.4770  3.1680 -0.5687
  359TIP3    H222493   5.557   5.681  15.258 -0.2489  0.3008  0.1541
  360TIP3   OH222494   3.159   2.922  14.282  0.1203  0.6813  0.2891
  360TIP3    H122495   3.091   2.943  14.346 -1.2335  0.2748 -0.9583
  360TIP3    H222496   3.120   2.854  14.227  1.7888 -0.0271 -0.0846
  361TIP3   OH222497   2.776   3.743  15.529 -0.0701 -0.9443  0.6385
  361TIP3    H122498   2.864   3.707  15.538  0.1432 -1.0856 -1.4492
  361TIP3    H222499   2.725   3.700  15.598  1.6253 -0.2350  2.4274
  362TIP3   OH222500   3.033   1.305   1.739  0.1260  0.8183 -0.0764
  362TIP3    H122501   3.034   1.315   1.644  0.0510  0.5865 -0.1034
  362TIP3    H222502   3.008   1.213   1.753  1.2755  0.5253  0.1405
  363TIP3   OH222503   4.335   1.682   5.726 -0.0749 -0.1317 -0.2932
  363TIP3    H122504   4.380   1.598   5.732  0.7416  0.3530  0.4727
  363TIP3    H222505   4.264   1.666   5.663 -0.2370 -1.5266  0.1985
  364TIP3   OH222506   2.735   2.247   0.013  0.2050  0.5443 -0.5592
  364TIP3    H122507   2.805   2.227  -0.049 -0.7221 -1.2106 -1.1095
  364TIP3    H222508   2.663   2.190  -0.013 -1.1986  1.7929  0.4245
  365TIP3   OH222509   2.729   0.368  13.818  0.4789 -0.0654 -0.5257
  365TIP3    H122510   2.773   0.394  13.737 -0.0826  1.4815 -0.3784
  365TIP3    H222511   2.671   0.442  13.838  0.3594 -0.5592  1.1027
  366TIP3   OH222512   0.304   4.454  12.916 -0.3287 -0.2818 -0.3301
  366TIP3    H122513   0.344   4.387  12.972  1.0204 -0.1436 -1.0727
  366TIP3    H222514   0.296   4.412  12.830  0.0783  0.3328 -0.6803
  367TIP3   OH222515   2.659   3.985  14.145 -0.0040  0.2278  0.0652
  367TIP3    H122516   2.719   4.019  14.213 -1.8409 -0.5866  2.2227
  367TIP3    H222517   2.597   4.057  14.131 -0.3764 -0.0694  0.1902
  368TIP3   OH222518   6.287   2.820   4.470 -0.2807 -0.1906 -0.6623
  368TIP3    H122519   6.223   2.762   4.511 -0.1165  0.0349 -0.0788
  368TIP3    H222520   6.235   2.885   4.423 -0.5126  0.5917  0.6349
  369TIP3   OH222521   0.902   6.251  12.637 -0.6529 -0.3328  0.0323
  369TIP3    H122522   0.996   6.237  12.625 -0.7055 -0.7738  0.1015
  369TIP3    H222523   0.896   6.315  12.708 -0.3945  0.2033 -0.4194
  370TIP3   OH222524   3.593   1.932   0.113 -0.0764  0.2267 -0.0703
  370TIP3    H122525   3.669   1.937   0.171  0.2173  0.6177 -0.4695
  370TIP3    H222526   3.612   1.996   0.044 -0.6459  0.1332 -0.3236
  371TIP3   OH222527   2.994   0.465  12.877 -0.3302  0.3884  0.6519
  371TIP3    H122528   2.992   0.560  12.861  0.7999  0.7153  2.1876
  371TIP3    H222529   2.996   0.426  12.790 -0.9989  1.7683 -0.0093
  372TIP3   OH222530   1.154   5.805   5.086  0.0637  0.7120  0.4342
  372TIP3    H122531   1.202   5.724   5.100  0.6999  0.5992 -1.8502
  372TIP3    H222532   1.068   5.790   5.124 -0.1114 -1.3871 -0.6295
  373TIP3   OH222533   1.946   4.679   1.493 -0.0660  0.7882  0.1692
  373TIP3    H122534   1.910   4.751   1.545 -1.8188  1.9457 -2.4331
  373TIP3    H222535   2.016   4.720   1.441  0.4789  0.0787  0.3362
  374TIP3   OH222536   1.336   4.613   0.124 -0.3354 -0.0534  0.2124
  374TIP3    H122537   1.406   4.586   0.184 -0.5550  1.7359  1.3329
  374TIP3    H222538   1.366   4.582   0.038  1.7181  0.4156  0.6930
  375TIP3   OH222539   5.156   5.169  11.921 -0.2352 -0.2946 -0.9726
  375TIP3    H122540   5.175   5.123  12.002 -0.0039  0.0841 -0.8112
  375TIP3    H222541   5.075   5.128  11.889 -1.5428  0.9808  0.5457
  376TIP3   OH222542   5.268   1.526  11.198  0.1523  0.0176  0.2383
  376TIP3    H122543   5.262   1.598  11.135 -1.4069 -0.4948 -0.2334
  376TIP3    H222544   5.265   1.569  11.283  0.6127  0.6001 -0.0305
  377TIP3   OH222545   1.909   6.599   1.998 -0.1770  0.2388  0.4360
  377TIP3    H122546   1.859   6.536   1.946 -1.1160 -0.3209  1.9436
  377TIP3    H222547   2.000   6.585   1.973 -0.4994 -0.8278 -0.1894
  378TIP3   OH222548   0.203   2.408  16.836 -0.3882  0.3984  0.0704
  378TIP3    H122549   0.178   2.369  16.920  0.7204 -0.7456 -0.1004
  378TIP3    H222550   0.255   2.485  16.859  0.1542 -0.0732  0.4518
  379TIP3   OH222551   0.973   1.415   2.974  0.4673 -0.2957 -0.3754
  379TIP3    H122552   0.994   1.476   3.044  1.3614 -0.7052 -0.2601
  379TIP3    H222553   0.947   1.470   2.900 -1.2232  0.1168  0.4863
  380TIP3   OH222554   0.575   0.796  16.309  0.5411  0.3881 -0.3314
  380TIP3    H122555   0.626   0.749  16.243  0.9384  1.2633 -0.6617
  380TIP3    H222556   0.491   0.812  16.267  0.1788 -0.5433  0.0030
  381TIP3   OH222557   0.048   0.525  12.857  0.0061 -0.0514  0.2145
  381TIP3    H122558  -0.017   0.455  12.858  0.3781 -0.4092 -0.3633
  381TIP3    H222559   0.114   0.497  12.921  0.0684 -0.1498  0.1079
  382TIP3   OH222560   5.592   6.594   5.085 -0.4206  0.3117  0.2114
  382TIP3    H122561   5.586   6.648   5.164  0.8276 -0.4360  0.8427
  382TIP3    H222562   5.594   6.658   5.013 -0.3465  1.0497  0.8509
  383TIP3   OH222563   3.566   5.961   2.488 -0.5055  0.1897 -0.1510
  383TIP3    H122564   3.637   5.994   2.542  0.7434 -2.7703  0.2293
  383TIP3    H222565   3.584   5.993   2.400  0.8218  0.2135  0.1165
  384TIP3   OH222566   4.480   6.750   1.492  0.2070 -0.5349  0.2152
  384TIP3    H122567   4.429   6.830   1.478  0.5764  0.2668  2.9118
  384TIP3    H222568   4.482   6.708   1.406 -0.6663  1.9375 -1.1229
  385TIP3   OH222569   6.726   4.096  13.900 -0.1787  0.4975  0.4088
  385TIP3    H122570   6.696   4.151  13.828  1.0343  0.1458 -0.3822
  385TIP3    H222571   6.821   4.095  13.892 -0.1761 -2.0911  0.1078
  386TIP3   OH222572   1.171   3.066  11.990  0.1458  0.3495  0.2447
  386TIP3    H122573   1.166   2.972  12.005 -1.4925  0.3017 -0.3927
  386TIP3    H222574   1.253   3.079  11.943 -0.0267 -0.8776 -0.4153
  387TIP3   OH222575   2.095   1.113   4.616 -0.1776  0.7786  0.8494
  387TIP3    H122576   2.134   1.199   4.599  0.0718  0.8457  1.7278
  387TIP3    H222577   2.037   1.128   4.691 -1.1835  0.4706  0.1568
  388TIP3   OH222578   3.077   3.592  16.841 -0.0479  0.1962 -0.0615
  388TIP3    H122579   3.030   3.658  16.892  0.7480  0.2700  0.5916
  388TIP3    H222580   3.059   3.616  16.750 -1.4154  0.1102  0.1538
  389TIP3   OH222581   4.480   3.933  10.937 -0.0440 -0.3711 -0.0046
  389TIP3    H122582   4.391   3.913  10.966 -0.2291 -0.7425 -0.8247
  389TIP3    H222583   4.508   4.003  10.996 -0.9303 -0.1427  0.1687
  390TIP3   OH222584   0.110   4.366   2.122 -0.5103 -0.5712 -0.0199
  390TIP3    H122585   0.185   4.417   2.091 -0.6073  1.5656  2.8345
  390TIP3    H222586   0.039   4.388   2.061  0.7101 -1.3525 -1.8047
  391TIP3   OH222587   4.159   3.938  16.454  0.1303 -0.1371 -0.4751
  391TIP3    H122588   4.200   3.867  16.404 -0.4851 -0.6533 -0.2688
  391TIP3    H222589   4.066   3.933  16.430 -0.0004  0.2620 -0.0561
  392TIP3   OH222590   6.427   6.072   2.328  0.3670  0.2557 -0.0742
  392TIP3    H122591   6.509   6.117   2.348  0.3811  1.1008 -1.8291
  392TIP3    H222592   6.420   6.077   2.232 -1.5612 -0.0953  0.0107
  393TIP3   OH222593   4.731   6.332  16.738  0.5177  0.3789 -1.0409
  393TIP3    H122594   4.751   6.271  16.667  0.9749 -0.1950 -0.4240
  393TIP3    H222595   4.802   6.321  16.801  1.3095  2.4727 -1.4961
  394TIP3   OH222596   6.070   0.878   6.049 -0.1352 -0.4723  0.2054
  394TIP3    H122597   6.018   0.844   6.122 -0.7345 -2.3495 -1.0171
  394TIP3    H222598   6.153   0.831   6.054 -0.6659 -1.6143 -1.0319
  395TIP3   OH222599   2.272   6.693   3.950 -0.2345 -0.0824  0.2557
  395TIP3    H122600   2.312   6.606   3.943 -0.3561 -0.1137 -0.0673
  395TIP3    H222601   2.264   6.708   4.044 -2.6148 -1.5293  0.3505
  396TIP3   OH222602   6.031   2.617   3.832  0.2412 -0.0100  0.2074
  396TIP3    H122603   6.054   2.705   3.863  0.5934 -0.4165  1.1170
  396TIP3    H222604   6.097   2.560   3.869 -0.6765 -0.8337  0.6264
  397TIP3   OH222605   0.043   6.211   3.260  0.3073  0.9338 -0.1172
  397TIP3    H122606   0.109   6.199   3.329 -0.2175 -0.2951  0.1820
  397TIP3    H222607   0.070   6.151   3.191 -2.1536 -1.9905  1.2602
  398TIP3   OH222608   2.034   5.252  17.010 -0.9663  0.3067  0.2264
  398TIP3    H122609   1.986   5.184  17.058 -0.0913 -1.6279 -1.4703
  398TIP3    H222610   2.028   5.329  17.065 -1.4455 -1.3246  2.6116
  399TIP3   OH222611   1.277   1.999  12.967 -0.0380  0.0262 -0.3679
  399TIP3    H122612   1.342   2.044  13.021 -0.5771  0.4580 -0.0851
  399TIP3    H222613   1.285   2.041  12.881 -1.0175  1.1508  0.0709
  400TIP3   OH222614   5.134   1.006  13.882 -0.1573 -0.2837  0.1227
  400TIP3    H122615   5.187   1.059  13.941 -1.7171 -1.1045  2.4071
  400TIP3    H222616   5.197   0.964  13.823  1.4688  0.6354  1.1489
  401TIP3   OH222617   0.886   2.394  14.992  0.0895 -0.3542 -0.1997
  401TIP3    H122618   0.858   2.484  15.003 -0.9177 -0.9366  3.1285
  401TIP3    H222619   0.982   2.398  14.993  0.0534  0.6355  0.3419
  402TIP3   OH222620   3.929   5.869   1.399  0.1786  0.0755 -0.2361
  402TIP3    H122621   3.934   5.874   1.303  0.2086  0.0565 -0.2355
  402TIP3    H222622   3.939   5.960   1.428 -0.7927  0.2197 -0.2948
  403TIP3   OH222623   4.049   5.099  15.989 -0.1113  0.1460 -0.7447
  403TIP3    H122624   3.963   5.056  15.996  0.5882 -1.0800  1.1981
  403TIP3    H222625   4.030   5.192  16.004 -0.9275 -0.3520  1.7651
  404TIP3   OH222626   1.709   1.117  11.431 -0.4839 -0.5626 -0.1794
  404TIP3    H122627   1.648   1.145  11.499 -1.5191 -1.0361 -0.8849
  404TIP3    H222628   1.790   1.097  11.478 -1.0623 -0.5108  0.8632
  405TIP3   OH222629   2.868   0.751   4.295  0.2221 -0.8054  0.3888
  405TIP3    H122630   2.844   0.760   4.387 -1.6919 -1.3010 -0.0047
  405TIP3    H222631   2.803   0.689   4.260 -0.0883  0.5718 -1.6173
  406TIP3   OH222632   5.195   0.841  11.871  0.6783  0.4586 -0.2120
  406TIP3    H122633   5.129   0.909  11.886  1.0612  0.5455  1.1961
  406TIP3    H222634   5.161   0.764  11.916  0.5761 -0.0985 -1.2209
  407TIP3   OH222635   2.976   5.472   1.953  0.4435  0.2927 -0.2989
  407TIP3    H122636   3.005   5.555   1.990 -0.5241  0.1732  0.7730
  407TIP3    H222637   3.038   5.454   1.882  0.7130  1.8787 -0.4922
  408TIP3   OH222638   6.301   4.476   1.233 -0.1921  0.1459 -0.1797
  408TIP3    H122639   6.337   4.561   1.207  0.6310 -0.1743 -0.1222
  408TIP3    H222640   6.207   4.492   1.244 -0.2029  0.8243 -1.1049
  409TIP3   OH222641   5.786   2.355   1.530 -0.3709  0.3018  0.6538
  409TIP3    H122642   5.728   2.288   1.493  0.3054  0.1381 -0.1512
  409TIP3    H222643   5.828   2.312   1.604  0.2689 -0.2837 -0.0236
  410TIP3   OH222644   1.222   3.553  12.457  0.2074 -0.2241 -0.3499
  410TIP3    H122645   1.286   3.482  12.470 -0.2800 -0.5989  0.0596
  410TIP3    H222646   1.275   3.630  12.440  0.7556 -0.6833 -0.7814
  411TIP3   OH222647   0.622   6.048  15.799 -0.2913 -0.0226  0.0976
  411TIP3    H122648   0.564   6.124  15.786 -1.1649 -0.7982 -0.7268
  411TIP3    H222649   0.600   6.016  15.886 -1.7281 -0.8031 -0.5283
  412TIP3   OH222650   1.848   5.499   6.020 -0.3966  0.5630 -0.4362
  412TIP3    H122651   1.787   5.558   6.063 -0.7444  1.2429 -1.8232
  412TIP3    H222652   1.853   5.530   5.930 -0.1596 -1.1738 -1.0700
  413TIP3   OH222653   6.083   1.126   0.964 -0.6103 -0.4363 -0.5562
  413TIP3    H122654   6.132   1.086   1.036 -0.5279  0.6870  0.0263
  413TIP3    H222655   6.104   1.219   0.969 -0.1310 -0.4021 -2.4108
  414TIP3   OH222656   1.392   1.494  16.689 -0.7177  0.1976 -0.1056
  414TIP3    H122657   1.332   1.460  16.755 -1.2716 -2.0929 -1.6585
  414TIP3    H222658   1.467   1.526  16.738 -1.9127  0.2918  1.7170
  415TIP3   OH222659   0.155   2.644   6.239  0.8445  0.0275  0.2533
  415TIP3    H122660   0.206   2.713   6.196 -0.8778  1.0807 -0.1852
  415TIP3    H222661   0.095   2.691   6.297 -1.4030 -0.9591 -1.1489
  416TIP3   OH222662   1.758   0.974  14.519  0.2123  0.1050  0.1979
  416TIP3    H122663   1.787   0.953  14.608 -0.1216  3.8040  1.3518
  416TIP3    H222664   1.669   1.008  14.530 -0.2597 -0.4105 -1.7249
  417TIP3   OH222665   1.267   2.859   4.264 -0.0415 -0.2070 -0.5345
  417TIP3    H122666   1.270   2.830   4.173 -0.5441 -0.7768 -0.3748
  417TIP3    H222667   1.208   2.934   4.264 -0.4551 -0.5337 -0.5893
  418TIP3   OH222668   1.131   5.204   5.906  0.2319  0.6224  0.6030
  418TIP3    H122669   1.098   5.282   5.950 -2.9937 -1.1678  1.6454
  418TIP3    H222670   1.091   5.206   5.819  1.2550  0.7798  0.1170
  419TIP3   OH222671   1.543   1.232  16.814 -0.0605 -0.1240 -0.3948
  419TIP3    H122672   1.565   1.289  16.889  2.0789 -2.2509  0.7409
  419TIP3    H222673   1.596   1.266  16.742  1.9043 -1.0843  0.5147
  420TIP3   OH222674   0.398   6.541  16.898  0.1362 -0.4262 -0.0701
  420TIP3    H122675   0.421   6.514  16.987  1.1451 -1.9467 -0.7431
  420TIP3    H222676   0.463   6.607  16.875  0.0915 -0.2881  0.1996
  421TIP3   OH222677   5.879   3.071  12.043 -0.6185  0.0347 -0.1239
  421TIP3    H122678   5.899   3.159  12.076  1.2522 -0.3841 -0.0538
  421TIP3    H222679   5.946   3.054  11.978 -1.4708 -1.0330 -0.7500
  422TIP3   OH222680   6.581   6.004   0.132  0.0382  0.3174  0.0692
  422TIP3    H122681   6.504   6.056   0.111 -1.0096 -1.4043 -0.5397
  422TIP3    H222682   6.648   6.069   0.154 -1.0578  1.9171 -1.0748
  423TIP3   OH222683   1.335   2.104  15.861 -0.3566 -0.5417 -0.1021
  423TIP3    H122684   1.385   2.022  15.857  0.7543  0.0520  0.8528
  423TIP3    H222685   1.391   2.162  15.912 -1.1646  0.7944 -0.7080
  424TIP3   OH222686   2.347   4.616   6.008 -0.2617  0.0444  0.4592
  424TIP3    H122687   2.357   4.684   6.074 -1.8158 -0.2585  1.0527
  424TIP3    H222688   2.366   4.535   6.054 -1.1772 -0.1526  0.5226
  425TIP3   OH222689   3.374   4.429  14.137  0.0004  0.2314 -0.2758
  425TIP3    H122690   3.286   4.449  14.102 -0.6272  2.0541  2.0757
  425TIP3    H222691   3.410   4.366  14.075 -3.6601 -2.0549 -0.4081
  426TIP3   OH222692   1.927   2.427   0.204  0.2963  0.0517  0.1784
  426TIP3    H122693   1.893   2.363   0.141 -0.1300  0.7967 -0.3575
  426TIP3    H222694   2.007   2.386   0.239 -0.7985 -1.4557  1.0221
  427TIP3   OH222695   0.712   1.197   6.279  0.2772  0.0340  0.5662
  427TIP3    H122696   0.733   1.279   6.234 -1.8183  0.6207  0.5838
  427TIP3    H222697   0.767   1.198   6.357 -1.1015  2.4089  1.6061
  428TIP3   OH222698   3.502   0.602   3.293 -0.0030 -0.1360  0.3703
  428TIP3    H122699   3.505   0.693   3.261  0.6121 -0.2516  0.0877
  428TIP3    H222700   3.566   0.600   3.365 -0.2470 -0.2679  0.5843
  429TIP3   OH222701   2.839   2.396   2.155 -0.1852 -0.3504 -0.2867
  429TIP3    H122702   2.878   2.475   2.190 -0.4386  0.7033 -2.2200
  429TIP3    H222703   2.781   2.364   2.224 -0.1475  1.1869  0.4876
  430TIP3   OH222704   3.706   6.238  12.014 -0.0892 -0.2884 -0.4986
  430TIP3    H122705   3.641   6.193  11.960  1.4205 -2.0292 -0.9808
  430TIP3    H222706   3.749   6.299  11.954 -0.3875 -0.0779 -0.5021
  431TIP3   OH222707   5.427   6.578  13.346 -0.1224  0.3288  0.2024
  431TIP3    H122708   5.509   6.545  13.384 -0.3203 -3.4449 -2.0902
  431TIP3    H222709   5.452   6.611  13.260 -0.8923 -0.6428 -0.4237
  432TIP3   OH222710   4.024   5.847   3.960 -0.2183  0.1542  0.4124
  432TIP3    H122711   4.104   5.878   3.920  0.8722 -1.9146  0.8512
  432TIP3    H222712   3.998   5.771   3.908 -0.5393 -0.6455  1.6916
  433TIP3   OH222713   3.336   1.607  16.921  0.7209 -0.3431 -0.5617
  433TIP3    H122714   3.276   1.558  16.977  0.5813  0.8378  0.3573
  433TIP3    H222715   3.420   1.563  16.932  0.4438 -0.8197 -0.3136
  434TIP3   OH222716   4.479   4.668   1.194  0.1720 -0.8116 -0.2976
  434TIP3    H122717   4.564   4.685   1.234 -0.2092 -0.8671  0.5730
  434TIP3    H222718   4.426   4.744   1.218  0.0799 -0.6020 -1.1473
  435TIP3   OH222719   4.739   5.506  16.561  0.3839 -0.2820  0.3301
  435TIP3    H122720   4.659   5.453  16.564 -0.3510  0.5551 -2.0831
  435TIP3    H222721   4.708   5.596  16.568  1.4226 -0.0274  2.2154
  436TIP3   OH222722   2.101   4.675  11.752 -0.2081  0.4956 -0.8120
  436TIP3    H122723   2.059   4.742  11.700 -0.4967 -0.2875 -1.6126
  436TIP3    H222724   2.098   4.708  11.842 -1.1659  1.1253 -1.0686
  437TIP3   OH222725   0.061   2.405   6.138 -0.6848  0.1386 -0.2085
  437TIP3    H122726  -0.021   2.383   6.181 -0.6271  0.8983  0.3088
  437TIP3    H222727   0.082   2.493   6.169  1.4645 -0.8648  1.4082
  438TIP3   OH222728   4.032   3.349   4.238  0.3884  0.2949  0.2740
  438TIP3    H122729   3.996   3.396   4.163 -0.3603  0.4012  0.6842
  438TIP3    H222730   4.001   3.398   4.314  2.7941  1.3650  0.6418
  439TIP3   OH222731   3.585   6.175   0.643  0.0738 -0.1829 -0.1726
  439TIP3    H122732   3.589   6.254   0.698 -0.3232  0.7694 -1.4723
  439TIP3    H222733   3.673   6.140   0.645  0.2139  0.1847  0.5699
  440TIP3   OH222734   6.309   3.420   2.940 -0.2241  0.9583  0.5089
  440TIP3    H122735   6.330   3.461   2.856 -0.1214  0.2532  0.1845
  440TIP3    H222736   6.279   3.492   2.995 -0.1977  1.4433 -0.1035
  441TIP3   OH222737   4.820   3.085  13.796 -0.0312 -0.3544  0.5361
  441TIP3    H122738   4.887   3.019  13.778  0.3792 -0.0239  0.8139
  441TIP3    H222739   4.791   3.114  13.709 -0.7485 -1.4154  0.4019
  442TIP3   OH222740   1.830   6.512  14.256 -0.0621 -0.6713  0.3673
  442TIP3    H122741   1.901   6.496  14.194  0.2303 -0.0103  0.5226
  442TIP3    H222742   1.750   6.508  14.204  0.1507 -0.5339  0.0269
  443TIP3   OH222743   1.810   2.560   2.348  0.3232  0.3729 -0.1887
  443TIP3    H122744   1.739   2.620   2.368 -0.6737  0.0586 -2.4242
  443TIP3    H222745   1.789   2.481   2.398 -0.4299  0.5882 -0.1490
  444TIP3   OH222746   1.159   1.164  11.169  0.1539  0.2116 -0.0863
  444TIP3    H122747   1.155   1.240  11.228  1.2736  0.0516  0.2240
  444TIP3    H222748   1.239   1.178  11.118  1.3833 -1.6259  1.2283
  445TIP3   OH222749   2.327   4.189  10.572  0.0335 -0.5674  0.1573
  445TIP3    H122750   2.267   4.158  10.640 -0.7018  0.1987 -0.1280
  445TIP3    H222751   2.293   4.275  10.547  1.7631  0.2961  0.6091
  446TIP3   OH222752   2.935   6.135  16.788 -0.1837  0.6803  0.1481
  446TIP3    H122753   2.992   6.163  16.716  0.1828 -0.0892  0.1245
  446TIP3    H222754   2.849   6.168  16.765 -0.2201 -0.1506 -1.0036
  447TIP3   OH222755   0.158   0.183  13.624  0.3216 -0.0402 -0.3616
  447TIP3    H122756   0.205   0.264  13.604 -0.0534  0.4046  0.5164
  447TIP3    H222757   0.067   0.202  13.601  0.0364  0.1818  0.9123
  448TIP3   OH222758   4.771   0.309  13.926  0.4734  0.4735  0.4849
  448TIP3    H122759   4.732   0.281  13.844  0.0756 -0.1210  0.8779
  448TIP3    H222760   4.863   0.284  13.918  0.3586  0.0852  0.3747
  449TIP3   OH222761   4.521   1.580   6.279 -0.1189 -0.6371  0.0024
  449TIP3    H122762   4.565   1.496   6.293  1.0169 -0.0153  0.3127
  449TIP3    H222763   4.589   1.646   6.296 -0.5383  0.3226 -1.7852
  450TIP3   OH222764   3.283   1.061   0.466  0.0718 -0.2691 -0.5524
  450TIP3    H122765   3.196   1.101   0.470 -0.5791 -1.6020 -0.9061
  450TIP3    H222766   3.318   1.088   0.381  0.1883  0.6238 -0.2267
  451TIP3   OH222767   2.182   2.692  12.469  0.1341  0.9111  0.3077
  451TIP3    H122768   2.119   2.678  12.540  1.1378 -0.8947  0.9148
  451TIP3    H222769   2.249   2.625  12.484  0.3828  0.4810 -2.3706
  452TIP3   OH222770   2.449   3.769  14.269  1.1454  0.5575  0.1163
  452TIP3    H122771   2.370   3.822  14.261  2.1412  1.8610 -1.6949
  452TIP3    H222772   2.507   3.820  14.325  1.1079  0.0856  0.5959
  453TIP3   OH222773   2.872   2.374   1.022  0.1532 -0.1556 -0.9338
  453TIP3    H122774   2.937   2.331   0.967  0.3248  0.6697 -1.3888
  453TIP3    H222775   2.917   2.450   1.058  0.2295 -0.9832  0.8364
  454TIP3   OH222776   0.044   6.337   6.367 -0.3349 -0.4408 -0.2497
  454TIP3    H122777   0.048   6.243   6.383  0.0794 -0.4487 -0.3792
  454TIP3    H222778   0.045   6.377   6.453 -0.0285 -0.5412 -0.2064
  455TIP3   OH222779   0.376   5.772   3.247 -0.4413 -0.2548  0.1487
  455TIP3    H122780   0.385   5.817   3.163  0.5269 -1.1707 -0.2562
  455TIP3    H222781   0.331   5.835   3.303 -0.6243  0.5708 -0.8976
  456TIP3   OH222782   0.503   5.361   4.716 -0.5897  0.3313  0.0755
  456TIP3    H122783   0.529   5.349   4.807 -0.8599  0.3750  0.1585
  456TIP3    H222784   0.510   5.455   4.701  0.6148  0.1960 -0.3001
  457TIP3   OH222785   5.242   3.392   4.795  0.1198 -0.3018  0.1695
  457TIP3    H122786   5.259   3.322   4.732 -1.6867 -0.3799 -0.2849
  457TIP3    H222787   5.311   3.383   4.860  1.0483 -1.2815 -0.9033
  458TIP3   OH222788   3.141   4.944  12.180  0.1708  0.5346 -0.4524
  458TIP3    H122789   3.112   4.854  12.197  0.9529  0.4989  0.9334
  458TIP3    H222790   3.218   4.934  12.123 -0.7540  0.4489 -1.7068
  459TIP3   OH222791   4.899   2.704  15.300  0.3384  0.1600  0.0382
  459TIP3    H122792   4.814   2.680  15.338  0.4177  0.6120  0.5149
  459TIP3    H222793   4.947   2.743  15.373  1.0854 -0.3957 -0.1447
  460TIP3   OH222794   1.764   2.970   4.895  0.2916 -0.0098  0.0068
  460TIP3    H122795   1.727   3.031   4.831  1.0575 -0.1916 -0.6179
  460TIP3    H222796   1.728   2.884   4.870 -0.7345  0.1547  0.8462
  461TIP3   OH222797   2.483   5.275   4.381 -0.3561  0.7510  0.4403
  461TIP3    H122798   2.521   5.189   4.398 -0.6482  0.8273  1.5567
  461TIP3    H222799   2.499   5.290   4.288 -2.8949 -1.8193 -0.5860
  462TIP3   OH222800   6.215   2.710  11.137  0.1343 -0.3726  0.3814
  462TIP3    H122801   6.193   2.770  11.209  1.9506 -2.0729  2.5156
  462TIP3    H222802   6.311   2.715  11.131  0.2786 -2.5037  0.1878
  463TIP3   OH222803   2.263   5.090  15.035  0.2071 -0.2385  0.2102
  463TIP3    H122804   2.201   5.136  14.978 -2.6469 -3.9893 -0.1328
  463TIP3    H222805   2.347   5.100  14.991 -0.6310  2.5330 -1.0229
  464TIP3   OH222806   5.775   6.300  12.853  0.2173 -0.3941  0.4284
  464TIP3    H122807   5.747   6.270  12.767  0.7653 -0.4658  0.2760
  464TIP3    H222808   5.800   6.391  12.841  1.6429 -0.7901  0.1995
  465TIP3   OH222809   5.179   2.665  15.897  0.1937 -0.0419 -0.5624
  465TIP3    H122810   5.132   2.731  15.947  0.4600  0.6218 -1.1753
  465TIP3    H222811   5.110   2.620  15.847 -0.0741 -0.7087  0.3679
  466TIP3   OH222812   5.972   1.403  14.182 -0.0448 -0.1172  0.3197
  466TIP3    H122813   5.900   1.437  14.127 -0.2276  2.2351  1.8675
  466TIP3    H222814   5.995   1.319  14.142 -1.6910  0.4177 -1.9633
  467TIP3   OH222815   4.863   1.970  16.880  0.4906  0.2463 -0.4935
  467TIP3    H122816   4.942   1.920  16.901  1.2566  1.4771 -0.3402
  467TIP3    H222817   4.896   2.051  16.841 -0.7268  0.5172 -0.9830
  468TIP3   OH222818   0.702   4.177  14.061 -0.3679 -0.1582  0.0703
  468TIP3    H122819   0.692   4.271  14.043  2.5548  0.3554  0.4842
  468TIP3    H222820   0.666   4.165  14.148 -1.0028  0.5199 -0.0896
  469TIP3   OH222821   3.857   2.964   0.173  0.1492  0.0203 -0.3255
  469TIP3    H122822   3.845   2.910   0.251  0.6046  0.9460  0.4021
  469TIP3    H222823   3.948   2.993   0.177  1.1325 -2.2404 -2.7570
  470TIP3   OH222824   2.812   3.067  11.224 -0.0584  0.0189 -0.3902
  470TIP3    H122825   2.796   2.986  11.176  1.3349 -1.0119  0.8145
  470TIP3    H222826   2.794   3.045  11.315  0.6666  0.9657 -0.0013
  471TIP3   OH222827   1.187   4.765   2.653 -1.0588  0.1797 -0.2939
  471TIP3    H122828   1.212   4.677   2.625 -1.0801 -0.1883  0.7668
  471TIP3    H222829   1.143   4.803   2.577 -0.4111 -0.4546 -1.0068
  472TIP3   OH222830   0.984   4.340   4.670 -0.2886 -0.0432 -0.0742
  472TIP3    H122831   1.029   4.424   4.683  0.4574 -0.0683 -2.0539
  472TIP3    H222832   0.991   4.295   4.754  0.2566  1.4313  0.7040
  473TIP3   OH222833   2.951   2.092  13.571  0.2310  0.3449 -0.2294
  473TIP3    H122834   3.030   2.111  13.622  0.5653  0.7988 -0.8975
  473TIP3    H222835   2.919   2.009  13.607  0.0316  1.0164  1.2135
  474TIP3   OH222836   1.260   5.627  17.057  0.5533 -0.1725  0.0340
  474TIP3    H122837   1.213   5.641  16.974  1.4875  0.1583 -0.4454
  474TIP3    H222838   1.331   5.690  17.056  0.6587 -0.2551  1.0416
  475TIP3   OH222839   0.117   1.102   1.452  0.2652 -0.2125 -0.4082
  475TIP3    H122840   0.126   1.064   1.364 -0.3587  0.7301 -0.8977
  475TIP3    H222841   0.198   1.150   1.466  0.8152 -1.2387 -0.0226
  476TIP3   OH222842   1.388   4.635  15.268  0.5167  0.1237 -0.1019
  476TIP3    H122843   1.415   4.566  15.330 -1.2206  0.0859  0.6717
  476TIP3    H222844   1.373   4.588  15.186 -1.3140 -0.5988  0.5939
  477TIP3   OH222845   4.710   4.009   1.585 -0.1106 -0.8113  0.0094
  477TIP3    H122846   4.630   4.030   1.633 -0.9498 -2.2298 -0.7093
  477TIP3    H222847   4.685   4.018   1.492  0.0619 -2.8671 -0.2633
  478TIP3   OH222848   2.348   0.766   0.883  0.4647 -0.3930  0.2856
  478TIP3    H122849   2.367   0.711   0.959 -0.2306  0.0107  0.7653
  478TIP3    H222850   2.316   0.848   0.920 -0.6192 -0.4610 -0.4433
  479TIP3   OH222851   0.381   1.540  11.617 -0.4231 -0.1562  0.0442
  479TIP3    H122852   0.451   1.533  11.683 -0.6084 -0.0340  0.2544
  479TIP3    H222853   0.428   1.538  11.534  0.0519  2.0192  0.1906
  480TIP3   OH222854   4.862   5.753   1.495  0.1046  0.1859 -0.5269
  480TIP3    H122855   4.955   5.733   1.507  0.3670  2.0376  1.0017
  480TIP3    H222856   4.826   5.757   1.583 -1.4614 -0.5160 -1.0933
  481TIP3   OH222857   1.761   0.230   3.909  0.4146 -0.5307 -0.7325
  481TIP3    H122858   1.827   0.219   3.978  0.7618 -1.4145 -1.1798
  481TIP3    H222859   1.697   0.290   3.946  1.8186  0.9204 -0.5483
  482TIP3   OH222860   2.847   1.974   3.436  0.2876  0.2196  0.4661
  482TIP3    H122861   2.854   2.030   3.358 -0.9584 -0.8185 -0.4394
  482TIP3    H222862   2.929   1.924   3.437  0.1472 -0.0555 -0.4486
  483TIP3   OH222863   3.419   1.054  17.007  0.5232  0.2690  0.0326
  483TIP3    H122864   3.348   1.029  17.066  0.3290 -1.3409 -0.8181
  483TIP3    H222865   3.495   1.063  17.064  0.2456 -0.8073  0.6063
  484TIP3   OH222866   0.342   2.452  15.590  0.1968 -0.4868  0.9559
  484TIP3    H122867   0.332   2.540  15.553  1.4830 -0.0710  1.5210
  484TIP3    H222868   0.301   2.458  15.676 -0.5033 -0.7062  0.6422
  485TIP3   OH222869   5.563   1.856   5.554  0.0014  0.4214 -0.2752
  485TIP3    H122870   5.519   1.932   5.516 -1.2212 -0.4805 -0.7465
  485TIP3    H222871   5.646   1.850   5.508 -0.1488  1.1409 -0.6402
  486TIP3   OH222872   0.050   6.425  15.877  0.0590 -0.2674 -0.5939
  486TIP3    H122873  -0.020   6.361  15.869 -0.9041  0.2965  2.0050
  486TIP3    H222874   0.006   6.509  15.863  0.6668 -0.0205 -1.0293
  487TIP3   OH222875   6.442   2.829   2.068  0.1254  0.2813  0.5417
  487TIP3    H122876   6.439   2.740   2.103  0.3876  0.3135  0.6491
  487TIP3    H222877   6.380   2.879   2.121 -1.9886 -0.3889 -1.1274
  488TIP3   OH222878   3.885   2.340  16.942  0.5902  0.2012  0.0501
  488TIP3    H122879   3.963   2.287  16.956  0.9554  1.1505  1.8176
  488TIP3    H222880   3.898   2.378  16.855  2.1314  0.3652  0.3189
  489TIP3   OH222881   3.821   3.019  11.348  0.0954 -0.1074 -0.2225
  489TIP3    H122882   3.907   3.059  11.336 -0.1744  0.6208  0.1992
  489TIP3    H222883   3.797   3.040  11.438 -0.4808 -0.3824 -0.3052
  490TIP3   OH222884   4.851   1.653  11.283 -0.1578  0.3205 -0.6077
  490TIP3    H122885   4.766   1.637  11.242 -0.9721 -0.1231  1.1322
  490TIP3    H222886   4.858   1.749  11.286 -1.5890  0.4393  1.0050
  491TIP3   OH222887   1.857   6.587  13.722 -0.2570  0.1310 -0.3497
  491TIP3    H122888   1.869   6.522  13.791 -0.8531  1.4821  1.0993
  491TIP3    H222889   1.912   6.557  13.651  1.8077 -0.4371  1.3735
  492TIP3   OH222890   4.507   2.528  15.789  0.2089 -0.0847 -0.3793
  492TIP3    H122891   4.587   2.495  15.829 -0.5061  0.7291  1.8493
  492TIP3    H222892   4.536   2.585  15.718  1.6761  1.3769  1.3181
  493TIP3   OH222893   5.306   3.385   2.264  0.2181 -0.3557  0.3681
  493TIP3    H122894   5.225   3.390   2.214 -0.1946 -1.4169  0.8938
  493TIP3    H222895   5.370   3.348   2.203 -0.3530 -1.9111  0.6727
  494TIP3   OH222896   1.173   6.741  15.058 -0.2405  0.0586 -0.3616
  494TIP3    H122897   1.178   6.712  15.149  1.6219 -0.3560 -0.5591
  494TIP3    H222898   1.149   6.833  15.063 -1.3233 -0.2573  0.4896
  495TIP3   OH222899   3.277   1.148   5.714 -0.2693 -0.7025 -0.0921
  495TIP3    H122900   3.289   1.139   5.808 -1.5636  0.3161  0.1965
  495TIP3    H222901   3.328   1.226   5.691  1.6951 -2.0690 -0.6251
  496TIP3   OH222902   1.360   1.308  14.810  0.2620 -0.7677  0.2578
  496TIP3    H122903   1.309   1.379  14.849  0.1740  0.6756 -2.2710
  496TIP3    H222904   1.432   1.293  14.872 -0.5502  0.4847  1.5574
  497TIP3   OH222905   6.372   3.281  15.324  0.6007  0.2580  0.1268
  497TIP3    H122906   6.424   3.201  15.329 -1.8903 -1.4590  0.4444
  497TIP3    H222907   6.325   3.274  15.240  0.8478  1.7491 -0.1644
  498TIP3   OH222908   1.662   4.036   4.832 -0.0797  0.0269 -0.0061
  498TIP3    H122909   1.746   4.032   4.787  0.2403  1.2443  0.4287
  498TIP3    H222910   1.658   4.126   4.866 -3.0126  1.1080 -2.7649
  499TIP3   OH222911   2.715   3.705   0.088 -0.2939 -0.2693  0.8176
  499TIP3    H122912   2.741   3.789   0.126 -0.3919  1.7444 -3.0368
  499TIP3    H222913   2.791   3.677   0.037 -0.7837 -1.8062  0.8945
  500TIP3   OH222914   6.119   5.387   5.448 -0.8199  0.1660  0.4633
  500TIP3    H122915   6.185   5.440   5.403 -1.1540 -0.5094 -0.9029
  500TIP3    H222916   6.063   5.451   5.492 -0.1526  0.8384  0.3502
  501TIP3   OH222917   1.153   1.442   0.856  0.6107 -0.6466 -0.2686
  501TIP3    H122918   1.144   1.353   0.890  0.4095 -0.7058 -0.4696
  501TIP3    H222919   1.067   1.462   0.819  0.4623 -0.1267  0.3406
  502TIP3   OH222920   2.341   2.895  15.214 -0.1557 -0.0827  0.1529
  502TIP3    H122921   2.427   2.901  15.254 -1.1770  0.0673  2.5207
  502TIP3    H222922   2.297   2.824  15.262 -2.3748  1.9113  1.2734
  503TIP3   OH222923   4.801   3.166   1.224 -0.2598  0.0892 -0.0526
  503TIP3    H122924   4.736   3.113   1.272  0.6813 -2.5025 -1.4587
  503TIP3    H222925   4.751   3.204   1.151 -0.5706 -0.4440 -0.1246
  504TIP3   OH222926   5.646   3.626  15.600 -0.1898 -0.2334 -0.2458
  504TIP3    H122927   5.684   3.549  15.640 -0.7215 -0.1289  0.4920
  504TIP3    H222928   5.715   3.692  15.602 -0.4138 -0.0177  1.1510
  505TIP3   OH222929   1.911   1.293   5.096 -0.0160  0.2983  0.3640
  505TIP3    H122930   1.952   1.244   5.024 -0.6098  1.7707 -1.0360
  505TIP3    H222931   1.942   1.250   5.175  0.0895 -1.8531 -0.7763
  506TIP3   OH222932   3.914   6.377  15.678  0.6583 -0.4508 -0.0759
  506TIP3    H122933   3.872   6.300  15.640 -1.2078  0.9837 -1.1043
  506TIP3    H222934   3.995   6.388  15.627  0.3851 -1.0839 -0.6558
  507TIP3   OH222935   4.057   6.281   5.745 -0.0857 -0.7040 -0.2499
  507TIP3    H122936   3.977   6.281   5.798 -0.7157 -1.3795 -1.1575
  507TIP3    H222937   4.075   6.188   5.728  0.1856 -0.5142 -1.0663
  508TIP3   OH222938   3.812   4.047  13.080  0.1779 -0.0736 -0.1206
  508TIP3    H122939   3.729   4.075  13.041  0.5037 -0.9187 -1.5034
  508TIP3    H222940   3.806   3.951  13.081  0.8786 -0.1199  0.3862
  509TIP3   OH222941   6.739   1.569   4.081 -0.5061 -0.3598 -0.6477
  509TIP3    H122942   6.795   1.631   4.127 -0.5082 -0.7260 -0.1476
  509TIP3    H222943   6.795   1.534   4.011 -0.6148  0.4624 -1.1735
  510TIP3   OH222944   5.395   6.497   5.657  0.6038 -0.1035 -1.1808
  510TIP3    H122945   5.368   6.522   5.569  0.2021  1.2572 -0.6814
  510TIP3    H222946   5.484   6.464   5.646  0.0286 -1.3517 -2.3039
  511TIP3   OH222947   2.155   3.244   3.642  0.2619 -0.2985  0.3959
  511TIP3    H122948   2.209   3.165   3.645  2.8120  1.3140 -0.1534
  511TIP3    H222949   2.125   3.250   3.551  2.3803  0.7260 -0.3035
  512TIP3   OH222950   4.338   1.789  16.881  0.0440  0.1430  0.4372
  512TIP3    H122951   4.380   1.836  16.809  0.1768 -1.3896 -0.5153
  512TIP3    H222952   4.251   1.767  16.848  0.3359 -1.1390  0.4977
  513TIP3   OH222953   0.680   3.143  17.253 -0.3354  0.0374 -0.1104
  513TIP3    H122954   0.653   3.112  17.340 -1.0645  1.8551  0.3551
  513TIP3    H222955   0.761   3.190  17.269 -0.9446  1.1560 -0.2469
  514TIP3   OH222956   6.073   0.600   0.353  0.0053 -0.4272 -0.3189
  514TIP3    H122957   6.091   0.597   0.259 -0.3861 -2.9104 -0.4005
  514TIP3    H222958   5.978   0.613   0.358  0.1138  0.3420 -0.2463
  515TIP3   OH222959   3.544   2.612  14.236  0.1742 -0.5031 -0.2253
  515TIP3    H122960   3.546   2.523  14.201 -0.1768 -1.5809  2.2891
  515TIP3    H222961   3.630   2.624  14.275  0.4552  0.5472 -1.1376
  516TIP3   OH222962   6.034   1.596  15.790 -0.2481  0.2113  0.3389
  516TIP3    H122963   6.013   1.600  15.696 -0.5065 -1.7801  0.2739
  516TIP3    H222964   5.960   1.639  15.833 -0.6928  0.1157 -0.3113
  517TIP3   OH222965   1.037   2.615   2.870 -0.0255 -0.3634  0.3930
  517TIP3    H122966   0.999   2.677   2.808  1.7945 -0.6480 -1.0894
  517TIP3    H222967   1.036   2.660   2.954  0.4079  1.3133 -0.4730
  518TIP3   OH222968   0.755   0.932  17.113 -0.3718 -0.0837 -0.1489
  518TIP3    H122969   0.819   0.980  17.165 -0.8451 -1.5718  1.9223
  518TIP3    H222970   0.679   0.989  17.109  0.4611  1.0011 -1.2210
  519TIP3   OH222971   4.223   2.127  14.436 -0.8494  0.4283  0.3649
  519TIP3    H122972   4.305   2.080  14.452 -0.8016 -0.0091 -1.0035
  519TIP3    H222973   4.195   2.158  14.522  0.8577  0.7574  0.8376
  520TIP3   OH222974   3.689   6.037   1.585 -0.3152 -0.3974 -0.3853
  520TIP3    H122975   3.697   6.131   1.566 -0.6766 -0.4411 -0.7628
  520TIP3    H222976   3.756   6.021   1.651 -1.8811  0.6372  1.5843
  521TIP3   OH222977   3.823   0.602   1.373  0.1182  0.6002  0.2138
  521TIP3    H122978   3.871   0.579   1.294  0.2498  1.4319  0.0424
  521TIP3    H222979   3.762   0.529   1.386  0.3570  0.2771 -0.4374
  522TIP3   OH222980   4.491   2.397   3.610  0.2964 -0.4880  0.3350
  522TIP3    H122981   4.417   2.419   3.666  0.8205  0.6763  0.5877
  522TIP3    H222982   4.452   2.366   3.528 -0.4622 -1.0199  0.8867
  523TIP3   OH222983   6.324   2.252  13.348  0.0139  0.5907 -0.0024
  523TIP3    H122984   6.296   2.260  13.439  0.9464  1.2923  0.2335
  523TIP3    H222985   6.364   2.165  13.343 -0.8065  0.1924  0.0211
  524TIP3   OH222986   1.031   0.773   2.330 -0.0560 -0.1524 -0.2333
  524TIP3    H122987   1.013   0.742   2.241 -0.9593 -0.4903  0.0618
  524TIP3    H222988   1.098   0.840   2.318 -0.7273  0.3688 -1.2561
  525TIP3   OH222989   5.938   0.410   3.530 -0.0813  0.1649 -0.1033
  525TIP3    H122990   5.923   0.320   3.499  1.1429 -1.0630  2.5748
  525TIP3    H222991   5.858   0.456   3.507 -0.6964 -1.5526 -1.6939
  526TIP3   OH222992   6.641   4.417  12.786  0.1764  0.5428  0.2781
  526TIP3    H122993   6.604   4.328  12.789  2.4761 -0.4589  0.8074
  526TIP3    H222994   6.628   4.445  12.696 -0.4367 -0.3897  0.0614
  527TIP3   OH222995   2.129   1.863  13.773  0.1247  0.3445 -0.2335
  527TIP3    H122996   2.102   1.912  13.696 -0.1440  0.6473  0.0526
  527TIP3    H222997   2.112   1.771  13.751  0.9407  0.3445 -0.8957
  528TIP3   OH222998   1.694   1.905   0.120 -0.1233  1.1023  0.0842
  528TIP3    H122999   1.599   1.909   0.129  0.0070  1.1832  1.6998
  528TIP3    H223000   1.715   1.812   0.119 -0.1723  1.0893  0.3032
  529TIP3   OH223001   4.119   3.009  12.856 -0.7425 -0.0589 -0.4292
  529TIP3    H123002   4.210   3.038  12.858 -0.9009  0.4260  0.9577
  529TIP3    H223003   4.105   2.969  12.942 -1.7736 -0.3336 -0.7138
  530TIP3   OH223004   2.982   3.666   3.119  0.1485  0.2631 -0.1966
  530TIP3    H123005   2.906   3.620   3.155 -1.6747  1.8776 -1.7786
  530TIP3    H223006   2.991   3.631   3.030  0.2636  1.2089 -0.5661
  531TIP3   OH223007   5.918   0.870  11.966 -0.8785  0.0109  0.3923
  531TIP3    H123008   5.929   0.793  12.021  0.3880  0.2669  0.5086
  531TIP3    H223009   6.005   0.907  11.957 -1.0864  0.1324 -1.5914
  532TIP3   OH223010   2.524   5.926   5.558 -0.8456  0.0563  0.1826
  532TIP3    H123011   2.485   5.917   5.471  0.6656 -1.1482 -0.4098
  532TIP3    H223012   2.619   5.930   5.542 -0.5500  0.0560  1.7562
  533TIP3   OH223013   1.718   2.325   4.342 -0.4262  0.2257 -0.3190
  533TIP3    H123014   1.753   2.324   4.254  2.5304 -2.3159  0.7163
  533TIP3    H223015   1.772   2.388   4.389 -0.0160 -0.5645  0.3044
  534TIP3   OH223016   0.924   6.526   1.885 -0.0124 -0.3077  0.0295
  534TIP3    H123017   0.905   6.433   1.897 -0.9672  0.0230  1.3100
  534TIP3    H223018   0.932   6.560   1.974  0.1759  0.8606 -0.4221
  535TIP3   OH223019   4.013   2.624  14.888  0.2510 -0.5725 -0.3648
  535TIP3    H123020   4.084   2.621  14.825 -0.5399  1.4693 -1.4639
  535TIP3    H223021   3.945   2.568  14.850  0.4580 -0.7970 -0.4061
  536TIP3   OH223022   5.902   3.794  15.643  0.4734  0.0640  0.3029
  536TIP3    H123023   5.960   3.759  15.576  1.1793  1.4604  0.1419
  536TIP3    H223024   5.929   3.886  15.653 -0.2664  0.1560  1.7908
  537TIP3   OH223025   2.094   6.774   1.419 -0.1204  0.1509 -0.3763
  537TIP3    H123026   2.116   6.864   1.397  0.1406 -0.5226 -3.2079
  537TIP3    H223027   2.022   6.781   1.482 -1.0483  2.3659 -1.5805
  538TIP3   OH223028   5.235   1.252  12.871 -0.6971 -0.7388  0.1143
  538TIP3    H123029   5.330   1.251  12.859 -0.6741  0.0083  0.1835
  538TIP3    H223030   5.217   1.337  12.911 -1.5557 -0.2264 -1.2779
  539TIP3   OH223031   4.122   3.004  13.733  0.1194 -0.5233  0.2717
  539TIP3    H123032   4.065   2.937  13.695  0.1911 -0.8064  0.6537
  539TIP3    H223033   4.069   3.045  13.801 -0.9101  1.7123 -1.7492
  540TIP3   OH223034   5.719   5.269  13.879 -0.1245  0.6861 -0.1166
  540TIP3    H123035   5.668   5.317  13.944  1.0469  1.2197  0.4362
  540TIP3    H223036   5.758   5.336  13.823  0.8589  0.3599  0.1510
  541TIP3   OH223037   1.941   6.288   1.602 -0.3161 -0.1478  0.3395
  541TIP3    H123038   1.856   6.261   1.567 -0.0162 -1.0183  0.2556
  541TIP3    H223039   2.004   6.227   1.562  0.4494  0.9642 -0.2040
  542TIP3   OH223040   1.093   2.528  17.043 -0.1763  0.5757  0.0171
  542TIP3    H123041   1.102   2.556  16.952 -3.8414  3.1195  0.1948
  542TIP3    H223042   1.154   2.584  17.091 -0.0384  1.0156 -0.6587
  543TIP3   OH223043   4.980   0.186   6.062 -0.4229 -0.0804 -0.1443
  543TIP3    H123044   5.010   0.267   6.021 -1.4546  0.3865 -0.0052
  543TIP3    H223045   4.968   0.210   6.154 -0.6826 -0.4037 -0.0943
  544TIP3   OH223046   4.702   1.920  16.610  0.2905 -0.2349  0.6235
  544TIP3    H123047   4.748   1.967  16.541  0.3445  2.1459  2.1696
  544TIP3    H223048   4.761   1.926  16.685 -1.2532  0.3249  1.8374
  545TIP3   OH223049   0.995   1.964   5.765  0.1302  0.1835  0.7864
  545TIP3    H123050   0.919   1.941   5.712  0.0327 -1.2596  1.5060
  545TIP3    H223051   1.037   2.036   5.717 -2.3922  1.9755  1.0817
  546TIP3   OH223052   5.903   5.407   4.305  0.0843 -0.8933  0.3634
  546TIP3    H123053   5.843   5.453   4.363 -0.8496  1.8655 -2.5143
  546TIP3    H223054   5.984   5.459   4.308 -0.4704  0.2045 -1.7730
  547TIP3   OH223055   5.154   1.975   1.259  0.4868 -0.0488  0.4102
  547TIP3    H123056   5.121   2.016   1.340  1.7897 -1.3296  1.6522
  547TIP3    H223057   5.240   1.942   1.283  0.8411 -0.6055 -1.4961
  548TIP3   OH223058   4.157   5.523  13.770  0.0216  0.8610  0.2452
  548TIP3    H123059   4.198   5.548  13.853  0.4269 -0.1393  0.3669
  548TIP3    H223060   4.072   5.566  13.771  0.3989  1.6180  0.7501
  549TIP3   OH223061   3.997   4.429  13.747 -0.2403 -0.4434  0.4506
  549TIP3    H123062   3.944   4.505  13.770  2.0237  1.2423  0.4407
  549TIP3    H223063   4.074   4.436  13.803  1.4769 -0.9470 -1.6987
  550TIP3   OH223064   5.087   2.858   5.802 -0.2139 -0.6769 -0.2824
  550TIP3    H123065   5.069   2.873   5.895 -0.1182  0.5796 -0.4427
  550TIP3    H223066   5.025   2.915   5.756  1.4451  0.7273 -0.9048
  551TIP3   OH223067   6.124   6.616   1.805  0.2896 -0.5022 -0.1583
  551TIP3    H123068   6.135   6.528   1.769  0.6946 -1.1362  1.4447
  551TIP3    H223069   6.197   6.627   1.865 -0.2900  0.5722  0.3726
  552TIP3   OH223070   3.891   3.756   4.647 -0.4411  0.3686  0.8499
  552TIP3    H123071   3.972   3.708   4.665  0.1304  1.4046  1.1357
  552TIP3    H223072   3.823   3.705   4.691  0.0397 -0.5207  0.6002
  553TIP3   OH223073   5.277   2.870   0.153 -0.5584  0.2969  0.2725
  553TIP3    H123074   5.267   2.881   0.248  0.3917  1.4911  0.2667
  553TIP3    H223075   5.188   2.852   0.122 -0.9534  0.2954  1.3396
  554TIP3   OH223076   3.733   6.540  13.876 -0.0406  0.2486 -0.4480
  554TIP3    H123077   3.792   6.615  13.886 -1.3311  1.3833 -0.9935
  554TIP3    H223078   3.677   6.542  13.954  0.4472 -0.6671 -0.0541
  555TIP3   OH223079   5.476   3.907   0.219  0.0968 -0.5071  0.6067
  555TIP3    H123080   5.387   3.940   0.206  0.3404 -0.5340 -1.4651
  555TIP3    H223081   5.465   3.824   0.266 -0.9516 -0.4321  0.5053
  556TIP3   OH223082   5.198   0.718   6.103  0.1809  0.0899  0.2681
  556TIP3    H123083   5.254   0.673   6.166  0.1955 -0.5074 -0.1675
  556TIP3    H223084   5.201   0.810   6.130  0.1362 -0.1675  1.1784
  557TIP3   OH223085   4.197   3.596   0.071  0.0841  0.0722  0.9505
  557TIP3    H123086   4.162   3.533   0.007 -0.4772  1.8872 -0.6294
  557TIP3    H223087   4.291   3.600   0.052  0.1529 -0.4238  1.1826
  558TIP3   OH223088   4.773   4.525  10.786  0.6620  0.5166  0.0186
  558TIP3    H123089   4.752   4.437  10.755 -0.7019  0.7700  0.1683
  558TIP3    H223090   4.856   4.546  10.743 -0.7034  0.5264 -2.8879
  559TIP3   OH223091   6.534   1.945   5.336  0.0408  0.5088 -0.1749
  559TIP3    H123092   6.544   2.040   5.329 -1.2416  0.8654  1.7178
  559TIP3    H223093   6.458   1.925   5.281 -0.8924  0.9378  0.8967
  560TIP3   OH223094   2.061   1.525   1.440  0.2380  0.1012  0.1198
  560TIP3    H123095   2.113   1.483   1.508  0.3642 -0.1078 -0.1043
  560TIP3    H223096   2.084   1.478   1.360 -0.1673  0.1194 -0.0092
  561TIP3   OH223097   2.972   3.278   1.356 -0.3326  0.2510 -0.6607
  561TIP3    H123098   3.001   3.189   1.376  0.9365  0.9816  1.0386
  561TIP3    H223099   2.877   3.274   1.359 -0.2811 -0.7066  1.2430
  562TIP3   OH223100   1.231   0.849  16.795 -0.4383  0.3891  0.4105
  562TIP3    H123101   1.253   0.769  16.747  0.5126  1.6391 -1.3430
  562TIP3    H223102   1.138   0.840  16.815 -0.2890 -1.2555  0.4913
  563TIP3   OH223103   6.546   1.530   0.364  0.2274  0.5991 -0.1316
  563TIP3    H123104   6.522   1.573   0.282  0.8112  0.1822 -0.5260
  563TIP3    H223105   6.570   1.441   0.339  1.5061  0.7904  0.3333
  564TIP3   OH223106   3.291   3.154  15.346 -0.4124  0.2496 -0.1371
  564TIP3    H123107   3.333   3.180  15.264 -2.2290 -0.4222 -1.3406
  564TIP3    H223108   3.229   3.086  15.321 -0.9561 -0.0405  1.8175
  565TIP3   OH223109   3.709   0.023  16.527  0.0601  0.4992  0.3648
  565TIP3    H123110   3.709   0.117  16.544 -0.5821  0.3849  1.0038
  565TIP3    H223111   3.802   0.000  16.519  0.2338  1.1138  0.6152
  566TIP3   OH223112   2.491   3.486   3.849  0.3216 -0.0979  0.5648
  566TIP3    H123113   2.511   3.425   3.778  3.0718  0.5025  0.7320
  566TIP3    H223114   2.413   3.449   3.891 -0.2328 -1.4950 -1.5438
  567TIP3   OH223115   3.002   5.854   0.600 -0.0938 -0.3327  0.0352
  567TIP3    H123116   3.046   5.895   0.674  0.7931 -0.8767 -0.1688
  567TIP3    H223117   2.976   5.927   0.544 -0.3620  0.0526  0.6559
  568TIP3   OH223118   2.813   4.412   5.431 -0.2530 -0.0639  0.6164
  568TIP3    H123119   2.840   4.476   5.366  0.6794 -1.5478 -0.5384
  568TIP3    H223120   2.721   4.394   5.411  0.0161 -0.4763 -0.2886
  569TIP3   OH223121   2.481   6.129   5.336  0.2105  0.1199 -0.4175
  569TIP3    H123122   2.386   6.125   5.348 -0.1330  1.4426 -2.3594
  569TIP3    H223123   2.514   6.159   5.421 -1.0499 -0.7501  0.4069
  570TIP3   OH223124   3.131   3.744  11.707  0.2105 -0.6639 -0.5677
  570TIP3    H123125   3.048   3.754  11.753  1.1066  4.0670  0.4626
  570TIP3    H223126   3.146   3.649  11.706 -2.6534 -1.4421  3.8022
  571TIP3   OH223127   6.628   3.235   1.186 -0.3048 -0.0288 -0.0501
  571TIP3    H123128   6.597   3.145   1.173 -1.3021  0.3752 -0.6423
  571TIP3    H223129   6.566   3.288   1.136  0.0679  1.0197  0.5782
  572TIP3   OH223130   3.186   2.259   2.258 -0.8624 -0.6834  0.0448
  572TIP3    H123131   3.177   2.170   2.292 -1.0656 -0.7159 -0.0947
  572TIP3    H223132   3.261   2.254   2.198 -0.0815 -0.4771  0.9799
  573TIP3   OH223133   1.902   0.874   5.686 -0.4164 -0.6544 -0.0569
  573TIP3    H123134   1.852   0.821   5.623 -0.0679 -1.4630  0.3292
  573TIP3    H223135   1.856   0.862   5.769 -1.1302  0.7616 -0.2291
  574TIP3   OH223136   5.493   5.595  11.962  0.2622 -0.2803 -0.1422
  574TIP3    H123137   5.553   5.530  11.997  1.2229 -0.4272 -1.9791
  574TIP3    H223138   5.408   5.570  11.998  1.2299 -0.0240  2.5689
  575TIP3   OH223139   6.457   3.645  16.266  0.0869 -0.7076  0.2415
  575TIP3    H123140   6.534   3.660  16.320 -0.5876  0.0288  1.0275
  575TIP3    H223141   6.411   3.573  16.310 -0.4508 -0.1232  0.6577
  576TIP3   OH223142   2.471   4.916   6.595  0.1135  0.6775 -0.2244
  576TIP3    H123143   2.494   4.823   6.607  0.6154  0.7407 -0.6752
  576TIP3    H223144   2.547   4.954   6.550  1.2096  1.9704  2.4890
  577TIP3   OH223145   1.285   5.352   5.293 -0.3140 -0.3232 -0.0790
  577TIP3    H123146   1.311   5.395   5.211  1.0103  0.3877  0.6700
  577TIP3    H223147   1.355   5.289   5.310  0.0199  0.3137  1.0492
  578TIP3   OH223148   0.054   4.729  15.651  0.1658  0.0072 -0.1799
  578TIP3    H123149   0.123   4.786  15.617  1.9737 -0.4504  2.4661
  578TIP3    H223150  -0.004   4.788  15.699  2.3456 -0.1939  3.0503
  579TIP3   OH223151   1.753   1.733  11.664 -0.8409 -0.0575 -0.2164
  579TIP3    H123152   1.700   1.667  11.620 -1.1405 -0.2823  0.4726
  579TIP3    H223153   1.716   1.817  11.635 -0.5477 -0.1821 -0.9809
  580TIP3   OH223154   2.606   1.130   4.799  0.0648  0.2541  0.0708
  580TIP3    H123155   2.634   1.045   4.766 -1.1807 -0.4488  0.7569
  580TIP3    H223156   2.530   1.153   4.745 -0.3806  0.3330  0.7312
  581TIP3   OH223157   0.264   3.803  10.949 -0.2854 -0.4011 -0.5355
  581TIP3    H123158   0.301   3.871  10.893  1.9238 -0.1769  1.0891
  581TIP3    H223159   0.304   3.722  10.918  0.8197 -0.2971  0.5263
  582TIP3   OH223160   5.069   0.185   2.849  0.0670  0.4502  0.4671
  582TIP3    H123161   5.109   0.116   2.795 -0.6612  0.3265  0.0829
  582TIP3    H223162   5.097   0.267   2.807 -0.2366  0.3612  0.0843
  583TIP3   OH223163   5.012   3.339  12.823  0.0230  0.0621 -0.1078
  583TIP3    H123164   4.923   3.375  12.831  0.5822  1.5891 -0.4756
  583TIP3    H223165   5.030   3.339  12.730  0.9226  1.1105  0.0482
  584TIP3   OH223166   2.647   3.300  16.359 -0.1238  0.5024 -0.4777
  584TIP3    H123167   2.642   3.214  16.400 -0.3565  0.5583 -0.3907
  584TIP3    H223168   2.739   3.326  16.370 -0.4279  1.0219  1.0109
  585TIP3   OH223169   4.215   3.627   4.409  0.1805  0.0187  0.6182
  585TIP3    H123170   4.274   3.608   4.337 -0.1403  0.7733  0.1416
  585TIP3    H223171   4.128   3.629   4.369  0.1619  2.1995  0.6446
  586TIP3   OH223172   1.415   4.379  15.335 -0.3856  0.1603 -0.6709
  586TIP3    H123173   1.428   4.329  15.254  0.0711 -0.3544 -0.2860
  586TIP3    H223174   1.400   4.313  15.402 -1.3303  0.6076 -0.4293
  587TIP3   OH223175   1.941   3.145   1.110  0.0231 -0.6036 -0.2393
  587TIP3    H123176   1.939   3.105   1.023 -0.8955  0.3600 -0.6890
  587TIP3    H223177   1.987   3.081   1.165 -0.1531 -1.6179 -1.2301
  588TIP3   OH223178   3.021   4.237  15.093  0.0028  0.5078  0.0744
  588TIP3    H123179   2.952   4.177  15.065  1.1972 -1.5116  1.1706
  588TIP3    H223180   3.062   4.267  15.011 -1.6389  1.1408 -0.5491
  589TIP3   OH223181   4.462   5.340  15.697 -0.0480 -0.2483  0.3330
  589TIP3    H123182   4.449   5.246  15.705  2.0572 -0.7289 -1.1331
  589TIP3    H223183   4.536   5.349  15.637 -0.2004  2.3498  0.4314
  590TIP3   OH223184   0.475   0.659   0.012 -0.5584 -0.3716 -0.6906
  590TIP3    H123185   0.509   0.610  -0.062  0.8320 -1.8616  0.8599
  590TIP3    H223186   0.392   0.617   0.033 -0.6106 -0.3974 -0.9505
  591TIP3   OH223187   4.301   6.502  13.645  0.4180  0.1316 -0.7122
  591TIP3    H123188   4.393   6.480  13.635  0.7926  0.8002  0.9607
  591TIP3    H223189   4.255   6.418  13.641  1.2104 -0.3182 -0.5094
  592TIP3   OH223190   5.886   3.509   1.688  0.5094 -0.0313 -0.3748
  592TIP3    H123191   5.973   3.537   1.660  0.2266  0.4219 -0.8168
  592TIP3    H223192   5.853   3.458   1.614  0.0103  0.6382 -0.6260
  593TIP3   OH223193   4.756   0.736   5.365  0.1055  0.3401 -0.5045
  593TIP3    H123194   4.718   0.815   5.404 -0.3646  1.3561 -2.8747
  593TIP3    H223195   4.784   0.684   5.441 -3.1959  0.8995  1.3049
  594TIP3   OH223196   3.540   4.703   0.745 -0.0489  0.3084  0.0313
  594TIP3    H123197   3.473   4.757   0.703 -0.7661  1.0696  2.0331
  594TIP3    H223198   3.492   4.628   0.779  0.7062 -0.8825 -1.4254
  595TIP3   OH223199   1.971   2.529  11.267 -0.1685 -0.1608  0.0274
  595TIP3    H123200   2.004   2.499  11.182 -1.3458 -0.8878 -0.2006
  595TIP3    H223201   1.925   2.610  11.248  3.3153  2.2304  0.6960
  596TIP3   OH223202   6.017   1.216  11.727 -0.0271 -0.8940  0.2354
  596TIP3    H123203   6.005   1.240  11.819 -0.8375 -2.1272  0.4618
  596TIP3    H223204   6.105   1.178  11.723  0.6096  0.4862  0.1846
  597TIP3   OH223205   1.262   2.686  13.088  0.3206 -0.0049 -0.2684
  597TIP3    H123206   1.341   2.632  13.094 -0.4562 -1.0058  1.9495
  597TIP3    H223207   1.198   2.629  13.045  0.0997 -0.1210  0.2052
  598TIP3   OH223208   3.450   2.736  13.996  0.0585  0.3706 -0.7877
  598TIP3    H123209   3.471   2.715  14.087 -1.2740 -1.6639 -0.8822
  598TIP3    H223210   3.399   2.817  14.001 -1.0410 -0.3547  0.4341
  599TIP3   OH223211   4.040   4.910   2.071 -0.1682 -0.2495  0.2399
  599TIP3    H123212   4.132   4.885   2.072  0.4074  1.7235  1.7650
  599TIP3    H223213   4.032   4.973   1.999 -0.7303 -1.6165 -0.9482
  600TIP3   OH223214   0.641   0.406  14.038 -0.2192  0.1073  0.0185
  600TIP3    H123215   0.730   0.385  14.009 -0.3495 -0.0654 -0.2585
  600TIP3    H223216   0.607   0.464  13.971 -0.1850  0.4712  0.3168
  601TIP3   OH223217   2.738   1.000  14.158  0.3208 -0.3325 -0.2147
  601TIP3    H123218   2.725   1.070  14.094  2.0131  0.1367 -0.0814
  601TIP3    H223219   2.650   0.964  14.172 -0.6296  1.8409 -0.1740
  602TIP3   OH223220   1.726   2.573   5.556  0.0210 -0.2468  0.5003
  602TIP3    H123221   1.804   2.523   5.529  0.0976 -0.9738  1.9664
  602TIP3    H223222   1.688   2.521   5.627 -1.1434  0.7049  0.5970
  603TIP3   OH223223   4.544   3.681  11.727  0.1375  0.2930  0.4565
  603TIP3    H123224   4.591   3.639  11.799 -0.3527 -1.0293  0.0235
  603TIP3    H223225   4.580   3.770  11.724 -0.2395  0.5856  2.7026
  604TIP3   OH223226   2.135   2.226   4.663 -0.4306 -0.1538 -0.0350
  604TIP3    H123227   2.056   2.274   4.640 -0.3540 -0.4688 -1.0007
  604TIP3    H223228   2.161   2.261   4.748 -1.0418  0.6624 -0.1783
  605TIP3   OH223229   0.430   5.167   0.827 -0.2677  0.2102 -0.1064
  605TIP3    H123230   0.512   5.137   0.867 -0.3165 -0.1906 -0.3075
  605TIP3    H223231   0.363   5.111   0.865 -0.2500 -0.5348 -1.1565
  606TIP3   OH223232   0.763   2.906  11.932  0.0087  0.8341 -0.5321
  606TIP3    H123233   0.667   2.910  11.932  0.0328  1.7550 -0.5429
  606TIP3    H223234   0.790   2.997  11.949  0.8739  0.7561 -1.4225
  607TIP3   OH223235   4.011   3.068  15.842  0.0435 -0.3821 -0.1714
  607TIP3    H123236   3.924   3.089  15.807 -0.0274  0.0281  0.2252
  607TIP3    H223237   4.025   2.977  15.820 -0.7155 -0.5995  0.1932
  608TIP3   OH223238   5.385   2.068   4.933  0.4208 -0.4009 -0.3156
  608TIP3    H123239   5.459   2.014   4.961  0.8870  0.3362 -0.0882
  608TIP3    H223240   5.390   2.145   4.990 -1.3817 -0.9853  0.7128
  609TIP3   OH223241   5.850   2.032   6.015 -0.4775 -0.0260 -0.0875
  609TIP3    H123242   5.804   2.115   6.021 -2.0919 -0.9122  0.2923
  609TIP3    H223243   5.918   2.037   6.083 -1.5913  0.3722  1.0261
  610TIP3   OH223244   1.839   4.410  15.121  0.3665  0.0923  0.2771
  610TIP3    H123245   1.778   4.481  15.141  0.0457  0.0181 -0.4271
  610TIP3    H223246   1.889   4.399  15.202 -1.0780 -0.3937  1.1445
  611TIP3   OH223247   2.337   2.624  15.806 -0.2788 -0.7398 -0.3498
  611TIP3    H123248   2.352   2.708  15.762 -0.9445 -0.2751  0.2712
  611TIP3    H223249   2.300   2.567  15.739 -0.4947 -0.3066 -0.5990
  612TIP3   OH223250   4.863   2.751  15.585  0.4301  0.2207  0.1922
  612TIP3    H123251   4.868   2.757  15.680 -0.4827 -0.2436  0.2774
  612TIP3    H223252   4.773   2.775  15.564  0.9126  1.4423 -0.6618
  613TIP3   OH223253   3.790   0.223  12.573 -0.1256 -0.3445 -0.0913
  613TIP3    H123254   3.735   0.238  12.650 -1.0106 -0.9467 -0.5743
  613TIP3    H223255   3.754   0.143  12.534 -0.3206  0.4531 -1.6386
  614TIP3   OH223256   2.985   4.001  16.557  0.6108 -0.7133  0.1613
  614TIP3    H123257   3.004   4.012  16.651 -1.4811 -1.0175  0.6612
  614TIP3    H223258   2.971   3.907  16.547  0.6257 -0.6555 -0.4377
  615TIP3   OH223259   6.004   3.623  14.562 -0.0049 -0.1599 -0.5520
  615TIP3    H123260   5.983   3.548  14.506  0.6287 -0.1398 -0.8258
  615TIP3    H223261   5.934   3.686  14.544 -0.0319 -0.3162 -1.0180
  616TIP3   OH223262   5.852   5.735  12.706  0.4654  0.2934 -0.5693
  616TIP3    H123263   5.846   5.642  12.725 -0.6191  0.3497 -0.5875
  616TIP3    H223264   5.944   5.757  12.721  0.4017 -0.4333  0.9777
  617TIP3   OH223265   5.079   2.012   4.949 -0.3317 -0.5561 -0.5292
  617TIP3    H123266   5.117   2.040   5.032  1.2385 -2.3982 -0.5548
  617TIP3    H223267   5.046   1.923   4.966 -2.6061  0.0984 -1.1552
  618TIP3   OH223268   6.704   3.568   5.360  0.3967  0.6406 -0.6820
  618TIP3    H123269   6.773   3.635   5.357  0.0311  1.0062 -1.7390
  618TIP3    H223270   6.705   3.530   5.272  0.7034 -0.8763 -0.0517
  619TIP3   OH223271   5.880   1.200   2.619  0.4543  0.2820 -0.0315
  619TIP3    H123272   5.972   1.187   2.600  0.2678  0.8044 -1.3645
  619TIP3    H223273   5.834   1.161   2.545 -0.3890  0.4511  0.3874
  620TIP3   OH223274   2.998   6.164  16.345 -0.2124  0.4104 -0.2867
  620TIP3    H123275   2.974   6.077  16.376  0.2243 -0.2314 -1.6477
  620TIP3    H223276   3.069   6.192  16.403  0.0509 -0.4126 -0.2026
  621TIP3   OH223277   3.422   2.308  16.034  1.2240  0.2097 -0.7260
  621TIP3    H123278   3.332   2.287  16.007  0.8782 -0.1696  0.6440
  621TIP3    H223279   3.412   2.362  16.112  2.1812 -0.6611  0.0276
  622TIP3   OH223280   6.315   4.269   3.023  0.1273 -0.1617 -0.1975
  622TIP3    H123281   6.230   4.283   3.064  0.4011 -0.1037  0.3558
  622TIP3    H223282   6.299   4.282   2.929  0.2194  3.2981  0.1738
  623TIP3   OH223283   5.873   3.175  14.986  0.4338 -0.4787 -0.0101
  623TIP3    H123284   5.845   3.226  14.910 -1.5318 -0.9440  0.3653
  623TIP3    H223285   5.833   3.089  14.973  1.0614 -0.9384  0.9729
  624TIP3   OH223286   4.138   2.471  13.399 -0.3649  0.4794 -0.1270
  624TIP3    H123287   4.044   2.460  13.382 -0.7806  1.9816  0.9119
  624TIP3    H223288   4.141   2.530  13.475  1.3943 -1.8808  1.7669
  625TIP3   OH223289   0.879   6.517  16.424  0.2194  0.0782  0.0363
  625TIP3    H123290   0.956   6.506  16.480  0.2392  0.1033  0.0141
  625TIP3    H223291   0.906   6.482  16.339  0.0180 -0.4495  0.1808
  626TIP3   OH223292   1.944   3.860  16.216  0.5319  0.2336 -0.2429
  626TIP3    H123293   1.969   3.940  16.262 -1.3755  0.4369  0.5017
  626TIP3    H223294   1.967   3.789  16.276 -0.2166  0.3934  0.2431
  627TIP3   OH223295   1.360   6.109  14.290 -0.3378 -0.1813 -0.0964
  627TIP3    H123296   1.311   6.176  14.338  0.0785 -0.1597  0.3081
  627TIP3    H223297   1.316   6.027  14.313 -0.8843 -0.0452 -0.6382
  628TIP3   OH223298   0.254   1.737  13.232  0.2492 -0.1770 -0.2382
  628TIP3    H123299   0.313   1.782  13.171 -1.5704 -0.7914 -2.5931
  628TIP3    H223300   0.266   1.644  13.212 -0.1499 -0.4112  0.5887
  629TIP3   OH223301   2.907   0.705   2.284  0.2580 -0.3876 -0.4094
  629TIP3    H123302   2.895   0.768   2.355 -0.8125 -1.5757  0.5296
  629TIP3    H223303   2.983   0.653   2.310 -1.3198 -2.1401  0.9771
  630TIP3   OH223304   5.359   4.177   4.023  0.1167  0.4643  0.1129
  630TIP3    H123305   5.318   4.107   3.973  0.6363  0.1176  0.1597
  630TIP3    H223306   5.452   4.153   4.025  0.2666  1.0511  0.2992
  631TIP3   OH223307   2.749   6.538  12.346 -0.4498  0.2930 -0.6726
  631TIP3    H123308   2.809   6.514  12.416 -0.0177 -0.8941 -1.4348
  631TIP3    H223309   2.662   6.532  12.386 -0.1313  1.4634  0.2690
  632TIP3   OH223310   5.468   3.767  11.666  0.2913  0.5041 -0.3694
  632TIP3    H123311   5.545   3.749  11.719 -0.8116  0.1180  1.1507
  632TIP3    H223312   5.401   3.795  11.728 -1.0023  0.1858 -1.5514
  633TIP3   OH223313   0.548   1.745   3.506 -0.0031  0.2296  0.3992
  633TIP3    H123314   0.574   1.727   3.596  1.2671 -0.6581 -0.1258
  633TIP3    H223315   0.461   1.707   3.499 -1.5020  2.9772  2.0971
  634TIP3   OH223316   0.665   0.767  12.459  0.3021 -0.3781 -0.0540
  634TIP3    H123317   0.613   0.749  12.538 -0.2679 -0.7129 -0.5039
  634TIP3    H223318   0.631   0.707  12.393  0.8683 -0.1894 -0.5243
  635TIP3   OH223319   6.456   2.999  15.166 -0.7067 -0.5452 -0.3237
  635TIP3    H123320   6.519   2.930  15.186 -0.7277 -1.0914 -1.9928
  635TIP3    H223321   6.445   2.995  15.071 -1.1546  1.3814 -0.3993
  636TIP3   OH223322   0.909   3.744  16.800  0.5369  0.4328 -0.9102
  636TIP3    H123323   0.893   3.684  16.727  0.5337  0.3950 -0.8779
  636TIP3    H223324   0.852   3.712  16.870 -1.0639  1.7043 -1.5675
  637TIP3   OH223325   1.245   3.499   0.850  0.1040  0.1128 -0.3899
  637TIP3    H123326   1.291   3.495   0.933 -0.0423 -0.8361 -0.3485
  637TIP3    H223327   1.168   3.553   0.867  0.1318  0.0111  0.0638
  638TIP3   OH223328   3.064   1.659  13.310 -0.0084 -0.2522  0.1165
  638TIP3    H123329   2.975   1.629  13.327 -0.7770  1.9070  0.2069
  638TIP3    H223330   3.062   1.753  13.329  2.4886 -0.2712  0.8207
  639TIP3   OH223331   4.442   5.686  16.814 -0.1978 -0.3905  0.1043
  639TIP3    H123332   4.498   5.658  16.886  0.7688  2.1031  0.4230
  639TIP3    H223333   4.491   5.664  16.735  0.6482  0.5855  0.3458
  640TIP3   OH223334   5.904   2.680   4.299  0.3938  0.0527 -0.5407
  640TIP3    H123335   5.830   2.716   4.348  1.1685  0.3125  0.4760
  640TIP3    H223336   5.869   2.663   4.212 -0.5441  1.3288 -0.4479
  641TIP3   OH223337   1.509   2.563  13.152 -0.2736 -0.2252  0.1968
  641TIP3    H123338   1.479   2.474  13.131  1.0321 -0.4178 -1.0578
  641TIP3    H223339   1.595   2.550  13.194 -0.4242  0.4172  0.7089
  642TIP3   OH223340   3.690   1.030   2.397  0.2317 -0.0218 -0.3197
  642TIP3    H123341   3.756   0.976   2.353 -0.5167 -1.6871  0.5007
  642TIP3    H223342   3.733   1.062   2.476  0.6881  0.6384 -0.8229
  643TIP3   OH223343   4.406   2.859   4.599 -0.1060  0.8007  0.9396
  643TIP3    H123344   4.437   2.920   4.667  1.0097 -0.3430  1.5093
  643TIP3    H223345   4.482   2.804   4.581 -0.9336 -0.0721  0.0442
  644TIP3   OH223346   6.361   5.049  14.805  0.2850  0.4318 -0.2012
  644TIP3    H123347   6.274   5.069  14.771  0.0111  1.5657  1.0786
  644TIP3    H223348   6.391   4.975  14.753  0.5467  2.9302 -4.0377
  645TIP3   OH223349   4.562   6.627   3.740  0.2705 -0.0694 -0.8146
  645TIP3    H123350   4.502   6.669   3.678 -1.3822 -1.6698 -0.3853
  645TIP3    H223351   4.517   6.635   3.825  0.6810 -1.2358 -0.4686
  646TIP3   OH223352   0.436   0.833   5.934  0.2000  0.4014 -0.7598
  646TIP3    H123353   0.481   0.869   5.857  0.0906 -0.3628 -1.1870
  646TIP3    H223354   0.503   0.830   6.002  0.3493  0.8922 -0.8789
  647TIP3   OH223355   2.584   6.706  11.475  0.1169  0.4852  0.4885
  647TIP3    H123356   2.655   6.755  11.434  0.6693 -1.4026 -0.9994
  647TIP3    H223357   2.549   6.651  11.405 -0.8321 -0.8198  1.9004
  648TIP3   OH223358   5.214   6.029  14.314 -0.4711  0.9419 -0.2335
  648TIP3    H123359   5.155   5.968  14.358  1.5252  0.3334  1.8470
  648TIP3    H223360   5.213   6.107  14.370 -1.4585  2.0695 -1.7680
  649TIP3   OH223361   1.242   1.709   4.081  0.1769 -0.4703 -0.2252
  649TIP3    H123362   1.199   1.715   4.166  1.4929  2.3254  0.3382
  649TIP3    H223363   1.219   1.790   4.036  3.0763  0.1883 -0.7120
  650TIP3   OH223364   1.603   2.170   3.655  0.2017 -0.2590  0.1321
  650TIP3    H123365   1.659   2.222   3.597  0.4642  1.3818  1.7749
  650TIP3    H223366   1.662   2.139   3.724  0.0257 -2.6997 -0.7043
  651TIP3   OH223367   6.329   3.317   0.345  0.4858 -0.1994 -0.1437
  651TIP3    H123368   6.356   3.272   0.425  0.7145 -0.8942 -0.6008
  651TIP3    H223369   6.362   3.406   0.355  2.1407 -0.7670 -0.2598
  652TIP3   OH223370   0.945   1.597  12.398 -0.1699 -0.5741 -0.4506
  652TIP3    H123371   0.935   1.625  12.490  0.1978  1.3500 -0.9544
  652TIP3    H223372   0.876   1.644  12.352  1.4607  0.7935 -1.5908
  653TIP3   OH223373   4.615   5.541  11.833 -0.2293 -0.2193  1.0470
  653TIP3    H123374   4.537   5.526  11.780  0.5978  2.7984 -1.3163
  653TIP3    H223375   4.676   5.473  11.805 -0.0549  0.8930 -1.5931
  654TIP3   OH223376   4.477   4.292   2.730  0.4297  0.1828  0.0103
  654TIP3    H123377   4.470   4.199   2.753 -0.5520 -0.1200 -1.3868
  654TIP3    H223378   4.468   4.338   2.814 -0.9727 -0.9362  0.5139
  655TIP3   OH223379   6.719   5.866  13.656  0.2579  0.2542 -0.2271
  655TIP3    H123380   6.715   5.881  13.750 -0.1109  0.7747 -0.3187
  655TIP3    H223381   6.712   5.954  13.618  0.8260  0.0837 -0.7268
  656TIP3   OH223382   3.047   5.249  12.959 -0.3681  0.5005  0.0112
  656TIP3    H123383   2.960   5.210  12.967 -0.9062  1.0765 -2.3354
  656TIP3    H223384   3.085   5.208  12.882  0.6767  1.6149 -0.1020
  657TIP3   OH223385   2.588   0.191  13.668 -0.4177  0.1624  0.0946
  657TIP3    H123386   2.534   0.259  13.627  1.0668  1.4826  0.2285
  657TIP3    H223387   2.646   0.239  13.728  1.6685 -1.0113 -0.8541
  658TIP3   OH223388   6.352   3.990  14.139  0.1116  0.4360 -1.0897
  658TIP3    H123389   6.434   3.995  14.090  0.9338  0.4986  0.2437
  658TIP3    H223390   6.339   3.897  14.155 -0.5776  0.3415 -2.0525
  659TIP3   OH223391   6.163   4.572  15.694 -0.0001 -0.5252 -0.1152
  659TIP3    H123392   6.198   4.589  15.606  0.3476  2.0837  0.4456
  659TIP3    H223393   6.090   4.512  15.680  1.8660 -2.5648 -1.8260
  660TIP3   OH223394   2.877   1.179  11.554  0.1513  0.4116 -0.1669
  660TIP3    H123395   2.948   1.218  11.604 -0.7104  1.8227 -0.0098
  660TIP3    H223396   2.807   1.165  11.619 -0.1083  0.0343 -0.5229
  661TIP3   OH223397   0.770   1.863  12.490 -0.5422 -0.1570  0.2987
  661TIP3    H123398   0.728   1.948  12.478 -0.3063 -0.3203 -2.3057
  661TIP3    H223399   0.700   1.799  12.474 -0.2096 -0.4404 -0.0415
  662TIP3   OH223400   1.953   0.363   6.583  0.0031  0.3671  0.2089
  662TIP3    H123401   2.032   0.309   6.581  0.1895  0.5544  1.5034
  662TIP3    H223402   1.886   0.307   6.621 -0.9150 -0.2669 -2.1953
  663TIP3   OH223403   6.229   5.547  13.277  0.3974 -0.2576  0.3469
  663TIP3    H123404   6.176   5.577  13.204 -0.4010 -0.7896  0.6926
  663TIP3    H223405   6.172   5.486  13.325  1.7501 -1.8886 -0.0255
  664TIP3   OH223406   1.735   0.992   0.191 -0.6446  0.3893 -0.2449
  664TIP3    H123407   1.752   1.053   0.119 -0.2247 -1.2089 -1.5802
  664TIP3    H223408   1.762   0.906   0.156 -2.9778 -0.8845  0.8249
  665TIP3   OH223409   0.120   4.556   3.494 -0.7421  0.3332  0.3414
  665TIP3    H123410   0.032   4.547   3.531 -0.3987  0.2462  1.1778
  665TIP3    H223411   0.174   4.500   3.550 -0.4392 -1.0017 -1.2193
  666TIP3   OH223412   0.051   3.661  13.456 -0.2905 -0.4167  0.2600
  666TIP3    H123413   0.141   3.633  13.439 -0.6460 -1.8832  0.6416
  666TIP3    H223414   0.048   3.677  13.551 -0.0489  1.2127  0.0338
  667TIP3   OH223415   5.274   1.516  16.227  0.0069  0.1649 -0.2168
  667TIP3    H123416   5.219   1.521  16.148  0.9842  0.5902 -0.8887
  667TIP3    H223417   5.253   1.595  16.276  2.3750  2.1062 -2.0917
  668TIP3   OH223418   2.511   0.649   2.044  0.6239 -0.4390  0.6550
  668TIP3    H123419   2.473   0.723   2.091 -0.7523 -0.0687 -0.9602
  668TIP3    H223420   2.596   0.636   2.084  0.7683  1.8309  1.1723
  669TIP3   OH223421   6.093   5.569   0.862 -0.3929 -0.5557  0.1070
  669TIP3    H123422   6.138   5.590   0.944  1.4730 -0.7854 -0.8143
  669TIP3    H223423   6.051   5.651   0.836  1.6524  0.4080 -0.3011
  670TIP3   OH223424   5.708   0.241  13.441  0.0640  0.2664 -0.5504
  670TIP3    H123425   5.803   0.244  13.447 -0.0393  0.1127  2.6657
  670TIP3    H223426   5.680   0.332  13.450 -0.1213  0.2167 -0.6170
  671TIP3   OH223427   0.560   0.987  14.675  0.2108  0.1281  0.0893
  671TIP3    H123428   0.516   1.018  14.596 -1.2612 -1.9608  0.0108
  671TIP3    H223429   0.648   0.966  14.646  0.7884  2.5798 -0.1796
  672TIP3   OH223430   6.427   5.778  15.166 -0.1031  0.5090 -0.4370
  672TIP3    H123431   6.452   5.821  15.248 -1.1269  0.0417  0.1300
  672TIP3    H223432   6.381   5.699  15.193  0.9931 -0.5350 -1.4666
  673TIP3   OH223433   0.921   0.797  11.389  0.5531 -0.2016  0.1956
  673TIP3    H123434   0.915   0.874  11.444  0.5914 -1.0727  1.4527
  673TIP3    H223435   0.973   0.825  11.314  1.8667  0.5846  1.3598
  674TIP3   OH223436   0.058   1.993  13.087  0.5096 -0.4994 -0.1526
  674TIP3    H123437   0.116   1.942  13.142  0.6810 -0.0039  0.1306
  674TIP3    H223438   0.025   2.063  13.144  0.0605 -0.4589 -0.4533
  675TIP3   OH223439   5.136   5.768  14.583 -0.1961  0.3679 -0.8106
  675TIP3    H123440   5.132   5.677  14.612  2.4238  0.3873 -0.1356
  675TIP3    H223441   5.120   5.764  14.488  0.4262 -0.8619 -0.8773
  676TIP3   OH223442   1.059   0.114   4.931 -0.2643  0.2753  0.1826
  676TIP3    H123443   0.968   0.085   4.919 -0.4525  1.5633 -1.9535
  676TIP3    H223444   1.069   0.123   5.026 -2.0784 -0.7260  0.5190
  677TIP3   OH223445   3.489   5.670  13.982 -0.9534 -0.5821  0.0125
  677TIP3    H123446   3.459   5.746  13.933 -0.7579 -1.0180 -0.8118
  677TIP3    H223447   3.502   5.602  13.915  0.0723 -0.9588  0.5611
  678TIP3   OH223448   0.893   6.508  14.752  0.5726 -0.5111  0.2751
  678TIP3    H123449   0.906   6.424  14.797 -0.4318 -0.7797  0.0859
  678TIP3    H223450   0.799   6.522  14.755  0.7941  1.0169  1.0097
  679TIP3   OH223451   4.597   2.603  10.808  0.4237 -0.4467  0.0381
  679TIP3    H123452   4.630   2.691  10.827  2.8057 -1.2747  0.0517
  679TIP3    H223453   4.673   2.555  10.777 -0.7691 -2.5979  0.2527
  680TIP3   OH223454   6.293   6.126  15.574  0.9788  0.1904  1.0233
  680TIP3    H123455   6.330   6.195  15.519  0.9131  0.6077  1.4975
  680TIP3    H223456   6.244   6.071  15.514  0.8831  0.6611  0.6656
  681TIP3   OH223457   1.412   1.089   4.000  0.0832  0.1262  0.0479
  681TIP3    H123458   1.497   1.133   4.011  0.9297 -0.9840 -1.7105
  681TIP3    H223459   1.362   1.115   4.078  0.3031  4.5919 -1.0157
  682TIP3   OH223460   3.545   3.837   5.522 -0.4675 -0.0256 -0.2777
  682TIP3    H123461   3.490   3.912   5.545 -1.7961 -0.7374 -1.0595
  682TIP3    H223462   3.504   3.762   5.565  0.4190 -0.4469 -0.1266
  683TIP3   OH223463   4.303   6.526  10.900 -0.0270 -0.0566  0.2560
  683TIP3    H123464   4.393   6.494  10.911  0.5641  2.0908  3.3870
  683TIP3    H223465   4.249   6.464  10.950  0.2057  0.2871  0.9564
  684TIP3   OH223466   4.572   2.684   3.638 -0.0477  0.0955  0.4584
  684TIP3    H123467   4.493   2.630   3.631 -0.5492  0.6440  1.5140
  684TIP3    H223468   4.540   2.774   3.635  0.6772  0.3352 -0.3362
  685TIP3   OH223469   4.992   3.546   5.544  0.1244  0.3487  0.7214
  685TIP3    H123470   5.052   3.621   5.544  0.9615 -0.2620  2.2531
  685TIP3    H223471   5.019   3.495   5.621 -0.5913 -1.3826 -0.1330
  686TIP3   OH223472   3.812   2.485  14.732 -0.4749  0.1285  0.1028
  686TIP3    H123473   3.868   2.419  14.691 -1.8355 -1.5884  0.8768
  686TIP3    H223474   3.735   2.489  14.675 -1.2836 -0.4760  1.1090
  687TIP3   OH223475   2.222   5.766  14.987 -0.3308 -0.2606  0.0996
  687TIP3    H123476   2.153   5.777  15.052  0.8041 -1.0110  1.4988
  687TIP3    H223477   2.263   5.853  14.981 -0.8143 -0.0404 -0.0745
  688TIP3   OH223478   0.400   1.455  12.602 -0.0740 -0.4342 -0.0992
  688TIP3    H123479   0.483   1.489  12.633 -0.6632  2.4630 -1.3425
  688TIP3    H223480   0.401   1.362  12.626  2.4344  0.0363  2.0422
  689TIP3   OH223481   2.809   3.518   3.760  0.0010  0.6923  0.1301
  689TIP3    H123482   2.736   3.573   3.730  1.7507  2.6011 -0.9693
  689TIP3    H223483   2.783   3.429   3.738 -2.3291  1.2046  0.5736
  690TIP3   OH223484   0.770   1.182   4.111  0.3659 -0.1842  0.4762
  690TIP3    H123485   0.852   1.229   4.123  0.4395 -0.6938  2.2395
  690TIP3    H223486   0.711   1.218   4.178 -1.0325  0.5276 -1.0717
  691TIP3   OH223487   0.545   1.511  11.399 -0.2929  0.0224 -0.1607
  691TIP3    H123488   0.616   1.563  11.361  0.5184 -0.2576  0.9347
  691TIP3    H223489   0.577   1.421  11.398 -0.6472 -0.1143  0.3192
  692TIP3   OH223490   6.420   6.241  11.638 -0.3694 -0.0132  0.5648
  692TIP3    H123491   6.507   6.269  11.608 -1.3983  2.5947 -0.2634
  692TIP3    H223492   6.380   6.203  11.560  0.1528 -1.6637  1.0692
  693TIP3   OH223493   5.472   5.653  13.586 -0.0054  0.1068 -0.6331
  693TIP3    H123494   5.488   5.571  13.633  1.6670 -0.3167 -1.8661
  693TIP3    H223495   5.499   5.635  13.496 -0.8448  1.6332 -1.2227
  694TIP3   OH223496   1.752   4.459  16.870 -0.1970 -0.0438 -0.3639
  694TIP3    H123497   1.790   4.375  16.842 -0.3098 -0.5477  0.9353
  694TIP3    H223498   1.661   4.439  16.887 -0.0019  0.1111  0.9054
  695TIP3   OH223499   6.673   1.982  11.323  0.3146  0.1025 -0.2301
  695TIP3    H123500   6.711   2.024  11.400 -0.7550 -0.0457  0.3992
  695TIP3    H223501   6.593   1.941  11.355 -0.8373  1.1243 -1.6645
  696TIP3   OH223502   5.018   2.887  13.791 -0.1721  0.0359  0.8025
  696TIP3    H123503   4.981   2.830  13.859 -0.5323 -0.0107  0.5715
  696TIP3    H223504   5.082   2.831  13.746  0.7793  0.3574  1.7149
  697TIP3   OH223505   1.729   0.413  16.530 -0.0638  0.5243 -0.2769
  697TIP3    H123506   1.663   0.398  16.462  0.2203  1.3878 -0.7463
  697TIP3    H223507   1.737   0.508  16.536 -0.3890  0.4739  1.2723
  698TIP3   OH223508   5.366   3.672  13.582 -0.0018  0.7722 -0.1873
  698TIP3    H123509   5.388   3.613  13.509  1.0763  0.7466  0.1334
  698TIP3    H223510   5.352   3.614  13.656 -0.3861  0.8369 -0.2113
  699TIP3   OH223511   6.728   6.521  16.824 -0.0197 -0.0744  0.4613
  699TIP3    H123512   6.785   6.455  16.862  0.7715  0.1192 -0.3498
  699TIP3    H223513   6.719   6.494  16.732 -3.0981 -1.3939  1.0249
  700TIP3   OH223514   6.650   4.251  11.772 -0.0418  0.5288 -0.1203
  700TIP3    H123515   6.586   4.197  11.818  1.1321  0.4938  1.5422
  700TIP3    H223516   6.602   4.331  11.749 -0.4908  0.8635  1.8251
  701TIP3   OH223517   3.327   3.649  13.204  0.0741 -0.0970 -0.1122
  701TIP3    H123518   3.287   3.563  13.193 -0.0218 -0.0511 -0.1282
  701TIP3    H223519   3.421   3.633  13.195  0.0169 -0.1037 -0.7676
  702TIP3   OH223520   5.327   3.960  14.750  0.4451  0.0300 -0.3546
  702TIP3    H123521   5.307   3.922  14.835  2.3331 -0.3712 -0.0388
  702TIP3    H223522   5.281   3.905  14.687 -2.2676  1.2509  0.4146
  703TIP3   OH223523   1.141   2.700   6.012 -0.2997 -0.4007  0.0340
  703TIP3    H123524   1.082   2.627   5.994 -1.2995  0.7313 -1.6509
  703TIP3    H223525   1.176   2.724   5.926 -1.4768  2.2633  0.2045
  704TIP3   OH223526   3.249   0.679  14.642 -0.2661 -0.0696  0.1513
  704TIP3    H123527   3.216   0.759  14.682  0.2971  0.0546  0.3795
  704TIP3    H223528   3.324   0.655  14.696  2.3238  1.6510 -2.4563
  705TIP3   OH223529   2.422   1.533   5.232  0.3497  0.2134  0.5802
  705TIP3    H123530   2.458   1.619   5.253 -0.7469  0.4149  1.7752
  705TIP3    H223531   2.468   1.506   5.152  1.9473  1.1238  1.1531
  706TIP3   OH223532   2.965   6.062   1.339  0.5284  0.0954 -0.8131
  706TIP3    H123533   3.016   6.017   1.406  0.4515 -0.8069 -1.3417
  706TIP3    H223534   3.027   6.075   1.267  0.7854  1.6212 -0.3630
  707TIP3   OH223535   4.636   1.575  11.643  0.0339  0.6409 -0.2875
  707TIP3    H123536   4.691   1.507  11.683 -0.2172 -0.7825 -2.2479
  707TIP3    H223537   4.697   1.648  11.626  0.2434  1.0959  2.0942
  708TIP3   OH223538   5.588   0.677   1.485  0.5657 -0.3461 -0.0740
  708TIP3    H123539   5.662   0.737   1.483  1.3044 -1.2486 -0.4047
  708TIP3    H223540   5.549   0.690   1.571  0.9495  0.3225  0.0045
  709TIP3   OH223541   4.851   6.681  13.456 -0.4675  0.8743 -0.8345
  709TIP3    H123542   4.870   6.650  13.544 -0.1844  0.6090 -0.9863
  709TIP3    H223543   4.804   6.763  13.469 -2.3438 -0.2213 -0.3980
  710TIP3   OH223544   2.303   5.649  15.516  0.2695  0.0039 -0.8395
  710TIP3    H123545   2.341   5.716  15.459 -0.0678 -0.3443 -1.4839
  710TIP3    H223546   2.292   5.693  15.601  1.5157  0.2920 -0.8110
  711TIP3   OH223547   1.909   6.723   2.427  0.0783 -0.2877  0.2220
  711TIP3    H123548   1.954   6.669   2.491 -0.8161  0.8524  1.8826
  711TIP3    H223549   1.924   6.813   2.456 -0.2431  0.2731 -1.2460
  712TIP3   OH223550   3.727   4.977  11.046 -0.0770 -0.0537 -0.3613
  712TIP3    H123551   3.650   5.021  11.010  0.5996  0.4101 -1.2958
  712TIP3    H223552   3.801   5.025  11.008  0.6772 -1.1050 -0.2506
  713TIP3   OH223553   0.844   1.110   3.274 -0.2723 -0.1529 -0.0538
  713TIP3    H123554   0.807   1.100   3.362 -1.6173  0.6213 -0.5039
  713TIP3    H223555   0.924   1.160   3.287  0.2811 -1.2444  0.8742
  714TIP3   OH223556   3.818   4.811   5.318  0.3764  0.5519 -0.2018
  714TIP3    H123557   3.878   4.809   5.392 -1.2859  1.0501  1.2153
  714TIP3    H223558   3.732   4.793   5.356 -0.4241  0.0132 -2.1407
  715TIP3   OH223559   0.164   3.854  14.641  0.1864  0.3618 -0.2228
  715TIP3    H123560   0.078   3.881  14.609 -0.5794 -1.1564  0.4449
  715TIP3    H223561   0.226   3.899  14.584 -1.0705  0.4708 -1.5559
  716TIP3   OH223562   1.653   3.917   1.596  0.5790  0.1994  0.0205
  716TIP3    H123563   1.647   3.853   1.667 -0.1984  0.4049  0.1555
  716TIP3    H223564   1.659   3.865   1.516  2.6133 -0.0529  0.2811
  717TIP3   OH223565   1.724   1.817  14.810 -0.5499 -0.1768  0.1003
  717TIP3    H123566   1.643   1.767  14.807 -0.7921  0.1539  0.9419
  717TIP3    H223567   1.755   1.809  14.900 -0.1858  0.5386  0.0499
  718TIP3   OH223568   0.209   5.146   3.762  0.1196 -0.2661  0.1504
  718TIP3    H123569   0.222   5.058   3.725 -0.2836 -0.3512  0.2106
  718TIP3    H223570   0.295   5.188   3.754  0.1629 -0.4525 -0.4357
  719TIP3   OH223571   2.652   5.024   2.769 -0.5103 -0.3261 -0.2329
  719TIP3    H123572   2.742   5.046   2.794 -0.7322  1.4020 -0.8499
  719TIP3    H223573   2.644   4.931   2.791  0.7200 -0.0029  1.9226
  720TIP3   OH223574   6.406   0.146  15.001 -0.2421  0.2544 -0.2053
  720TIP3    H123575   6.491   0.137  14.959  0.9555  0.9460  1.8907
  720TIP3    H223576   6.348   0.088  14.952  1.8005 -1.4639 -0.7165
  721TIP3   OH223577   1.505   1.553   3.503 -0.7335  0.3474  0.4763
  721TIP3    H123578   1.547   1.496   3.439  0.0905 -0.1643  1.4446
  721TIP3    H223579   1.437   1.598   3.454 -0.7582 -0.7488 -0.5288
  722TIP3   OH223580   1.409   6.646   3.441 -0.1934  0.2287  0.4047
  722TIP3    H123581   1.327   6.606   3.469 -1.5859  2.8693  0.4380
  722TIP3    H223582   1.406   6.641   3.345 -0.9668  1.3049  0.3598
  723TIP3   OH223583   3.743   3.456   4.193 -0.3778  0.2338 -0.1405
  723TIP3    H123584   3.709   3.527   4.139  0.9454  0.2112 -1.0297
  723TIP3    H223585   3.784   3.499   4.267 -0.9108  0.3226  0.1087
  724TIP3   OH223586   2.204   5.173   2.800  0.6040 -0.1822  0.4452
  724TIP3    H123587   2.291   5.201   2.772  0.6753 -1.2877 -0.5197
  724TIP3    H223588   2.164   5.135   2.721 -2.1200  3.3315 -0.1633
  725TIP3   OH223589   3.998   1.374   2.475 -0.2013 -0.1182 -0.7061
  725TIP3    H123590   3.987   1.454   2.424  1.9360 -0.4708 -1.8099
  725TIP3    H223591   4.085   1.382   2.513 -0.8631 -0.9124  1.0826
  726TIP3   OH223592   2.804   6.353  16.279  0.2326  0.5013 -0.5725
  726TIP3    H123593   2.861   6.283  16.312 -0.6834  0.1244  0.2844
  726TIP3    H223594   2.731   6.306  16.238  0.2359  0.9719 -1.1258
  727TIP3   OH223595   4.428   0.350   2.567  0.2326  0.0984  0.1640
  727TIP3    H123596   4.428   0.298   2.487 -1.0337 -0.8724  0.7546
  727TIP3    H223597   4.509   0.400   2.564  0.2041  0.0831 -1.7164
  728TIP3   OH223598   5.409   3.916  12.541  0.1564 -0.0238  0.7794
  728TIP3    H123599   5.377   3.829  12.565 -0.7579  0.6602  2.1768
  728TIP3    H223600   5.498   3.901  12.509 -0.8885 -1.7884 -1.6382
  729TIP3   OH223601   0.359   0.941   2.116  0.3491 -0.7454  0.3204
  729TIP3    H123602   0.271   0.940   2.154  0.6849 -0.6919  1.1342
  729TIP3    H223603   0.404   1.012   2.162  0.7094 -0.5340 -0.3463
  730TIP3   OH223604   5.098   5.502  14.696  0.7205  0.0187 -1.1312
  730TIP3    H123605   5.132   5.416  14.719 -1.0166 -0.2741  0.5219
  730TIP3    H223606   5.038   5.485  14.624 -0.8893 -0.4518  0.2655
  731TIP3   OH223607   0.160   1.446  16.708 -0.1512 -0.4206 -0.4277
  731TIP3    H123608   0.208   1.469  16.628 -0.5475  0.1965 -0.4967
  731TIP3    H223609   0.188   1.356  16.727  1.1986 -0.0082 -0.3316
  732TIP3   OH223610   1.274   0.724   5.517  0.0777  0.0360  0.1099
  732TIP3    H123611   1.195   0.746   5.468 -0.3187 -0.4478  0.5124
  732TIP3    H223612   1.333   0.797   5.502 -0.8421  0.9192  0.6303
  733TIP3   OH223613   2.396   2.743   0.268  0.6292 -0.2432  0.0192
  733TIP3    H123614   2.434   2.830   0.275 -1.4326  0.6252  1.6309
  733TIP3    H223615   2.416   2.701   0.352 -0.6653 -0.2885  0.3285
  734TIP3   OH223616   2.652   4.295   3.418 -0.2412  0.0344 -0.0681
  734TIP3    H123617   2.668   4.305   3.512 -1.1383  0.2047  0.0744
  734TIP3    H223618   2.736   4.263   3.383  0.8557  2.1398  0.4334
  735TIP3   OH223619   6.539   6.480  15.295 -0.5012 -0.0052  1.2081
  735TIP3    H123620   6.488   6.551  15.257  0.6752  0.1807 -0.0777
  735TIP3    H223621   6.623   6.520  15.317  0.2094 -1.0127  0.3812
  736TIP3   OH223622   3.378   0.261   5.202  0.3019 -0.4861 -0.6028
  736TIP3    H123623   3.336   0.345   5.220  1.9979 -0.1167  2.1367
  736TIP3    H223624   3.339   0.200   5.265 -1.3300 -2.0134 -2.9311
  737TIP3   OH223625   1.387   3.248  12.978 -0.0883  0.1893  0.2108
  737TIP3    H123626   1.372   3.233  12.884 -0.0641  0.1394  0.2144
  737TIP3    H223627   1.465   3.304  12.980 -0.3215  0.5117  0.1860
  738TIP3   OH223628   4.974   0.537  13.778  0.8508 -0.3561  0.4007
  738TIP3    H123629   4.900   0.585  13.740  1.8505 -0.8105 -2.2842
  738TIP3    H223630   4.971   0.561  13.871 -0.9097  1.9407 -0.1286
  739TIP3   OH223631   1.404   2.739   1.924  0.5704 -0.2218  0.5392
  739TIP3    H123632   1.343   2.809   1.899  0.5876 -0.7426 -1.1259
  739TIP3    H223633   1.473   2.784   1.973  0.6537  0.9912 -0.6096
  740TIP3   OH223634   1.199   1.095   1.539  0.8550  0.0719  0.1887
  740TIP3    H123635   1.128   1.149   1.573 -0.6264 -2.4541  1.3700
  740TIP3    H223636   1.273   1.112   1.597  0.4206  0.7661  0.5474
  741TIP3   OH223637   1.865   0.284   1.218  0.1306  0.1828  0.3350
  741TIP3    H123638   1.941   0.313   1.267  0.1408 -0.0200  0.4408
  741TIP3    H223639   1.824   0.364   1.187  1.0795  0.2487 -0.7797
  742TIP3   OH223640   3.069   0.853  15.201  0.5839  0.2404 -0.3808
  742TIP3    H123641   3.090   0.913  15.272 -1.5213  0.3276  0.2293
  742TIP3    H223642   3.025   0.779  15.244 -1.0312  0.4502 -1.5840
  743TIP3   OH223643   0.257   4.857   2.386 -0.0418 -0.3156 -0.2505
  743TIP3    H123644   0.346   4.823   2.379  0.3159  0.2855  1.0127
  743TIP3    H223645   0.261   4.944   2.348  0.7144  0.9611  2.4639
  744TIP3   OH223646   3.889   0.139   2.039  0.4818  0.2945  0.2998
  744TIP3    H123647   3.855   0.111   2.124 -0.2718  0.4166  0.0478
  744TIP3    H223648   3.815   0.183   1.997  0.8049  0.1019 -0.4850
  745TIP3   OH223649   4.204   4.267   3.950  0.0674  0.8147 -0.1877
  745TIP3    H123650   4.241   4.237   4.033 -2.1478 -1.4886  0.1158
  745TIP3    H223651   4.259   4.225   3.883 -0.0420  0.0622  0.1846
  746TIP3   OH223652   0.628   4.378   5.968  0.2812  0.2986 -0.6334
  746TIP3    H123653   0.669   4.431   6.036  0.2206 -2.2639  1.5572
  746TIP3    H223654   0.540   4.361   6.000  0.3832 -1.3105 -1.1411
  747TIP3   OH223655   4.220   0.325  13.793 -0.1557 -0.0469  0.3540
  747TIP3    H123656   4.176   0.372  13.864  1.4189  1.3198  0.5035
  747TIP3    H223657   4.150   0.304  13.731 -1.1815  0.9804  1.1121
  748TIP3   OH223658   4.382   6.043   4.500  0.2529 -0.1769 -0.2529
  748TIP3    H123659   4.407   6.012   4.413  0.9776  0.0235 -0.1196
  748TIP3    H223660   4.389   5.966   4.557 -2.0905 -0.8012 -0.7025
  749TIP3   OH223661   2.283   3.237   1.334 -0.0863 -0.4587 -0.0168
  749TIP3    H123662   2.290   3.197   1.247  3.4340  0.1601 -0.1629
  749TIP3    H223663   2.328   3.176   1.392  0.3199  0.5581  0.7647
  750TIP3   OH223664   3.714   5.353   5.194 -0.7926 -0.1759 -0.0741
  750TIP3    H123665   3.712   5.433   5.246 -3.0317 -0.0188 -0.3082
  750TIP3    H223666   3.802   5.351   5.157 -0.2822  1.5105  0.9395
  751TIP3   OH223667   6.150   5.736  13.651 -0.1018  0.4123 -0.5897
  751TIP3    H123668   6.092   5.781  13.713 -2.0470 -0.1759 -1.9030
  751TIP3    H223669   6.178   5.657  13.699 -0.4845  0.6416  0.0291
  752TIP3   OH223670   2.344   5.082  10.456  0.0530  0.0914  0.3561
  752TIP3    H123671   2.375   5.022  10.388 -0.2364 -0.3220  0.5774
  752TIP3    H223672   2.406   5.071  10.528  0.4958  0.7083  0.0667
  753TIP3   OH223673   2.205   5.477   5.399  0.1872 -0.7560  0.0165
  753TIP3    H123674   2.166   5.413   5.339 -0.7978 -1.3293  1.1995
  753TIP3    H223675   2.209   5.558   5.349  1.1661 -1.6380 -1.4239
  754TIP3   OH223676   2.691   4.432   0.420  0.6377 -0.9653 -0.3391
  754TIP3    H123677   2.692   4.410   0.326  0.0292  0.8642 -0.8228
  754TIP3    H223678   2.775   4.400   0.453  1.7616  0.1415 -1.9742
  755TIP3   OH223679   5.667   2.139  16.186  0.1721  0.3764 -0.0589
  755TIP3    H123680   5.718   2.220  16.184 -0.4726  0.8162  0.9324
  755TIP3    H223681   5.711   2.082  16.121 -0.0250  1.8729 -1.5784
  756TIP3   OH223682   4.217   4.573  12.798 -0.2906  0.1439 -0.3368
  756TIP3    H123683   4.284   4.633  12.765  0.5124 -0.7377 -0.3729
  756TIP3    H223684   4.237   4.489  12.755 -1.1013 -0.2659  0.0610
  757TIP3   OH223685   0.877   6.196  13.898  0.0040 -0.2830  0.3222
  757TIP3    H123686   0.882   6.225  13.989  0.9812 -1.7516  0.7720
  757TIP3    H223687   0.791   6.155  13.890  0.1196 -0.6042  0.7299
  758TIP3   OH223688   6.168   6.276  12.762  0.2173  0.0059  0.4255
  758TIP3    H123689   6.258   6.244  12.760 -0.1824 -1.1756  0.4730
  758TIP3    H223690   6.149   6.299  12.671  0.0344 -1.3454  0.0994
  759TIP3   OH223691   5.006   0.753   5.897 -0.5201 -0.6940 -0.2858
  759TIP3    H123692   4.940   0.800   5.948 -0.2342 -0.4105 -0.1765
  759TIP3    H223693   5.085   0.756   5.951  0.1664  0.7499 -1.2972
  760TIP3   OH223694   1.370   5.464  13.892 -0.2946  0.1854 -0.1233
  760TIP3    H123695   1.436   5.407  13.853 -0.0201 -0.8820  1.7588
  760TIP3    H223696   1.287   5.416  13.882 -0.4804  0.6402 -0.7921
  761TIP3   OH223697   6.407   3.473  14.631  0.3059 -0.7986 -0.2070
  761TIP3    H123698   6.391   3.421  14.710 -0.6275 -0.3795 -0.1049
  761TIP3    H223699   6.485   3.435  14.592 -0.1271 -2.0121  0.0820
  762TIP3   OH223700   1.285   2.903  16.748  0.5489  0.2647  0.3269
  762TIP3    H123701   1.212   2.938  16.800 -0.8432 -0.4818 -1.0447
  762TIP3    H223702   1.317   2.829  16.799 -0.3231 -0.0240  0.4721
  763TIP3   OH223703   0.859   5.141   4.128  0.5318 -0.3221  0.1454
  763TIP3    H123704   0.868   5.052   4.096 -1.5414 -1.0202  1.3257
  763TIP3    H223705   0.801   5.134   4.204  2.7683  1.6322  2.2272
  764TIP3   OH223706   1.665   5.557   3.013  0.4054 -0.0761  0.1948
  764TIP3    H123707   1.679   5.569   3.107  1.2949 -0.5405  0.1353
  764TIP3    H223708   1.572   5.571   3.000  0.0631 -1.1211  1.3428
  765TIP3   OH223709   5.989   0.133  15.017  0.8845 -0.1378  0.1254
  765TIP3    H123710   6.002   0.133  15.112 -1.2209 -0.2132  0.4669
  765TIP3    H223711   5.953   0.220  14.998 -1.4344 -1.0889 -0.1169
  766TIP3   OH223712   6.354   3.758   6.844  0.9538  0.0799  0.2490
  766TIP3    H123713   6.271   3.803   6.862  0.8258  0.6091 -1.5196
  766TIP3    H223714   6.401   3.816   6.784  0.8885 -1.9691 -1.9408
  767TIP3   OH223715   3.859   1.830  16.802  0.0278  0.3421  0.1311
  767TIP3    H123716   3.904   1.750  16.776 -2.8990 -0.8980 -1.6009
  767TIP3    H223717   3.876   1.838  16.896  0.2582 -2.4563  0.4191
  768TIP3   OH223718   5.929   0.834  15.485 -0.2161 -0.0329 -0.6531
  768TIP3    H123719   5.886   0.799  15.563 -1.9137  1.9022 -0.6366
  768TIP3    H223720   6.005   0.880  15.518  0.5052 -1.3281 -0.4284
  769TIP3   OH223721   6.755   2.820   5.353 -0.0563 -0.0267 -0.6328
  769TIP3    H123722   6.749   2.781   5.440 -0.3146 -1.0537 -1.0956
  769TIP3    H223723   6.668   2.809   5.316  0.0480  0.4183 -1.0162
  770TIP3   OH223724   1.544   6.304   6.364  0.6131  0.1768 -0.0654
  770TIP3    H123725   1.590   6.311   6.280 -0.1694 -1.9549 -0.7421
  770TIP3    H223726   1.542   6.210   6.382 -1.6328  0.3693  0.9576
  771TIP3   OH223727   0.375   4.048   6.184  0.4726  0.1281 -0.1527
  771TIP3    H123728   0.341   4.053   6.273 -2.0916  2.2767 -1.1328
  771TIP3    H223729   0.314   3.989   6.139  1.2226 -0.2154 -0.7476
  772TIP3   OH223730   2.497   2.976   0.355  0.4078  0.2604 -0.4808
  772TIP3    H123731   2.422   2.962   0.412 -1.6640 -1.5703 -3.4144
  772TIP3    H223732   2.507   3.072   0.352 -0.5036  0.4682  1.4374
  773TIP3   OH223733   1.544   5.747   4.618 -0.4538  0.1656  0.3149
  773TIP3    H123734   1.593   5.767   4.698  0.2583  0.1148 -0.1002
  773TIP3    H223735   1.452   5.745   4.646 -0.2142  0.1499  1.1266
  774TIP3   OH223736   3.065   6.107   1.079  0.1091 -0.5073  0.4298
  774TIP3    H123737   3.048   6.183   1.024 -2.2758  0.9203  2.9071
  774TIP3    H223738   3.158   6.112   1.099  0.9657 -0.8306 -2.9194
  775TIP3   OH223739   0.748   0.241   2.446  0.0231 -0.0250  0.4955
  775TIP3    H123740   0.668   0.207   2.486  0.6883 -0.0073  1.8927
  775TIP3    H223741   0.806   0.165   2.439 -0.7022 -0.4337 -2.1835
  776TIP3   OH223742   2.086   6.217   3.813 -0.4336 -0.2494 -0.4197
  776TIP3    H123743   1.996   6.248   3.808 -0.7347 -1.1546 -0.8900
  776TIP3    H223744   2.102   6.175   3.729  0.2897 -0.4657 -0.1862
  777TIP3   OH223745   2.768   1.208   5.529 -0.1032 -0.4854  0.1500
  777TIP3    H123746   2.851   1.222   5.483  1.4247 -1.3390  2.4458
  777TIP3    H223747   2.712   1.166   5.464  1.2484  0.0768 -1.4767
  778TIP3   OH223748   4.148   5.813   0.767  0.0885 -0.7499  0.3778
  778TIP3    H123749   4.178   5.827   0.857  1.3881 -0.4616 -0.0900
  778TIP3    H223750   4.165   5.895   0.722 -1.2346 -0.6435  0.0249
  779TIP3   OH223751   6.756   3.134   4.848 -0.0158 -0.0134  0.6742
  779TIP3    H123752   6.831   3.164   4.797  2.2030 -1.8912  2.6426
  779TIP3    H223753   6.752   3.040   4.833 -0.2735 -0.3669  2.6913
  780TIP3   OH223754   2.270   1.360  16.871  0.0409  0.0224  0.5092
  780TIP3    H123755   2.225   1.319  16.797 -1.6539 -0.6461  1.8372
  780TIP3    H223756   2.341   1.409  16.831 -0.5808 -0.6111 -1.5303
  781TIP3   OH223757   1.833   4.573  12.934  0.0528 -0.3125 -0.2795
  781TIP3    H123758   1.850   4.595  13.025 -1.8028 -0.0893  0.0588
  781TIP3    H223759   1.748   4.613  12.915  0.1289 -0.8456 -1.9374
  782TIP3   OH223760   2.775   3.707   0.480  0.5629  0.5938  0.5901
  782TIP3    H123761   2.692   3.732   0.440  0.9068  0.6456 -0.1179
  782TIP3    H223762   2.790   3.772   0.548 -0.4126  0.0569  1.3478
  783TIP3   OH223763   1.479   2.325   6.339  0.0170 -0.0066  0.5486
  783TIP3    H123764   1.393   2.312   6.378 -0.5088  0.4831 -0.3897
  783TIP3    H223765   1.504   2.414   6.365 -0.1967  0.2046  0.0587
  784TIP3   OH223766   5.741   5.481   4.554 -0.7929 -0.3549  0.0246
  784TIP3    H123767   5.659   5.471   4.603 -1.6051 -2.0217 -1.5183
  784TIP3    H223768   5.736   5.569   4.517 -0.8984  0.3299  1.5644
  785TIP3   OH223769   0.722   2.293  17.226  0.4091 -0.5673  0.0406
  785TIP3    H123770   0.733   2.199  17.237 -0.1728 -0.9127 -1.9301
  785TIP3    H223771   0.777   2.315  17.151  2.1695  1.0855  1.6972
  786TIP3   OH223772   4.071   2.533   4.720 -0.0820 -0.6814 -0.1001
  786TIP3    H123773   4.022   2.614   4.702 -1.9473 -1.0771  2.5475
  786TIP3    H223774   4.118   2.551   4.801 -0.3501 -2.1528  0.4081
  787TIP3   OH223775   3.283   3.010  12.276 -0.3466  0.2167  0.0981
  787TIP3    H123776   3.236   3.071  12.332  0.5126  1.3488 -0.3552
  787TIP3    H223777   3.373   3.011  12.310 -0.1838 -0.3164 -0.3025
  788TIP3   OH223778   1.520   2.751  12.117  0.1483  0.4264  0.2654
  788TIP3    H123779   1.603   2.704  12.105 -0.1955 -0.1487  0.1041
  788TIP3    H223780   1.511   2.759  12.212 -0.4172 -0.9873  0.3470
  789TIP3   OH223781   0.403   1.164  11.331 -0.0032  0.4400 -0.4596
  789TIP3    H123782   0.362   1.248  11.351  0.2197  0.3371  0.4927
  789TIP3    H223783   0.359   1.102  11.389 -0.1056 -0.0831 -1.1008
  790TIP3   OH223784   2.794   5.789  14.684  0.0115  0.2298 -0.1315
  790TIP3    H123785   2.719   5.738  14.714 -1.0623  0.9607 -1.4158
  790TIP3    H223786   2.860   5.724  14.659 -0.9239 -0.5159 -0.7411
  791TIP3   OH223787   1.401   1.981  16.124 -0.2510  0.0123  0.1418
  791TIP3    H123788   1.354   1.912  16.170 -1.5068  0.4019 -0.5226
  791TIP3    H223789   1.488   1.943  16.107  0.3420 -0.0774  2.9228
  792TIP3   OH223790   5.959   6.733  16.535  0.1275 -0.4824 -0.1574
  792TIP3    H123791   6.023   6.715  16.467  0.5664  0.2805  0.0495
  792TIP3    H223792   5.884   6.772  16.489 -0.5374 -2.0907 -0.5118
  793TIP3   OH223793   2.025   1.144  12.595  0.1397 -0.6505 -0.2819
  793TIP3    H123794   2.007   1.208  12.526  1.9007  1.5068  1.1058
  793TIP3    H223795   2.071   1.073  12.551  2.5798  1.3702 -1.2113
  794TIP3   OH223796   0.826   3.860   1.563  0.0050  0.1498 -0.1555
  794TIP3    H123797   0.763   3.800   1.603  0.6985 -0.6511 -0.2343
  794TIP3    H223798   0.896   3.869   1.629  1.0098 -0.9447 -1.0270
  795TIP3   OH223799   6.485   4.638   0.889  0.6318 -0.3553 -0.3523
  795TIP3    H123800   6.490   4.543   0.899  2.3203 -0.2181  0.2712
  795TIP3    H223801   6.474   4.671   0.978 -1.1123  0.0064 -0.6632
  796TIP3   OH223802   3.903   6.385  11.943 -0.3648 -0.5765 -0.5545
  796TIP3    H123803   3.917   6.473  11.979 -1.1996 -0.7082  0.1128
  796TIP3    H223804   3.964   6.329  11.992  1.1902 -0.1726 -1.9453
  797TIP3   OH223805   0.260   3.813  13.037 -0.1243 -0.4818 -0.5805
  797TIP3    H123806   0.279   3.896  13.081  0.5491 -0.6769 -0.5009
  797TIP3    H223807   0.286   3.828  12.946 -2.0359  0.1102 -1.0778
  798TIP3   OH223808   0.973   4.452  15.690 -0.2720  0.0670 -0.3833
  798TIP3    H123809   0.925   4.523  15.732 -1.7140 -1.0874 -0.0079
  798TIP3    H223810   1.000   4.395  15.763  0.8087  0.1613 -0.6815
  799TIP3   OH223811   4.419   6.188  15.325  0.0677 -0.0651 -0.3776
  799TIP3    H123812   4.344   6.221  15.374  1.5087  0.5597  1.5467
  799TIP3    H223813   4.442   6.260  15.266  0.4072  0.6037  0.5399
  800TIP3   OH223814   2.303   0.145  16.287  0.3042  0.3791  0.4282
  800TIP3    H123815   2.350   0.167  16.368  0.7895  1.9641 -0.2356
  800TIP3    H223816   2.291   0.050  16.291  0.0841  0.4428  2.4730
  801TIP3   OH223817   0.099   3.508  16.454 -0.1308  0.0400  0.4139
  801TIP3    H123818   0.018   3.538  16.493 -1.1136  1.5387 -2.4534
  801TIP3    H223819   0.077   3.424  16.413 -0.1617  0.2519 -0.0179
  802TIP3   OH223820   3.910   1.626  15.329  0.3953  0.3205 -0.2553
  802TIP3    H123821   3.989   1.576  15.352 -0.2756 -1.2877 -1.2661
  802TIP3    H223822   3.943   1.705  15.286  1.4566 -0.4496 -0.9047
  803TIP3   OH223823   3.965   3.696  12.191 -0.2085 -0.6498  0.1862
  803TIP3    H123824   4.010   3.708  12.108 -0.7501 -2.1959 -0.3564
  803TIP3    H223825   3.958   3.785  12.227  0.9572 -0.0820 -0.9077
  804TIP3   OH223826   3.137   6.071   5.660  0.3038  0.1847 -0.1705
  804TIP3    H123827   3.199   6.127   5.614  1.0361 -1.7249 -1.6372
  804TIP3    H223828   3.116   6.119   5.740  3.1781  1.1958  0.0766
  805TIP3   OH223829   3.104   4.870   0.547  0.4935 -0.2545  0.0104
  805TIP3    H123830   3.042   4.821   0.601 -1.3929  1.3325 -0.6150
  805TIP3    H223831   3.116   4.814   0.469 -0.2217 -0.5442  0.0992
  806TIP3   OH223832   4.077   3.400  17.204 -0.1052 -0.3180  0.6431
  806TIP3    H123833   4.075   3.305  17.191  1.4994 -0.1853 -1.0660
  806TIP3    H223834   4.051   3.437  17.120 -2.3677  0.8256  1.7668
  807TIP3   OH223835   4.264   2.810   1.964  0.5462  0.1517 -0.2208
  807TIP3    H123836   4.233   2.896   1.990  2.3546  1.4971 -2.1738
  807TIP3    H223837   4.337   2.792   2.024  1.0653  0.6488 -0.6896
  808TIP3   OH223838   4.446   2.689   0.892 -0.5260 -0.7938  0.5072
  808TIP3    H123839   4.353   2.691   0.869 -0.6094 -1.6090  0.7516
  808TIP3    H223840   4.486   2.629   0.829 -0.6053 -2.3746  1.8735
  809TIP3   OH223841   2.461   2.595   0.519 -0.2024  0.3919 -0.0188
  809TIP3    H123842   2.399   2.563   0.584 -0.8396 -0.1182 -0.8670
  809TIP3    H223843   2.523   2.648   0.570 -0.0822 -0.8324  1.1461
  810TIP3   OH223844   6.196   3.354  16.392 -0.2498 -0.7488  0.2834
  810TIP3    H123845   6.261   3.308  16.339  0.7334 -2.2226  2.5870
  810TIP3    H223846   6.153   3.285  16.442 -0.0823  0.6146  2.4512
  811TIP3   OH223847   5.474   1.459  15.840 -0.1370 -0.1796 -0.0321
  811TIP3    H123848   5.481   1.477  15.934 -0.3023 -1.6006  0.2741
  811TIP3    H223849   5.482   1.364  15.833 -0.1519 -0.0988 -1.4642
  812TIP3   OH223850   3.541   3.404   2.973 -0.0397 -0.2056  0.4197
  812TIP3    H123851   3.540   3.440   3.062  1.7348 -0.7839  0.7204
  812TIP3    H223852   3.565   3.312   2.985 -1.0564 -0.6185 -0.5795
  813TIP3   OH223853   4.968   6.670   3.267  0.0683  0.3172  0.6064
  813TIP3    H123854   4.939   6.632   3.184  0.6728 -1.4015  1.1501
  813TIP3    H223855   4.888   6.707   3.305 -0.9940 -2.1252  0.9116
  814TIP3   OH223856   1.704   3.288   1.044 -0.1082 -0.1311 -0.1413
  814TIP3    H123857   1.724   3.378   1.073 -0.1916  0.8091 -2.7649
  814TIP3    H223858   1.787   3.241   1.054  0.0087  0.2694  0.9947
  815TIP3   OH223859   4.732   2.009  12.731 -0.3837 -0.2551  0.3546
  815TIP3    H123860   4.762   2.058  12.807 -0.8167  0.3661  0.1362
  815TIP3    H223861   4.783   2.043  12.658 -1.1607  0.3829  0.0853
  816TIP3   OH223862   2.030   1.525  12.755 -0.6198  0.0378  0.0915
  816TIP3    H123863   2.068   1.613  12.754  1.2942 -0.6824  1.7233
  816TIP3    H223864   1.942   1.537  12.790 -1.6443  1.6372 -2.7126
  817TIP3   OH223865   1.714   0.992  13.496  0.0408 -0.4247 -0.2903
  817TIP3    H123866   1.634   0.940  13.495  0.0285 -0.4154 -1.7825
  817TIP3    H223867   1.701   1.059  13.429  0.6015  0.6748  0.6609
  818TIP3   OH223868   2.373   0.372  11.168  0.5400 -0.1727 -0.7760
  818TIP3    H123869   2.352   0.446  11.111 -1.9619  1.3098  1.8086
  818TIP3    H223870   2.432   0.408  11.234 -3.3255  0.8334  2.5791
  819TIP3   OH223871   1.641   2.607   2.052 -0.1050 -0.2640  0.2160
  819TIP3    H123872   1.718   2.572   2.008  0.6406 -0.2112  1.4420
  819TIP3    H223873   1.602   2.533   2.098  0.2199  0.0529  1.0193
  820TIP3   OH223874   1.774   3.649  11.718 -0.4410  1.1340  0.1656
  820TIP3    H123875   1.757   3.727  11.666 -0.2474 -0.3056 -2.1843
  820TIP3    H223876   1.702   3.589  11.696  0.7444 -0.2744 -0.0285
  821TIP3   OH223877   6.415   0.890  16.913  0.4039  0.0371  0.1125
  821TIP3    H123878   6.412   0.890  17.009 -0.8756 -0.4746  0.0967
  821TIP3    H223879   6.456   0.974  16.890  0.1181  0.4638  1.1053
  822TIP3   OH223880   1.972   6.155  11.526  0.3036  0.1219  0.0444
  822TIP3    H123881   1.898   6.111  11.567  1.1859  0.5310  2.2070
  822TIP3    H223882   2.046   6.095  11.539  0.7468  0.5693 -0.3521
  823TIP3   OH223883   4.462   5.986  15.653 -0.6158  0.5253  0.1797
  823TIP3    H123884   4.505   6.041  15.719 -0.7212 -0.4814  1.1036
  823TIP3    H223885   4.500   5.899  15.666  0.1554  0.5169 -1.8146
  824TIP3   OH223886   3.323   4.730  15.817  0.4420 -0.5855 -0.3363
  824TIP3    H123887   3.285   4.715  15.730 -1.0977 -0.1724  0.2241
  824TIP3    H223888   3.335   4.643  15.853 -0.8231 -0.7423 -0.2206
  825TIP3   OH223889   4.911   6.148   5.005 -0.3551 -0.0180 -0.4564
  825TIP3    H123890   4.920   6.151   5.101 -0.0627 -0.5064 -0.4665
  825TIP3    H223891   4.998   6.168   4.972  0.2383 -2.4590 -0.5789
  826TIP3   OH223892   5.512   6.272   4.985  0.7021 -0.3567  0.9143
  826TIP3    H123893   5.481   6.309   4.902  0.9136  0.3069  1.1213
  826TIP3    H223894   5.481   6.334   5.052 -0.8195 -1.6915  1.4960
  827TIP3   OH223895   4.125   1.048   1.427 -0.3521  0.0771  0.2096
  827TIP3    H123896   4.122   1.020   1.518  0.1583 -0.7216 -0.0068
  827TIP3    H223897   4.104   0.969   1.377 -0.4803  0.4688 -0.3699
  828TIP3   OH223898   1.522   5.861   5.749 -0.1840  0.1970  0.0811
  828TIP3    H123899   1.507   5.828   5.660 -1.5079 -0.3679  0.5093
  828TIP3    H223900   1.618   5.863   5.757 -0.0317  0.4863 -1.4363
  829TIP3   OH223901   3.118   0.922   1.428 -0.4995  0.1107  0.4469
  829TIP3    H123902   3.151   0.844   1.472 -1.4721 -1.6693 -1.8041
  829TIP3    H223903   3.197   0.964   1.393  0.0350  0.2123  1.7087
  830TIP3   OH223904   0.127   3.212  12.665  0.3056 -0.0337  0.4594
  830TIP3    H123905   0.221   3.197  12.662  0.4207  0.8319 -1.1645
  830TIP3    H223906   0.117   3.293  12.715  0.5176  0.4448 -0.2610
  831TIP3   OH223907   3.286   5.038   0.996  0.9696 -0.5013  0.4940
  831TIP3    H123908   3.306   5.125   0.962  2.0231 -0.2534  1.6547
  831TIP3    H223909   3.196   5.021   0.970  0.4538  1.3144  1.0054
  832TIP3   OH223910   6.196   0.694  13.010 -0.1253  0.0685 -0.2468
  832TIP3    H123911   6.143   0.770  13.034 -1.6983 -1.0374 -0.0615
  832TIP3    H223912   6.277   0.703  13.061 -1.3259  0.3274  1.7090
  833TIP3   OH223913   1.330   2.216   0.614  0.6462 -0.2547 -0.3800
  833TIP3    H123914   1.312   2.195   0.706  2.0447 -0.2574 -0.0867
  833TIP3    H223915   1.347   2.132   0.573 -1.5547 -0.4385 -1.0566
  834TIP3   OH223916   5.250   2.325   2.040  0.0024  0.9673 -0.3005
  834TIP3    H123917   5.321   2.386   2.020  3.9665 -1.8599  3.2498
  834TIP3    H223918   5.275   2.244   1.995 -1.4892  0.1276  0.3082
  835TIP3   OH223919   5.898   6.608  12.323  0.4961 -0.3388  0.1982
  835TIP3    H123920   5.963   6.552  12.281 -0.9220 -0.9438 -1.3204
  835TIP3    H223921   5.845   6.549  12.377  0.0898 -0.1980 -0.0327
  836TIP3   OH223922   4.391   2.221   2.207 -0.1900 -0.0624  0.5985
  836TIP3    H123923   4.386   2.126   2.196  0.1623  0.0448 -0.6505
  836TIP3    H223924   4.360   2.257   2.124  3.5016  0.8424 -0.5633
  837TIP3   OH223925   3.991   2.785   4.653  0.3593 -0.0007  0.3848
  837TIP3    H123926   3.980   2.865   4.705  0.0112  0.1311  0.1077
  837TIP3    H223927   3.971   2.811   4.564 -3.3992 -1.1647  0.7099
  838TIP3   OH223928   2.058   4.909   4.764 -0.1883  0.4119  0.0135
  838TIP3    H123929   2.046   4.884   4.855  3.1728 -0.9466  0.2354
  838TIP3    H223930   2.082   5.001   4.768  1.6193 -0.0531  0.7462
  839TIP3   OH223931   3.297   0.280  13.923  0.4737  0.3877 -0.0347
  839TIP3    H123932   3.210   0.302  13.889  0.5479 -1.4392 -1.5176
  839TIP3    H223933   3.349   0.359  13.908 -0.7008  1.2392  0.1832
  840TIP3   OH223934   5.148   3.446   5.751 -0.1271 -0.0123 -0.4826
  840TIP3    H123935   5.115   3.371   5.801  0.2669 -0.7655 -1.3248
  840TIP3    H223936   5.197   3.498   5.815  2.4593 -2.2027 -0.5207
  841TIP3   OH223937   0.155   0.149  14.917  0.0594  0.4072  0.6373
  841TIP3    H123938   0.130   0.063  14.952  0.4380  0.5183  1.2034
  841TIP3    H223939   0.251   0.146  14.914  0.1561  1.3207  2.0350
  842TIP3   OH223940   2.474   6.594  13.572 -0.1875 -0.2728  0.0994
  842TIP3    H123941   2.484   6.538  13.495  0.5945  1.5556 -1.2112
  842TIP3    H223942   2.388   6.633  13.562 -0.3065 -0.4424  0.4556
  843TIP3   OH223943   0.582   1.800  12.848  0.5943  0.2751 -0.3013
  843TIP3    H123944   0.536   1.717  12.855  0.4006  0.3665 -0.4826
  843TIP3    H223945   0.566   1.828  12.758  0.0935  0.8419 -0.0396
  844TIP3   OH223946   3.466   4.704  14.159  0.1164  0.2185 -0.1433
  844TIP3    H123947   3.465   4.719  14.064  1.5979 -0.2790 -0.2698
  844TIP3    H223948   3.432   4.615  14.169  3.5120 -1.2999 -0.6381
  845TIP3   OH223949   2.083   0.391   3.749  0.2410 -0.0521  0.6700
  845TIP3    H123950   2.136   0.365   3.825  4.0935 -2.2024 -2.3724
  845TIP3    H223951   2.015   0.324   3.744  0.3897 -0.3108  1.7675
  846TIP3   OH223952   6.074   1.028  15.958  0.6349  0.3663 -0.1971
  846TIP3    H123953   6.110   0.944  15.929  1.5248  1.1645 -1.5232
  846TIP3    H223954   5.989   1.034  15.915 -0.3049 -0.6855  1.4386
  847TIP3   OH223955   2.794   5.752  11.430  0.4590  0.0355 -0.3893
  847TIP3    H123956   2.799   5.842  11.396  1.2900 -0.4008 -1.4619
  847TIP3    H223957   2.882   5.717  11.417  0.2840 -0.7701  0.5204
  848TIP3   OH223958   4.356   4.172   0.510 -0.0302  0.5859  0.3713
  848TIP3    H123959   4.315   4.253   0.478  2.4655  1.5601 -0.5831
  848TIP3    H223960   4.303   4.102   0.470  0.3614  1.7732 -2.5130
  849TIP3   OH223961   3.298   6.174  13.450  0.4411 -0.2412 -0.6800
  849TIP3    H123962   3.238   6.100  13.443  1.1184 -0.7726 -1.0167
  849TIP3    H223963   3.302   6.209  13.361 -1.1033  1.2179 -0.2313
  850TIP3   OH223964   4.997   2.115  15.182  0.7587  0.0582 -0.0542
  850TIP3    H123965   4.962   2.196  15.220  0.8043 -1.0231  2.4592
  850TIP3    H223966   5.084   2.106  15.220  1.4116 -0.3673 -1.5878
  851TIP3   OH223967   6.535   4.514  11.760 -0.3770  0.1363  0.3412
  851TIP3    H123968   6.547   4.568  11.682 -1.1354  0.5040  0.4756
  851TIP3    H223969   6.617   4.524  11.809  0.9498 -1.6696 -1.3383
  852TIP3   OH223970   3.189   3.442  12.689 -0.4252 -0.3091 -0.4804
  852TIP3    H123971   3.162   3.398  12.769  2.6498  1.0714  1.5435
  852TIP3    H223972   3.142   3.526  12.691 -0.1389 -0.1557  0.0696
  853TIP3   OH223973   0.081   6.644   2.520 -0.1038  0.6037  0.0508
  853TIP3    H123974   0.153   6.667   2.579 -1.1347 -1.9741  2.5329
  853TIP3    H223975   0.002   6.655   2.573 -1.2012 -0.4934 -1.2770
  854TIP3   OH223976   1.733   2.935  14.743  0.6004 -0.1290  0.4265
  854TIP3    H123977   1.779   2.877  14.683 -0.4535 -0.7126  0.1469
  854TIP3    H223978   1.660   2.970  14.691  1.3127  1.6146  0.5253
  855TIP3   OH223979   4.631   4.684  10.604 -0.3027  0.5212  0.2879
  855TIP3    H123980   4.575   4.659  10.531 -1.1481 -0.0070  1.0885
  855TIP3    H223981   4.649   4.602  10.650  1.0808  0.6948  0.0914
  856TIP3   OH223982   0.387   1.427   1.732  0.6855  0.0028  0.1227
  856TIP3    H123983   0.315   1.376   1.767  0.4653 -0.5102 -1.0432
  856TIP3    H223984   0.416   1.481   1.805  0.0762 -0.8443  1.0082
  857TIP3   OH223985   4.574   1.808   4.793  1.1228  0.3176 -0.3798
  857TIP3    H123986   4.596   1.717   4.809  3.1439  0.5139 -1.8133
  857TIP3    H223987   4.631   1.857   4.852 -0.8306  0.6963  1.3161
  858TIP3   OH223988   1.096   1.762   0.385  0.6431  0.0862 -0.3838
  858TIP3    H123989   1.109   1.675   0.423  3.0265  0.0319 -1.1475
  858TIP3    H223990   1.030   1.803   0.441  0.9844 -1.4634  1.2527
  859TIP3   OH223991   5.208   1.383  15.668  0.6456 -0.0533  1.0967
  859TIP3    H123992   5.229   1.449  15.735 -1.9356  2.8437 -0.6876
  859TIP3    H223993   5.279   1.391  15.604  0.9824  0.1158  1.4808
  860TIP3   OH223994   0.059   3.082  10.682  0.1313  0.0434 -0.4565
  860TIP3    H123995   0.114   3.031  10.622 -0.8289 -1.9409  0.2720
  860TIP3    H223996   0.120   3.115  10.748  0.7975  0.0024 -1.0293
  861TIP3   OH223997   1.421   3.415   2.823 -0.1595  0.2159 -0.5742
  861TIP3    H123998   1.483   3.475   2.782  1.0894  0.7968  1.9218
  861TIP3    H223999   1.369   3.471   2.880 -1.0037 -0.6780 -0.4500
  862TIP3   OH224000   5.889   2.106  14.494 -0.2955 -0.4731  0.6944
  862TIP3    H124001   5.925   2.147  14.573  0.8205 -1.1530  0.5713
  862TIP3    H224002   5.959   2.115  14.429 -1.6562  1.1763 -0.6297
  863TIP3   OH224003   2.303   5.750   1.111 -0.2942 -0.2843 -0.2609
  863TIP3    H124004   2.361   5.794   1.174  0.1346 -1.1820 -0.0072
  863TIP3    H224005   2.359   5.684   1.069 -1.4252 -2.0889  0.9321
  864TIP3   OH224006   1.803   6.050   3.030  0.1455 -0.0803  0.0154
  864TIP3    H124007   1.766   6.102   2.958  0.0307 -1.1382 -0.7113
  864TIP3    H224008   1.831   5.968   2.989  2.0854  0.1408  0.7948
  865TIP3   OH224009   5.947   4.721  14.096  0.3945  0.3707 -0.1633
  865TIP3    H124010   5.944   4.769  14.179  1.7259  1.4378 -0.6813
  865TIP3    H224011   5.995   4.780  14.037 -0.5641 -0.3342 -1.7078
  866TIP3   OH224012   2.902   5.864  13.727  0.0117 -0.4919  0.2435
  866TIP3    H124013   2.983   5.902  13.693  0.1312  0.3144  1.3987
  866TIP3    H224014   2.902   5.886  13.820 -0.8636 -1.6824  0.5501
  867TIP3   OH224015   1.347   1.239  16.559 -0.1006 -0.1458 -0.2909
  867TIP3    H124016   1.327   1.191  16.639  2.6678 -1.3895 -0.2121
  867TIP3    H224017   1.389   1.320  16.589 -0.1140 -0.0661 -0.4804
  868TIP3   OH224018   4.116   0.791  15.866  0.3010  0.0895  0.5217
  868TIP3    H124019   4.048   0.735  15.904  0.8628 -1.2672 -0.3754
  868TIP3    H224020   4.181   0.802  15.935 -0.6439  1.1163  1.2743
  869TIP3   OH224021   5.114   2.576   5.712  0.2284  0.0934  0.0082
  869TIP3    H124022   5.130   2.515   5.640  0.7254  1.1910 -0.8378
  869TIP3    H224023   5.115   2.662   5.671  0.5784  0.7525  1.3421
  870TIP3   OH224024   5.749   1.521   2.929 -0.2262 -0.0585 -0.0541
  870TIP3    H124025   5.719   1.606   2.898 -0.1276  1.0652  2.6203
  870TIP3    H224026   5.838   1.513   2.895 -0.2677  0.8731 -0.4048
  871TIP3   OH224027   1.212   1.195  12.004  0.0187  0.4997 -0.1346
  871TIP3    H124028   1.229   1.288  12.023  2.0701  0.6317 -2.1798
  871TIP3    H224029   1.118   1.184  12.023  0.1209  2.4450  2.0470
  872TIP3   OH224030   4.550   5.795  17.207  0.1622  0.4204  0.1766
  872TIP3    H124031   4.615   5.807  17.276 -2.0549  1.4347  2.2154
  872TIP3    H224032   4.518   5.883  17.188 -2.2656 -0.2286  0.9600
  873TIP3   OH224033   5.815   2.163   4.547  0.4800 -0.1834  1.0202
  873TIP3    H124034   5.893   2.137   4.498  1.0149 -1.1331  2.3176
  873TIP3    H224035   5.750   2.095   4.525  0.4519 -0.1439  0.9812
  874TIP3   OH224036   0.221   3.597  14.775 -0.2602  0.5255 -1.2016
  874TIP3    H124037   0.192   3.674  14.726 -1.7046  1.3248  0.7876
  874TIP3    H224038   0.236   3.630  14.863 -1.4019 -1.5391 -0.1716
  875TIP3   OH224039   6.559   4.679  10.788 -0.3642  0.1369  0.3748
  875TIP3    H124040   6.588   4.751  10.731 -0.9557 -0.4123 -0.6532
  875TIP3    H224041   6.497   4.721  10.848 -1.6636  0.3143 -1.0079
  876TIP3   OH224042   3.320   3.930   2.061 -0.6326 -0.3735 -0.0159
  876TIP3    H124043   3.276   3.991   2.120 -2.8658  1.5006 -3.2715
  876TIP3    H224044   3.314   3.972   1.975  1.7314 -3.2273 -1.7665
  877TIP3   OH224045   3.754   4.982   4.545  0.6190 -0.0997 -0.3400
  877TIP3    H124046   3.693   4.982   4.472 -1.1442 -1.1191  1.0577
  877TIP3    H224047   3.779   5.073   4.556 -1.8824  0.6222 -0.0120
  878TIP3   OH224048   3.477   2.295  13.222 -0.1478  0.1530 -0.4324
  878TIP3    H124049   3.506   2.210  13.255  1.5408  0.7940 -0.1506
  878TIP3    H224050   3.543   2.320  13.158 -0.9074  1.0273 -0.9072
  879TIP3   OH224051   1.011   5.214  11.858 -0.3823  0.0772  0.0985
  879TIP3    H124052   1.063   5.280  11.905  0.0674 -0.4476  0.3510
  879TIP3    H224053   0.920   5.236  11.878 -0.1969 -0.5234  1.7648
  880TIP3   OH224054   3.821   0.981  16.465 -0.3716  0.4955  0.3304
  880TIP3    H124055   3.794   1.053  16.523 -0.5909  1.1680 -0.5794
  880TIP3    H224056   3.740   0.933  16.448 -0.1689 -0.1912  1.2051
  881TIP3   OH224057   3.457   6.261   5.282  0.3640  0.0495  0.0651
  881TIP3    H124058   3.549   6.234   5.274  0.5411  1.1147 -2.0814
  881TIP3    H224059   3.419   6.240   5.197 -1.3191 -0.0303  0.8112
  882TIP3   OH224060   4.198   4.720   4.962  0.3017 -0.4144 -0.2591
  882TIP3    H124061   4.209   4.625   4.957  0.8767 -0.3230 -0.8249
  882TIP3    H224062   4.109   4.735   4.932 -0.1047 -0.8394  0.6755
  883TIP3   OH224063   4.067   4.897  15.476 -0.0557  0.2663  0.5287
  883TIP3    H124064   4.094   4.987  15.494 -0.5113  0.1085  2.1706
  883TIP3    H224065   4.030   4.866  15.558 -0.3014 -1.2938 -0.1272
  884TIP3   OH224066   5.998   0.089   4.323  0.3056 -0.5154  0.2081
  884TIP3    H124067   5.995   0.174   4.367 -0.3168 -0.6465  0.4302
  884TIP3    H224068   6.014   0.109   4.231 -2.2290  0.0033 -0.1871
  885TIP3   OH224069   2.857   3.781  14.160 -0.2822  0.3213  0.1287
  885TIP3    H124070   2.766   3.804  14.140 -0.9492  0.8827  3.2974
  885TIP3    H224071   2.852   3.694  14.199  0.6820 -0.0497 -0.5538
  886TIP3   OH224072   2.575   4.199   2.250 -0.2052  1.0843  0.2133
  886TIP3    H124073   2.572   4.209   2.345  0.2505 -0.6002  0.4411
  886TIP3    H224074   2.486   4.172   2.226 -0.4144  1.8546  0.1050
  887TIP3   OH224075   4.969   5.962  14.458  0.4668 -0.4780  0.0957
  887TIP3    H124076   4.950   5.875  14.493  1.0274 -1.0949 -1.0584
  887TIP3    H224077   4.892   5.983  14.404  0.9650 -0.9322 -0.8216
  888TIP3   OH224078   3.974   0.649   6.577  0.1068 -0.0989 -0.2331
  888TIP3    H124079   4.039   0.580   6.588  0.2284 -0.0490 -0.6474
  888TIP3    H224080   3.992   0.711   6.648 -0.4418 -0.8305  0.5731
  889TIP3   OH224081   2.994   0.113  15.344 -0.6387  0.1740  0.4165
  889TIP3    H124082   3.029   0.124  15.256 -0.3331 -0.1181  0.5035
  889TIP3    H224083   2.982   0.019  15.354  0.5366  0.0821  1.1549
  890TIP3   OH224084   4.449   3.312  16.466  0.3064  0.1195 -0.1593
  890TIP3    H124085   4.384   3.363  16.514 -0.6366 -2.1881  1.1808
  890TIP3    H224086   4.533   3.347  16.496 -0.2282  2.0962 -0.7515
  891TIP3   OH224087   1.533   3.080  11.586  0.0912 -0.1304  0.1779
  891TIP3    H124088   1.611   3.028  11.568  0.2062 -0.2679  1.0429
  891TIP3    H224089   1.460   3.023  11.562  0.2539  0.2566 -1.3066
  892TIP3   OH224090   4.429   3.509  14.973 -0.1225 -0.4217 -0.0218
  892TIP3    H124091   4.336   3.525  14.992 -0.0430 -0.2480  0.2241
  892TIP3    H224092   4.432   3.418  14.944 -0.3155 -0.5394  0.3293
  893TIP3   OH224093   1.131   4.845  15.186 -0.1622 -0.6203 -0.0019
  893TIP3    H124094   1.136   4.804  15.272 -1.9011 -0.8953  0.0034
  893TIP3    H224095   1.055   4.805  15.144  0.9045 -0.8309 -1.8693
  894TIP3   OH224096   3.459   0.776   5.004 -0.6428 -0.1746 -0.7896
  894TIP3    H124097   3.509   0.844   4.960 -0.7642  0.0050 -0.6484
  894TIP3    H224098   3.485   0.695   4.959  1.2756 -0.3798  0.5508
  895TIP3   OH224099   6.601   2.369  15.186  0.2092  0.0358  0.2564
  895TIP3    H124100   6.693   2.359  15.212  0.0606  1.6545  1.5679
  895TIP3    H224101   6.604   2.388  15.093  1.1778 -0.3220  0.2048
  896TIP3   OH224102   0.747   0.307   5.083 -0.0427  0.0979 -0.6784
  896TIP3    H124103   0.782   0.301   4.995  1.5653  1.5073 -0.1904
  896TIP3    H224104   0.791   0.237   5.132 -1.5213 -1.1994 -1.1236
  897TIP3   OH224105   6.493   6.283  16.749 -0.5948  0.1886 -0.4817
  897TIP3    H124106   6.508   6.329  16.667  0.4474 -0.5638 -0.7322
  897TIP3    H224107   6.440   6.207  16.725  0.2786 -0.4004 -0.5843
  898TIP3   OH224108   4.481   6.596   4.898  0.2087  0.7086  0.9238
  898TIP3    H124109   4.469   6.537   4.973  1.5104  0.1083  0.7035
  898TIP3    H224110   4.506   6.537   4.826  2.8063  1.5767  1.0011
  899TIP3   OH224111   5.960   6.210   5.142  0.2959  0.2915  0.3111
  899TIP3    H124112   6.002   6.292   5.119  0.0083  0.4134  0.2132
  899TIP3    H224113   5.961   6.158   5.062 -0.0817  0.4448  0.2040
  900TIP3   OH224114   3.998   0.728   4.850  0.3316 -0.2606 -0.1438
  900TIP3    H124115   3.933   0.658   4.839 -0.0989  0.1635 -0.2883
  900TIP3    H224116   4.028   0.718   4.941 -1.5342  0.9053  0.6399
  901TIP3   OH224117   6.441   4.029   1.288  0.0646 -0.5162 -0.4299
  901TIP3    H124118   6.429   4.070   1.374 -0.1234 -1.4421  0.0005
  901TIP3    H224119   6.362   4.052   1.239  0.4622  0.5536 -0.5877
  902TIP3   OH224120   2.596   4.202   4.616  0.0983 -0.3967 -0.0427
  902TIP3    H124121   2.665   4.136   4.618  1.7568  1.2906  0.3591
  902TIP3    H224122   2.613   4.253   4.537 -0.8597 -0.1155 -0.0840
  903TIP3   OH224123   1.320   4.816   5.073 -0.8704 -0.4847 -0.2826
  903TIP3    H124124   1.255   4.833   5.005 -1.5827  0.4225  0.5796
  903TIP3    H224125   1.290   4.736   5.116 -2.7302  1.0396  1.5013
  904TIP3   OH224126   3.743   0.507  16.698  0.2374  0.0136  0.0759
  904TIP3    H124127   3.745   0.603  16.698 -0.8842  0.0972 -2.0111
  904TIP3    H224128   3.835   0.482  16.685  0.9724  0.6541  3.1802
  905TIP3   OH224129   4.580   2.059   3.332 -0.0489 -0.6324 -0.1411
  905TIP3    H124130   4.661   2.092   3.370 -0.4857  0.8120 -0.4021
  905TIP3    H224131   4.608   1.988   3.274  1.3205  1.1292 -1.8012
  906TIP3   OH224132   2.623   4.008  13.232  0.0075  0.1703 -0.2474
  906TIP3    H124133   2.576   4.086  13.201  1.7588  0.7116 -1.7428
  906TIP3    H224134   2.584   3.936  13.183 -1.8430 -0.0174  1.3736
  907TIP3   OH224135   0.439   0.729  14.682 -0.8270  0.1175  0.0995
  907TIP3    H124136   0.484   0.813  14.690 -1.9771  1.0299 -1.9626
  907TIP3    H224137   0.351   0.745  14.715 -0.9751 -0.3620 -0.0480
  908TIP3   OH224138   0.690   2.446   5.483  0.0184  0.2352  0.0327
  908TIP3    H124139   0.664   2.487   5.566  1.5848  0.2032  0.5766
  908TIP3    H224140   0.626   2.477   5.420 -0.5987  1.1005  1.0463
  909TIP3   OH224141   5.607   5.246   0.899 -0.3346 -0.3358  0.2519
  909TIP3    H124142   5.556   5.304   0.843 -0.5736  1.5281  2.2620
  909TIP3    H224143   5.682   5.221   0.846 -1.1561  0.3608 -1.2883
  910TIP3   OH224144   0.029   3.043  10.974 -0.7612 -0.1772 -0.4833
  910TIP3    H124145  -0.034   3.113  10.955  0.3800  1.2596  0.8199
  910TIP3    H224146   0.115   3.082  10.957 -0.1194 -1.4370 -0.2658
  911TIP3   OH224147   5.242   2.745  15.198 -0.1978  0.4698 -0.5929
  911TIP3    H124148   5.187   2.692  15.140 -0.4841  0.4559 -0.3064
  911TIP3    H224149   5.234   2.704  15.284  0.0532  0.6210 -0.4965
  912TIP3   OH224150   4.219   5.561  14.042  0.1987  1.4436  0.7399
  912TIP3    H124151   4.152   5.619  14.079  0.0961  0.6217  1.8788
  912TIP3    H224152   4.193   5.474  14.070 -1.2152  0.3676 -3.1704
  913TIP3   OH224153   0.398   2.744  11.101  0.3806 -0.3391  0.2105
  913TIP3    H124154   0.391   2.796  11.022  1.3747 -2.2080 -1.2018
  913TIP3    H224155   0.314   2.699  11.109  0.5107 -0.6531 -0.1742
  914TIP3   OH224156   0.402   5.007   2.971  0.3568  0.3520 -0.4924
  914TIP3    H124157   0.441   5.089   3.001  0.3015 -0.0617  0.8018
  914TIP3    H224158   0.451   4.983   2.893  1.5015  0.7694  0.0825
  915TIP3   OH224159   2.580   6.111   0.690  0.8014  0.2256  0.8077
  915TIP3    H124160   2.640   6.161   0.634  0.4078  2.0708  1.9446
  915TIP3    H224161   2.617   6.120   0.778  0.1382 -0.6548  1.1961
  916TIP3   OH224162   6.581   1.654  11.185  0.1777  0.1209 -0.3176
  916TIP3    H124163   6.647   1.608  11.237  0.4128  0.3303 -0.4328
  916TIP3    H224164   6.520   1.689  11.250  0.3594  0.2077 -0.1929
  917TIP3   OH224165   2.826   4.554  11.672  0.2935  0.2496  0.0431
  917TIP3    H124166   2.922   4.557  11.674  0.3966 -1.7129  2.2354
  917TIP3    H224167   2.801   4.524  11.759 -2.1455 -2.1306 -1.3056
  918TIP3   OH224168   0.651   4.694  10.779  0.2735 -0.1532 -0.2030
  918TIP3    H124169   0.592   4.762  10.812  0.3320 -0.7994  1.3403
  918TIP3    H224170   0.682   4.727  10.696 -2.3634  0.1685 -1.1730
  919TIP3   OH224171   6.107   2.328  14.008  0.0252 -0.2343 -0.0223
  919TIP3    H124172   6.184   2.364  13.964 -0.7247  0.6182 -0.6578
  919TIP3    H224173   6.119   2.353  14.100  1.6147 -2.0564  0.3308
  920TIP3   OH224174   1.549   4.942   2.646 -0.0529  0.4093 -0.3708
  920TIP3    H124175   1.537   5.028   2.686  0.3333  1.5422 -2.5315
  920TIP3    H224176   1.464   4.923   2.606  0.1306  0.2326 -0.6816
  921TIP3   OH224177   3.345   3.706  17.033 -0.0949 -0.1036 -0.4562
  921TIP3    H124178   3.393   3.694  17.115 -0.4405  1.8683  0.0947
  921TIP3    H224179   3.264   3.657  17.045  0.7358 -1.5429 -0.4798
  922TIP3   OH224180   5.267   3.103  11.801  1.0535 -0.2544  0.1227
  922TIP3    H124181   5.203   3.168  11.771  1.7338 -1.1259 -3.8407
  922TIP3    H224182   5.330   3.153  11.852  0.1461  1.7158 -0.5791
  923TIP3   OH224183   2.755   6.364  10.900  0.6095  0.4461  0.2116
  923TIP3    H124184   2.700   6.411  10.837  1.1368  1.1032  0.2343
  923TIP3    H224185   2.835   6.415  10.905  1.6366 -1.0230 -0.5370
  924TIP3   OH224186   3.776   1.932   0.304  0.1907 -0.0544 -0.3762
  924TIP3    H124187   3.764   1.901   0.394 -1.2650  1.3056 -0.0699
  924TIP3    H224188   3.845   1.999   0.311  0.4787 -0.3473 -0.3779
  925TIP3   OH224189   0.378   3.733   2.768 -0.1533  0.0747  0.0170
  925TIP3    H124190   0.436   3.658   2.758 -2.1548 -1.9314  2.4143
  925TIP3    H224191   0.424   3.791   2.828 -0.6490 -1.6724  2.2036
  926TIP3   OH224192   4.001   2.743  13.547 -0.1645 -0.3129  0.4599
  926TIP3    H124193   4.030   2.791  13.469 -0.4079 -1.0287 -0.0872
  926TIP3    H224194   3.919   2.785  13.572  0.1366  0.2040  0.6044
  927TIP3   OH224195   0.060   3.181  13.742 -0.1197 -0.7419  0.3442
  927TIP3    H124196   0.113   3.115  13.698  0.1821 -1.7645  2.1609
  927TIP3    H224197   0.122   3.250  13.764 -0.1250 -0.5917 -0.0888
  928TIP3   OH224198   4.793   2.695   3.812 -0.3213  0.1414  0.1953
  928TIP3    H124199   4.821   2.611   3.775 -0.4071  0.7991 -1.4014
  928TIP3    H224200   4.700   2.699   3.793  0.0301  1.3976 -1.3487
  929TIP3   OH224201   3.068   0.287   6.144  0.2488 -0.0498 -0.5629
  929TIP3    H124202   3.147   0.341   6.140 -0.0545  0.4521 -0.0171
  929TIP3    H224203   2.996   0.350   6.155 -0.1388 -0.5475 -0.1975
  930TIP3   OH224204   5.591   2.471   3.373 -0.0027  0.3884 -0.1360
  930TIP3    H124205   5.676   2.498   3.337  1.1727 -1.1941  1.2791
  930TIP3    H224206   5.541   2.553   3.381  1.7897  1.5246 -0.0126
  931TIP3   OH224207   5.598   3.540   1.581 -0.1244 -0.2657 -0.0152
  931TIP3    H124208   5.528   3.583   1.630 -0.4856 -0.9938  0.1299
  931TIP3    H224209   5.553   3.492   1.512  0.2422 -0.6410  0.0025
  932TIP3   OH224210   1.079   4.778  15.449 -0.5011  0.2032  0.3564
  932TIP3    H124211   1.057   4.685  15.439  2.1839 -0.6234  1.4306
  932TIP3    H224212   1.038   4.803  15.532 -2.7422  0.5624 -0.7727
  933TIP3   OH224213   1.877   1.095  11.628 -0.0278 -0.4146 -0.0637
  933TIP3    H124214   1.906   1.052  11.709 -0.2617 -0.9492 -0.2556
  933TIP3    H224215   1.870   1.187  11.651 -0.0674 -0.5579  0.5211
  934TIP3   OH224216   6.740   6.163   5.796  0.0467 -0.4660 -0.1724
  934TIP3    H124217   6.682   6.111   5.852 -1.3693  1.2780  0.0859
  934TIP3    H224218   6.827   6.153   5.836 -0.6116 -0.7282  1.2735
  935TIP3   OH224219   3.563   0.949   0.942 -0.3495  0.5643 -0.0847
  935TIP3    H124220   3.549   0.867   0.988 -0.0672  1.1774  1.1445
  935TIP3    H224221   3.553   0.927   0.849 -4.6270 -0.0606  0.2847
  936TIP3   OH224222   2.956   2.952   0.152 -0.3747  0.4818  0.7339
  936TIP3    H124223   2.956   2.867   0.196  1.1582  0.5587  0.9289
  936TIP3    H224224   3.010   3.008   0.207  0.3411  1.0037 -0.4468
  937TIP3   OH224225   0.775   2.092  12.744  0.0124  0.4703 -0.5497
  937TIP3    H124226   0.717   2.162  12.774  0.8148  0.6589  0.6347
  937TIP3    H224227   0.770   2.095  12.648 -1.1136  1.1599 -0.4760
  938TIP3   OH224228   4.973   6.314  13.874 -0.3429 -0.6796  0.3025
  938TIP3    H124229   4.954   6.349  13.961  0.1360  0.2952  0.0295
  938TIP3    H224230   5.066   6.332  13.861 -0.4454 -0.6688 -0.4706
  939TIP3   OH224231   4.034   1.094   4.225 -0.1647 -0.3178 -0.3409
  939TIP3    H124232   3.987   1.011   4.226  1.0040 -1.0078  0.9954
  939TIP3    H224233   4.126   1.070   4.209  0.0859  0.7868 -0.6622
  940TIP3   OH224234   0.736   5.131  13.759 -0.5590 -0.3521  0.0024
  940TIP3    H124235   0.651   5.095  13.734  0.3594 -3.2764  0.7157
  940TIP3    H224236   0.800   5.075  13.713  1.0047 -0.8039  2.5526
  941TIP3   OH224237   0.545   5.888  13.126  0.0850  0.0542  0.0649
  941TIP3    H124238   0.614   5.948  13.155 -0.1658  0.1113  0.5464
  941TIP3    H224239   0.592   5.810  13.097  0.3756  0.2407  0.0298
  942TIP3   OH224240   5.344   3.644  15.469 -0.5312  0.1718 -0.0926
  942TIP3    H124241   5.295   3.725  15.484  1.1611  1.3991 -0.9183
  942TIP3    H224242   5.279   3.575  15.481 -1.6921  1.5248  2.1890
  943TIP3   OH224243   0.881   0.487   2.941  0.0293 -0.2635  0.0980
  943TIP3    H124244   0.873   0.409   2.887 -2.5300  1.1369 -1.7277
  943TIP3    H224245   0.828   0.467   3.019  2.5294 -1.7067  1.5832
  944TIP3   OH224246   2.489   5.534   1.032  0.2697 -0.4090 -0.6986
  944TIP3    H124247   2.555   5.541   1.100 -1.3293 -1.9949  1.1345
  944TIP3    H224248   2.535   5.498   0.956  1.2396 -3.0525  1.0384
  945TIP3   OH224249   4.960   2.193   3.155 -0.1874 -0.7848  0.2322
  945TIP3    H124250   5.017   2.121   3.181  0.2417 -1.1959 -1.7163
  945TIP3    H224251   4.973   2.202   3.061 -2.1031  0.2208  0.0022
  946TIP3   OH224252   4.335   3.952   1.251 -0.0319  0.1883  0.1747
  946TIP3    H124253   4.373   3.921   1.168 -1.0854 -0.3319 -0.1357
  946TIP3    H224254   4.308   4.042   1.233  0.3999  0.3235  0.1849
  947TIP3   OH224255   3.395   3.621   5.651 -0.1875  0.3283  0.0011
  947TIP3    H124256   3.349   3.673   5.717  1.6983  2.0764  0.0508
  947TIP3    H224257   3.343   3.541   5.642 -2.4853  1.6502  0.9044
  948TIP3   OH224258   2.037   4.925  11.621  0.0015 -0.2412 -0.4585
  948TIP3    H124259   2.014   5.014  11.646  1.2705 -0.1269  0.3993
  948TIP3    H224260   2.065   4.932  11.529 -0.6458  0.0940 -0.6354
  949TIP3   OH224261   3.467   6.753  11.955 -0.1463  0.3876  0.2374
  949TIP3    H124262   3.504   6.768  11.868 -1.0715 -1.5522 -0.5582
  949TIP3    H224263   3.372   6.756  11.941 -0.3738 -2.4540  0.5870
  950TIP3   OH224264   3.673   5.772  16.699  0.2449  0.1290 -0.5676
  950TIP3    H124265   3.651   5.685  16.731 -0.9510  0.6459  0.1293
  950TIP3    H224266   3.744   5.802  16.757 -0.8217  0.4354  0.6406
  951TIP3   OH224267   3.010   2.371  14.794  0.1212  0.2996 -0.1212
  951TIP3    H124268   2.953   2.305  14.834 -0.0362  0.9850  0.8135
  951TIP3    H224269   3.054   2.413  14.868 -0.9862  2.3399 -0.5408
  952TIP3   OH224270   1.427   4.620  17.125  0.0937 -0.1676  0.1004
  952TIP3    H124271   1.389   4.707  17.113  0.8573  0.0160 -1.1321
  952TIP3    H224272   1.520   4.632  17.108  0.4915 -0.9029  1.6204
  953TIP3   OH224273   4.229   1.619  11.094 -0.2780  0.5936  0.8202
  953TIP3    H124274   4.261   1.603  11.006  0.2431 -1.3142  1.3116
  953TIP3    H224275   4.246   1.712  11.110  1.1364  0.5865 -0.4718
  954TIP3   OH224276   0.620   6.229  16.114 -0.1398 -0.4277 -0.0943
  954TIP3    H124277   0.682   6.285  16.068 -0.5395 -0.4982 -0.7362
  954TIP3    H224278   0.582   6.285  16.182  2.3736 -1.0395  1.9750
  955TIP3   OH224279   4.921   0.665   3.071 -0.1017 -0.0456  0.5409
  955TIP3    H124280   4.827   0.676   3.081 -0.0527 -0.2321  1.2532
  955TIP3    H224281   4.930   0.612   2.992 -0.5802  0.1681  0.3360
  956TIP3   OH224282   0.630   2.488  16.853 -0.0101  0.1570 -0.0919
  956TIP3    H124283   0.670   2.406  16.883  2.0815  0.8778 -0.7471
  956TIP3    H224284   0.605   2.533  16.934  0.5613 -0.2962  0.3486
  957TIP3   OH224285   4.856   0.012  12.218  0.1710 -0.4358 -0.3602
  957TIP3    H124286   4.794   0.045  12.154  1.5509 -0.7457 -1.9276
  957TIP3    H224287   4.935  -0.008  12.167  1.4687 -0.3088  1.5026
  958TIP3   OH224288   6.133   3.664  15.185 -0.2378 -0.1873  0.4158
  958TIP3    H124289   6.162   3.594  15.243  0.6520  0.6697  1.0100
  958TIP3    H224290   6.209   3.720  15.174  0.1401 -1.1316 -2.8474
  959TIP3   OH224291   5.756   4.580  11.333 -0.5381 -0.2028 -0.4054
  959TIP3    H124292   5.712   4.531  11.403  0.8200 -0.9332 -0.0337
  959TIP3    H224293   5.684   4.610  11.277 -1.8871  2.1641  2.3215
  960TIP3   OH224294   4.774   2.442  15.576 -0.8250 -0.4878 -0.5699
  960TIP3    H124295   4.785   2.353  15.544 -1.1895 -0.4239 -0.8770
  960TIP3    H224296   4.759   2.494  15.497  0.3075 -0.0052 -0.4910
  961TIP3   OH224297   2.264   4.650  16.750 -0.6208 -0.9383  0.0347
  961TIP3    H124298   2.233   4.617  16.666  1.1303 -1.9675 -0.2640
  961TIP3    H224299   2.242   4.743  16.749  1.3661 -0.3821 -2.5864
  962TIP3   OH224300   6.252   2.452  16.482 -0.3439  0.6490 -0.0980
  962TIP3    H124301   6.285   2.521  16.540 -1.8008  1.3829 -0.0957
  962TIP3    H224302   6.188   2.497  16.426 -1.2577 -0.6786 -0.1621
  963TIP3   OH224303   5.855   0.320   4.921  0.0868  0.4436 -0.2174
  963TIP3    H124304   5.829   0.260   4.851  1.2823 -1.1003  0.5946
  963TIP3    H224305   5.776   0.332   4.973 -0.3768  0.2061 -0.8529
  964TIP3   OH224306   6.109   1.187   6.284  0.8873 -0.4631  0.7182
  964TIP3    H124307   6.060   1.263   6.317  0.6674 -1.0252  1.7250
  964TIP3    H224308   6.047   1.114   6.290  1.1415 -0.7532 -0.1180
  965TIP3   OH224309   3.170   0.878  16.883 -0.3388 -0.4170  0.6372
  965TIP3    H124310   3.249   0.928  16.863 -2.7527  3.8639  0.4597
  965TIP3    H224311   3.119   0.879  16.802 -2.2318  0.5466  1.7647
  966TIP3   OH224312   6.637   5.028   5.008  0.2986 -0.3100 -0.3314
  966TIP3    H124313   6.651   4.947   5.057  2.7537 -0.7862 -1.6594
  966TIP3    H224314   6.581   5.002   4.934 -1.8755  0.0287  1.1095
  967TIP3   OH224315   3.727   3.891   1.354 -0.2579  0.1724  0.1074
  967TIP3    H124316   3.740   3.983   1.377  0.7897  0.6671 -2.2114
  967TIP3    H224317   3.815   3.855   1.349 -0.6005 -0.6177 -0.3244
  968TIP3   OH224318   6.040   0.554   3.908  0.3699 -0.1861  0.0047
  968TIP3    H124319   5.950   0.548   3.939 -0.0464  1.0275 -0.8824
  968TIP3    H224320   6.071   0.639   3.941  0.7268  0.0131 -0.8049
  969TIP3   OH224321   4.915   4.228  16.192  0.1140  0.3478 -0.1788
  969TIP3    H124322   4.864   4.255  16.269 -0.5816  1.2331 -0.9237
  969TIP3    H224323   4.851   4.187  16.134  0.3950  0.7629 -0.7926
  970TIP3   OH224324   0.595   5.953   3.501 -0.8523  0.3491 -0.0031
  970TIP3    H124325   0.598   5.977   3.408  0.9116 -0.9119 -0.3359
  970TIP3    H224326   0.520   5.894   3.508 -0.4436 -0.3071 -0.8636
  971TIP3   OH224327   5.790   5.094   3.747  0.1917 -0.5943  0.1728
  971TIP3    H124328   5.774   5.036   3.821 -0.3673 -2.7026 -1.5344
  971TIP3    H224329   5.705   5.135   3.729  0.6473  1.0757  1.5563
  972TIP3   OH224330   6.725   0.890  16.120 -0.1567  0.3889  0.1304
  972TIP3    H124331   6.745   0.935  16.202  0.6380 -0.3429  0.3520
  972TIP3    H224332   6.729   0.959  16.054 -3.2719  1.5454  0.9349
  973TIP3   OH224333   5.830   6.083   1.312  0.0578 -0.1581  0.0321
  973TIP3    H124334   5.866   6.171   1.300 -0.6308  0.0897 -0.2777
  973TIP3    H224335   5.738   6.090   1.284  0.4633 -1.4173 -1.8684
  974TIP3   OH224336   1.471   1.683  12.748  0.1709  0.8312 -0.6099
  974TIP3    H124337   1.418   1.687  12.827 -0.0161  1.7675 -0.7639
  974TIP3    H224338   1.408   1.673  12.677  0.3150  0.3173 -0.6664
  975TIP3   OH224339   5.635   2.681   2.207 -0.4671 -0.2347  0.2441
  975TIP3    H124340   5.680   2.722   2.281  0.8054 -0.8938 -0.1298
  975TIP3    H224341   5.668   2.728   2.130 -0.1049 -0.9690 -0.0660
  976TIP3   OH224342   1.121   2.744   0.832  0.0452  0.2122  0.7262
  976TIP3    H124343   1.195   2.795   0.799  0.4005 -0.1088  1.0201
  976TIP3    H224344   1.056   2.749   0.762  1.2706 -1.5489 -0.6419
  977TIP3   OH224345   5.838   3.169   6.263 -0.1963 -0.7756 -0.3255
  977TIP3    H124346   5.865   3.092   6.212 -3.5125 -2.6266  0.4709
  977TIP3    H224347   5.817   3.135   6.350  1.6091  1.6976  1.2157
  978TIP3   OH224348   0.310   0.886   9.994 -0.2209  0.2006  0.2265
  978TIP3    H124349   0.237   0.943   9.972  0.3498  0.7527 -0.2853
  978TIP3    H224350   0.377   0.946  10.028  0.0215 -0.2912  0.6337
  979TIP3   OH224351   2.143   5.983  15.659 -0.4810  0.0363 -0.0464
  979TIP3    H124352   2.189   5.906  15.691 -3.1187 -1.6779 -0.0470
  979TIP3    H224353   2.070   5.994  15.720 -1.2112  1.4246 -1.1155
  980TIP3   OH224354   0.584   3.000   3.703  0.2970  0.1946  0.3386
  980TIP3    H124355   0.496   2.974   3.728  0.5326  0.0690  1.0693
  980TIP3    H224356   0.639   2.924   3.724  0.6971  0.5669  0.6538
  981TIP3   OH224357   0.614   4.575  12.033  0.7129 -0.5301  0.4823
  981TIP3    H124358   0.611   4.669  12.052 -0.2404 -0.4998  0.2496
  981TIP3    H224359   0.609   4.570  11.937  2.1506 -0.7836  0.4029
  982TIP3   OH224360   0.556   5.248  11.468  0.0454  0.1515 -0.1922
  982TIP3    H124361   0.636   5.236  11.521 -0.0497 -0.7418 -0.2375
  982TIP3    H224362   0.493   5.285  11.530  0.0496 -0.5349  0.2352
  983TIP3   OH224363   6.498   6.277   1.343  0.7216 -0.5177  0.2633
  983TIP3    H124364   6.461   6.219   1.276  0.9029 -0.4213  0.0819
  983TIP3    H224365   6.486   6.229   1.425 -0.7142 -0.0826  0.3495
  984TIP3   OH224366   1.962   1.132   0.386 -0.1805  0.0229 -1.0373
  984TIP3    H124367   2.006   1.079   0.319  2.0304 -0.6125  0.7814
  984TIP3    H224368   2.001   1.219   0.378 -0.2775  0.0786 -0.9063
  985TIP3   OH224369   5.418   0.898  11.128 -0.2158  0.1689 -0.2439
  985TIP3    H124370   5.406   0.827  11.065  0.1843 -0.5724  0.4933
  985TIP3    H224371   5.463   0.966  11.078 -0.6531 -0.0658 -0.9790
  986TIP3   OH224372   6.243   2.737  13.531 -0.2036 -0.5976  0.1791
  986TIP3    H124373   6.221   2.807  13.593  0.3141  1.3160 -1.6655
  986TIP3    H224374   6.327   2.703  13.562 -0.2906 -0.1683  0.9246
  987TIP3   OH224375   6.256   1.653  14.527  0.4493  0.5225  0.2798
  987TIP3    H124376   6.278   1.618  14.441  0.0156  0.0510  0.3561
  987TIP3    H224377   6.257   1.577  14.585  0.2408  0.7530  0.5921
  988TIP3   OH224378   5.758   0.148  11.696  0.2333 -0.1163 -0.6946
  988TIP3    H124379   5.731   0.064  11.658 -1.9397  0.0934  0.2338
  988TIP3    H224380   5.678   0.201  11.697  0.4305  0.3625  2.8976
  989TIP3   OH224381   4.079   6.329  11.056 -0.0525  0.1514 -0.4337
  989TIP3    H124382   4.041   6.351  10.971  1.6828 -0.6844 -1.4759
  989TIP3    H224383   4.053   6.239  11.072 -1.2927  0.6403  0.4934
  990TIP3   OH224384   4.069   0.365  11.518 -0.3182 -0.4112 -0.3223
  990TIP3    H124385   4.142   0.422  11.495 -0.7355 -0.1400 -1.0227
  990TIP3    H224386   3.992   0.422  11.513 -0.7809 -1.0886 -1.3165
  991TIP3   OH224387   0.395   2.192   1.431  0.6065  0.1619  0.3021
  991TIP3    H124388   0.478   2.183   1.476 -0.3780 -0.1007  2.1533
  991TIP3    H224389   0.353   2.268   1.472 -0.6959 -0.6303  0.5040
  992TIP3   OH224390   0.976   5.999  16.616 -0.4371 -0.5729  0.7030
  992TIP3    H124391   1.052   5.942  16.604 -0.6270 -0.8065  0.6242
  992TIP3    H224392   0.998   6.078  16.567  0.0878 -0.3330  1.3023
  993TIP3   OH224393   3.871   3.336  15.215 -0.0261 -0.7278  0.1329
  993TIP3    H124394   3.824   3.385  15.149  0.0483  1.0086  1.3026
  993TIP3    H224395   3.956   3.316  15.175  0.3751  1.1098 -0.0040
  994TIP3   OH224396   4.961   3.622  14.457  0.0402  0.5578  0.5000
  994TIP3    H124397   4.906   3.547  14.434 -1.1422  0.8824  2.0527
  994TIP3    H224398   4.948   3.685  14.386 -0.1737 -0.0974 -0.0445
  995TIP3   OH224399   1.438   2.174  11.988  0.3474  0.0881 -0.0601
  995TIP3    H124400   1.444   2.267  12.006 -0.7417 -0.0366  1.0772
  995TIP3    H224401   1.460   2.131  12.071  0.3918 -0.6531 -0.4416
  996TIP3   OH224402   1.506   1.316  11.352  0.1630 -0.0035 -0.5353
  996TIP3    H124403   1.486   1.288  11.441  1.7225  2.1285  0.5581
  996TIP3    H224404   1.572   1.255  11.322  2.0598  1.1482  1.0636
  997TIP3   OH224405   6.423   5.237   5.305 -0.1949 -0.2559  0.1850
  997TIP3    H124406   6.473   5.184   5.368  0.9364  0.2330 -0.2620
  997TIP3    H224407   6.368   5.174   5.259  2.1538 -1.3320 -1.3355
  998TIP3   OH224408   0.791   1.390   5.631 -0.0581 -0.5958 -0.1481
  998TIP3    H124409   0.872   1.341   5.648  0.7006  0.3808 -0.8006
  998TIP3    H224410   0.756   1.410   5.718 -0.1259 -1.8713  0.1233
  999TIP3   OH224411   3.954   2.803   4.384  0.0502 -0.1243  0.6645
  999TIP3    H124412   3.966   2.879   4.327  0.2953 -0.7706 -0.1681
  999TIP3    H224413   3.859   2.790   4.386  0.1245 -1.6464 -1.7475
 1000TIP3   OH224414   1.133   5.695   1.493  0.3640  0.7089  0.1791
 1000TIP3    H124415   1.181   5.776   1.478  1.0147  0.1808 -0.7162
 1000TIP3    H224416   1.202   5.629   1.507 -0.1585  0.3652  1.2054
 1001TIP3   OH224417   2.091   4.142   3.326  0.0080  0.1494 -0.7751
 1001TIP3    H124418   2.152   4.180   3.389 -0.0772 -0.1158 -0.5302
 1001TIP3    H224419   2.137   4.148   3.242 -0.6560  2.2932 -1.0464
 1002TIP3   OH224420   3.218   0.970  13.412 -0.3552 -0.1554  0.2682
 1002TIP3    H124421   3.264   0.943  13.333 -1.5260  0.7878 -0.7696
 1002TIP3    H224422   3.250   0.910  13.480 -0.2038 -1.7489 -1.1530
 1003TIP3   OH224423   1.144   5.549   0.044  0.0766 -0.2690  0.0153
 1003TIP3    H124424   1.188   5.600  -0.025  0.5324 -0.0501  0.4636
 1003TIP3    H224425   1.205   5.551   0.117 -0.2343 -0.8425  0.2904
 1004TIP3   OH224426   4.321   2.402   5.815 -0.5744  0.1051 -0.1016
 1004TIP3    H124427   4.414   2.421   5.811 -0.5948  1.0695  2.1718
 1004TIP3    H224428   4.311   2.317   5.772  0.6389  1.7892 -4.2028
 1005TIP3   OH224429   1.484   3.701  14.461  0.5204  0.1127 -0.6213
 1005TIP3    H124430   1.521   3.789  14.469 -0.0531  0.3409 -0.4388
 1005TIP3    H224431   1.528   3.651  14.530  0.9166  0.2311 -0.7859
 1006TIP3   OH224432   1.616   4.699   5.695  0.8042  0.0776 -0.2537
 1006TIP3    H124433   1.525   4.671   5.696  1.0106 -0.5985 -0.1998
 1006TIP3    H224434   1.667   4.618   5.694  1.4041  0.4484 -0.9414
 1007TIP3   OH224435   1.605   3.490  13.286  0.1812  0.4611  0.0512
 1007TIP3    H124436   1.635   3.444  13.208 -2.3575 -1.0647 -0.1387
 1007TIP3    H224437   1.674   3.554  13.303  2.5363 -1.4764 -1.3503
 1008TIP3   OH224438   2.331   2.908  12.327 -0.6389 -0.0621 -0.1644
 1008TIP3    H124439   2.319   2.982  12.387  0.8298 -1.7751  2.4459
 1008TIP3    H224440   2.302   2.832  12.377  0.6636 -1.6035 -1.6200
 1009TIP3   OH224441   1.190   3.919  12.192  0.1048 -0.1396 -0.2334
 1009TIP3    H124442   1.162   3.999  12.146  2.4445  0.6951 -0.3154
 1009TIP3    H224443   1.254   3.949  12.256  0.0857 -1.8275  0.6282
 1010TIP3   OH224444   1.646   0.209   3.655  0.0322 -0.1345  0.1876
 1010TIP3    H124445   1.696   0.210   3.737 -0.7837  1.7884  0.7301
 1010TIP3    H224446   1.595   0.291   3.657 -1.1043 -0.7330 -1.5738
 1011TIP3   OH224447   5.661   2.629  15.481  0.4927  0.6366 -0.2477
 1011TIP3    H124448   5.657   2.725  15.476  2.1436  0.8291  1.2911
 1011TIP3    H224449   5.699   2.611  15.566 -1.1316 -1.4677  0.1248
 1012TIP3   OH224450   5.940   3.271  16.185 -0.8972  0.0698  0.4845
 1012TIP3    H124451   6.031   3.300  16.180 -0.4832 -1.1684  0.4159
 1012TIP3    H224452   5.917   3.248  16.096 -1.0433 -0.2956  0.6159
 1013TIP3   OH224453   5.169   0.643   4.768 -0.8084  0.2633  0.3728
 1013TIP3    H124454   5.113   0.717   4.789  0.4764  1.7271 -1.1589
 1013TIP3    H224455   5.253   0.664   4.809 -0.0144  0.3609 -1.2564
 1014TIP3   OH224456   3.601   4.276   1.659 -0.3707  0.0148 -0.2131
 1014TIP3    H124457   3.610   4.340   1.729 -0.6204 -1.6928  1.4573
 1014TIP3    H224458   3.570   4.327   1.584 -0.3352  1.8654  0.9594
 1015TIP3   OH224459   5.203   4.767   4.107 -0.1407 -0.3443 -0.6638
 1015TIP3    H124460   5.218   4.689   4.053  1.0786 -0.1475 -0.6283
 1015TIP3    H224461   5.246   4.748   4.190 -0.2063  0.2021 -0.4989
 1016TIP3   OH224462   1.053   1.847  15.238  0.1202 -0.1072  0.1315
 1016TIP3    H124463   0.958   1.848  15.253  0.1562 -0.6318  0.4262
 1016TIP3    H224464   1.091   1.866  15.324  0.2856 -0.3928  0.1235
 1017TIP3   OH224465   0.890   2.632  14.127 -0.4083 -0.5936 -0.2237
 1017TIP3    H124466   0.917   2.572  14.197  1.1953 -0.9179 -1.0545
 1017TIP3    H224467   0.854   2.708  14.173  1.5696 -0.3365  1.0463
 1018TIP3   OH224468   3.055   3.353   4.140  0.4720 -0.2077 -0.1301
 1018TIP3    H124469   3.124   3.291   4.118  2.1821  1.2218  1.0087
 1018TIP3    H224470   3.052   3.414   4.067 -0.1791 -0.7350 -0.5562
 1019TIP3   OH224471   2.987   5.779  15.789 -0.0370 -0.0705  0.4157
 1019TIP3    H124472   3.019   5.847  15.730 -1.0928  0.9308  0.9703
 1019TIP3    H224473   3.032   5.700  15.760 -0.5143  0.3815 -1.7474
 1020TIP3   OH224474   2.846   0.578   3.240 -0.2467  0.2160  0.3351
 1020TIP3    H124475   2.860   0.550   3.149 -1.2995 -0.2362  0.2947
 1020TIP3    H224476   2.842   0.496   3.290 -1.3425  0.3612  0.5188
 1021TIP3   OH224477   2.866   5.648   3.791  0.0666 -0.4894 -0.3842
 1021TIP3    H124478   2.787   5.700   3.808 -0.8995 -1.3691 -1.9295
 1021TIP3    H224479   2.886   5.666   3.699  0.0702 -2.3715 -0.7758
 1022TIP3   OH224480   3.023   0.433   4.591 -0.3425  0.2836 -0.1254
 1022TIP3    H124481   3.022   0.406   4.499 -0.5761 -1.7403  0.4177
 1022TIP3    H224482   3.110   0.409   4.622 -0.7066 -0.2833  0.4983
 1023TIP3   OH224483   6.370   2.931   5.677 -0.3214  0.3491 -0.1926
 1023TIP3    H124484   6.329   3.012   5.706 -0.6393  0.0975  0.0821
 1023TIP3    H224485   6.355   2.928   5.583  0.4696  1.0384 -0.3470
 1024TIP3   OH224486   4.701   4.808  13.033 -0.1442 -0.1744  0.2035
 1024TIP3    H124487   4.779   4.850  13.069 -1.3813  2.9658 -0.4504
 1024TIP3    H224488   4.683   4.856  12.952 -2.4287 -1.1980  0.0319
 1025TIP3   OH224489   5.011   6.166  12.950 -0.3791  0.2074  0.3815
 1025TIP3    H124490   5.106   6.155  12.954 -0.3588  0.1926 -0.0530
 1025TIP3    H224491   4.982   6.092  12.896 -0.3239  1.7833 -1.9805
 1026TIP3   OH224492   2.185   2.619  11.594 -0.6590 -0.5368  0.0382
 1026TIP3    H124493   2.111   2.618  11.532 -0.8634  1.4803  0.1816
 1026TIP3    H224494   2.258   2.653  11.543 -0.2278 -1.0257  0.3249
 1027TIP3   OH224495   0.004   0.312   2.410 -0.1799 -0.3881 -0.4043
 1027TIP3    H124496   0.005   0.305   2.314 -1.9038  0.7796 -0.5717
 1027TIP3    H224497   0.030   0.402   2.427  0.0344 -0.5662  0.2222
 1028TIP3   OH224498   6.131   4.632   3.721  0.4011 -0.6191 -0.2346
 1028TIP3    H124499   6.135   4.546   3.681 -1.2323 -0.6509 -0.4086
 1028TIP3    H224500   6.215   4.672   3.702  0.9566 -1.9475 -0.6584
 1029TIP3   OH224501   2.026   2.622  14.767  0.6641  0.5840 -0.1320
 1029TIP3    H124502   2.103   2.676  14.756  1.0225  0.8563  2.9201
 1029TIP3    H224503   2.055   2.534  14.743  0.9589  1.1630 -2.0605
 1030TIP3   OH224504   6.354   4.529   3.985  0.1092  0.4997  0.0294
 1030TIP3    H124505   6.276   4.476   3.967 -0.3376  1.0700  0.2468
 1030TIP3    H224506   6.363   4.528   4.080  0.9886 -0.4243 -0.0517
 1031TIP3   OH224507   6.506   6.056   3.730 -0.2725  0.1928 -0.0532
 1031TIP3    H124508   6.519   5.984   3.668 -0.2701  0.5155 -0.4353
 1031TIP3    H224509   6.594   6.090   3.746 -0.2527 -0.0193  0.2851
 1032TIP3   OH224510   0.268   2.541   0.978 -0.1089 -0.0075  0.2102
 1032TIP3    H124511   0.359   2.514   0.988 -0.3512 -1.4599 -1.1025
 1032TIP3    H224512   0.235   2.549   1.068  1.2677  0.4194  0.6942
 1033TIP3   OH224513   2.217   4.907  16.651  0.6073 -0.1315  0.4774
 1033TIP3    H124514   2.145   4.890  16.590 -0.4082 -1.1969  1.8695
 1033TIP3    H224515   2.192   4.987  16.696  1.2589  0.5467 -0.3417
 1034TIP3   OH224516   1.854   2.821   3.035 -0.8258 -0.1861 -0.1900
 1034TIP3    H124517   1.915   2.767   3.084 -1.5812 -2.2516 -1.3558
 1034TIP3    H224518   1.772   2.815   3.084 -0.9104 -0.0904 -0.3196
 1035TIP3   OH224519   5.008   3.471  11.052 -0.0983  0.1538  0.0612
 1035TIP3    H124520   4.965   3.392  11.022  0.2689  0.0689 -0.2489
 1035TIP3    H224521   5.086   3.440  11.098  0.2859  0.3485 -0.4510
 1036TIP3   OH224522   5.643   2.451  16.067  0.4478 -0.4346 -0.0119
 1036TIP3    H124523   5.569   2.425  16.011  0.0134  0.8409 -0.0591
 1036TIP3    H224524   5.715   2.468  16.006  0.4174 -0.4997 -0.0673
 1037TIP3   OH224525   0.512   4.229   0.379 -0.3646 -0.5235  0.9896
 1037TIP3    H124526   0.439   4.264   0.327  0.7736  0.5735  0.0553
 1037TIP3    H224527   0.543   4.154   0.329  1.9022  1.5848 -1.0794
 1038TIP3   OH224528   4.982   5.818   0.419 -0.4129 -0.8137 -0.2842
 1038TIP3    H124529   4.929   5.804   0.498  1.3258  1.0793  1.3435
 1038TIP3    H224530   5.007   5.910   0.424  0.3223 -0.8333 -2.7312
 1039TIP3   OH224531   3.549   6.513   1.810  0.1246 -0.1817 -0.2730
 1039TIP3    H124532   3.498   6.482   1.735 -0.1395  1.0115 -0.6028
 1039TIP3    H224533   3.484   6.530   1.878  0.3021 -0.6443  0.0205
 1040TIP3   OH224534   6.088   0.956  13.030 -0.4102 -0.1367  0.5980
 1040TIP3    H124535   6.033   0.957  12.952 -1.4379 -0.4175  1.3037
 1040TIP3    H224536   6.131   1.042  13.030  2.4530 -1.3637 -2.1945
 1041TIP3   OH224537   2.892   4.181   3.338 -0.1996 -0.2212 -0.0233
 1041TIP3    H124538   2.934   4.159   3.421  0.6976  0.1468 -0.3658
 1041TIP3    H224539   2.948   4.250   3.301 -1.1874  0.3802 -0.4276
 1042TIP3   OH224540   0.600   3.274  11.437  0.2884  0.2143 -0.3445
 1042TIP3    H124541   0.522   3.320  11.468  0.5128 -0.1993  0.9066
 1042TIP3    H224542   0.665   3.343  11.425 -0.5927  0.7439 -2.6717
 1043TIP3   OH224543   1.456   3.042   5.452 -0.4317  0.1626 -0.2900
 1043TIP3    H124544   1.441   2.964   5.505 -0.1406  0.1661 -0.2013
 1043TIP3    H224545   1.550   3.058   5.459 -0.5892  0.9006  0.2202
 1044TIP3   OH224546   5.613   1.616   0.287  0.0809 -0.0749  0.1950
 1044TIP3    H124547   5.635   1.581   0.374  0.8197  0.0718  0.0731
 1044TIP3    H224548   5.518   1.624   0.288 -0.2489 -2.9767 -0.1204
 1045TIP3   OH224549   4.962   5.049  12.643  0.1279 -0.6388  0.4618
 1045TIP3    H124550   4.897   5.041  12.713  0.7456 -0.8258  1.0256
 1045TIP3    H224551   4.911   5.045  12.563 -0.5000 -1.3852  0.8805
 1046TIP3   OH224552   5.798   5.185   4.634 -0.1372  0.0923 -0.7801
 1046TIP3    H124553   5.808   5.270   4.591 -0.2694  1.0406  0.9668
 1046TIP3    H224554   5.712   5.189   4.676  0.3058 -0.4685  0.2182
 1047TIP3   OH224555   3.800   4.367  13.130 -0.2235  0.0444 -0.0643
 1047TIP3    H124556   3.704   4.367  13.133 -0.2011  0.6799  1.5561
 1047TIP3    H224557   3.821   4.403  13.044 -1.3944 -3.2353 -1.9003
 1048TIP3   OH224558   2.337   2.252  14.269 -0.0836  0.2474 -0.9068
 1048TIP3    H124559   2.427   2.228  14.289  0.0177  0.4358 -1.1236
 1048TIP3    H224560   2.283   2.189  14.317  0.1111  1.6619  1.2691
 1049TIP3   OH224561   1.520   1.163  11.634 -0.1747 -0.3536  0.0396
 1049TIP3    H124562   1.476   1.081  11.655  0.5089 -0.8649 -0.5050
 1049TIP3    H224563   1.596   1.164  11.692  1.0845 -1.2187 -1.5300
 1050TIP3   OH224564   6.224   3.219  14.320  0.0600 -0.0931 -0.0446
 1050TIP3    H124565   6.247   3.157  14.389 -1.1897  0.7308  1.1652
 1050TIP3    H224566   6.252   3.177  14.239 -2.9620 -3.4088  0.4071
 1051TIP3   OH224567   6.687   0.619   3.050 -0.6659 -0.1976 -0.1010
 1051TIP3    H124568   6.627   0.656   3.114 -0.5549 -2.0066  1.1308
 1051TIP3    H224569   6.773   0.623   3.091 -0.5573 -1.1639 -0.1946
 1052TIP3   OH224570   3.929   3.434  12.505  0.1166  0.5056 -0.1066
 1052TIP3    H124571   3.942   3.369  12.575  0.1236 -0.0085 -0.5795
 1052TIP3    H224572   3.852   3.404  12.458  0.1099  0.8525 -0.3190
 1053TIP3   OH224573   6.600   4.378  14.561 -0.1342 -0.4047  0.6781
 1053TIP3    H124574   6.634   4.297  14.599 -1.3765 -0.8966  0.7583
 1053TIP3    H224575   6.614   4.443  14.630  0.6608 -0.5836  0.6990
 1054TIP3   OH224576   4.838   2.134   4.859  0.0902 -0.2757 -0.3512
 1054TIP3    H124577   4.927   2.111   4.884  0.5578  1.5884 -0.1274
 1054TIP3    H224578   4.783   2.068   4.901  1.3287 -1.1912 -0.1232
 1055TIP3   OH224579   6.040   1.023  13.485  0.1499 -0.6317 -0.7788
 1055TIP3    H124580   6.003   1.111  13.477  1.5293 -0.0247 -0.7778
 1055TIP3    H224581   6.121   1.035  13.535  0.6773 -1.8065 -1.3018
 1056TIP3   OH224582   5.906   5.334   0.275  0.2816  0.1659  0.0548
 1056TIP3    H124583   5.924   5.423   0.246  0.7655  0.2181  0.5105
 1056TIP3    H224584   5.835   5.344   0.339  1.7949  0.4800  1.7418
 1057TIP3   OH224585   0.822   6.599  10.499 -0.6348 -0.3033  0.2912
 1057TIP3    H124586   0.914   6.582  10.476 -0.3789 -1.9264  2.2148
 1057TIP3    H224587   0.785   6.512  10.514 -1.6613  0.4433  2.4501
 1058TIP3   OH224588   1.469   0.031   6.038 -0.3608  0.1200  0.0350
 1058TIP3    H124589   1.382  -0.009   6.038 -1.3557  2.1429  0.7817
 1058TIP3    H224590   1.464   0.100   6.104  1.8367  0.2925  0.1130
 1059TIP3   OH224591   6.444   4.524   5.090 -0.4808  0.3831  0.0954
 1059TIP3    H124592   6.487   4.600   5.128 -0.1099 -0.0420  0.5356
 1059TIP3    H224593   6.451   4.456   5.156 -0.1477 -0.2600 -0.5870
 1060TIP3   OH224594   1.534   6.218   1.269 -0.0772 -0.2067 -0.4833
 1060TIP3    H124595   1.490   6.283   1.214  1.2050  0.2551 -0.9959
 1060TIP3    H224596   1.508   6.134   1.232 -1.1118  0.0217 -0.3127
 1061TIP3   OH224597   3.801   6.488   1.738 -0.2451 -0.1381 -0.3352
 1061TIP3    H124598   3.857   6.529   1.803 -0.1584 -1.9987  0.8501
 1061TIP3    H224599   3.711   6.509   1.765 -0.1845  1.4021 -1.2463
 1062TIP3   OH224600   6.237   4.372   1.483 -0.0123 -0.4433  0.2766
 1062TIP3    H124601   6.283   4.406   1.405 -0.0917 -0.0520  0.3984
 1062TIP3    H224602   6.298   4.309   1.520  0.7444  0.5789  0.8305
 1063TIP3   OH224603   2.923   3.370  15.232 -0.3508  0.0579 -0.3296
 1063TIP3    H124604   2.959   3.407  15.151 -0.2155  0.9961  0.1451
 1063TIP3    H224605   2.828   3.371  15.218 -0.3809  1.0111 -0.1724
 1064TIP3   OH224606   4.293   6.732  16.120 -0.5371 -0.6499 -0.3395
 1064TIP3    H124607   4.388   6.747  16.122 -0.5482 -0.6408  0.5987
 1064TIP3    H224608   4.262   6.787  16.049  0.1962 -0.8493 -0.8265
 1065TIP3   OH224609   5.748   4.798  15.713 -0.5567  0.2146  0.4096
 1065TIP3    H124610   5.843   4.790  15.709 -0.0507  4.5467 -1.2041
 1065TIP3    H224611   5.716   4.734  15.651  1.4351 -0.0813 -0.3984
 1066TIP3   OH224612   6.586   3.761   3.793  0.1977  0.8090 -0.0520
 1066TIP3    H124613   6.619   3.816   3.722  1.3526 -0.9281 -0.9667
 1066TIP3    H224614   6.577   3.820   3.868 -0.8706  2.6659 -1.5588
 1067TIP3   OH224615   1.558   3.443  14.540 -0.1085  0.4484  0.2523
 1067TIP3    H124616   1.592   3.418  14.626 -0.4485  0.4153  0.3824
 1067TIP3    H224617   1.612   3.395  14.478 -0.6861 -0.5620  0.4946
 1068TIP3   OH224618   2.052   0.435   1.771 -0.4880  0.2220  0.1839
 1068TIP3    H124619   2.118   0.386   1.820  0.3919 -0.4844 -1.6376
 1068TIP3    H224620   2.100   0.473   1.697 -1.7940  1.1768 -0.2118
 1069TIP3   OH224621   5.357   1.700   5.669  0.8075 -0.4514 -0.5569
 1069TIP3    H124622   5.354   1.775   5.728  0.3140 -0.8999  0.0070
 1069TIP3    H224623   5.438   1.710   5.621  2.0167 -0.8919  1.2872
 1070TIP3   OH224624   4.515   5.653  16.419  0.2858 -0.6515  0.3205
 1070TIP3    H124625   4.558   5.700  16.491 -1.3094  0.1091  0.8228
 1070TIP3    H224626   4.422   5.674  16.428 -0.0849 -1.3507 -1.3787
 1071TIP3   OH224627   5.984   2.815   3.443  0.7004  0.2043 -0.1330
 1071TIP3    H124628   6.013   2.868   3.517  0.2562 -2.9709  2.5463
 1071TIP3    H224629   6.064   2.798   3.393  1.4684  0.5294  0.9394
 1072TIP3   OH224630   1.211   6.227   2.899 -0.0453 -0.0063 -0.0560
 1072TIP3    H124631   1.230   6.227   2.993 -0.6408 -0.7534  0.0818
 1072TIP3    H224632   1.163   6.145   2.885 -0.7214  0.5118 -0.8544
 1073TIP3   OH224633   0.966   1.580  16.041  0.1752 -0.3539  0.0902
 1073TIP3    H124634   0.921   1.616  16.118 -0.4475  2.2230 -1.3534
 1073TIP3    H224635   0.906   1.514  16.008  0.4799 -1.5539  1.8079
 1074TIP3   OH224636   5.572   5.774   4.179 -0.2937 -0.4917  0.0459
 1074TIP3    H124637   5.584   5.863   4.146 -1.2545 -0.4756 -0.2834
 1074TIP3    H224638   5.600   5.718   4.108 -3.3001 -0.4725 -1.2927
 1075TIP3   OH224639   3.009   5.705   2.772 -0.4456 -0.3420  1.0784
 1075TIP3    H124640   2.927   5.657   2.764 -0.8973  0.3129  1.6220
 1075TIP3    H224641   3.072   5.641   2.803 -0.3063 -1.2766 -0.9630
 1076TIP3   OH224642   6.441   5.655  15.589  0.0806 -0.2203  0.1174
 1076TIP3    H124643   6.505   5.609  15.644 -0.6678 -2.4130 -0.7465
 1076TIP3    H224644   6.358   5.609  15.605 -0.8011  1.0879 -0.5310
 1077TIP3   OH224645   5.429   1.815   0.868 -0.3982 -0.6271 -0.2104
 1077TIP3    H124646   5.402   1.873   0.940  2.5762  1.7690 -0.8127
 1077TIP3    H224647   5.490   1.754   0.908  0.7142  0.2543 -0.5311
 1078TIP3   OH224648   0.808   4.333   4.302 -0.4306  0.2516 -0.2185
 1078TIP3    H124649   0.875   4.390   4.263 -0.0530  0.1715  0.2917
 1078TIP3    H224650   0.782   4.274   4.232  0.4771 -0.1106 -0.2696
 1079TIP3   OH224651   0.263   4.207   1.123  0.0116 -0.6582  0.1725
 1079TIP3    H124652   0.295   4.119   1.104  0.0602 -0.6023  0.0013
 1079TIP3    H224653   0.270   4.215   1.218  0.7286 -0.5562  0.1139
 1080TIP3   OH224654   5.900   3.921  16.381  0.3478 -0.4632 -0.8672
 1080TIP3    H124655   5.962   3.904  16.310 -0.9038 -3.4033 -1.4046
 1080TIP3    H224656   5.854   3.838  16.393 -2.5629  1.1811  0.4033
 1081TIP3   OH224657   2.711   5.890  16.583 -0.1955  0.4223 -0.0216
 1081TIP3    H124658   2.775   5.851  16.643 -1.6557  0.8192  1.9153
 1081TIP3    H224659   2.740   5.981  16.574 -0.7378  0.7594  1.3156
 1082TIP3   OH224660   2.167   3.524   4.271  0.0069  0.2749 -0.4486
 1082TIP3    H124661   2.074   3.507   4.287  0.1898  0.4496  0.9455
 1082TIP3    H224662   2.211   3.445   4.302  0.3471  0.2375 -1.0048
 1083TIP3   OH224663   3.218   1.237   0.815  0.0838  0.3746  0.3236
 1083TIP3    H124664   3.280   1.222   0.743 -1.1761  0.0798 -0.7321
 1083TIP3    H224665   3.206   1.332   0.817 -1.4210  0.2745 -1.2594
 1084TIP3   OH224666   2.391   0.788  10.618 -0.4374 -0.0623 -0.1188
 1084TIP3    H124667   2.341   0.725  10.670 -0.7493  0.7978  0.6420
 1084TIP3    H224668   2.335   0.807  10.542 -1.6403  1.4219  1.0689
 1085TIP3   OH224669   2.993   5.853  15.506 -0.1735  0.1008  0.1551
 1085TIP3    H124670   3.037   5.931  15.541  1.6399 -1.2770  1.1110
 1085TIP3    H224671   2.954   5.883  15.423  1.0188  1.8477  0.1631
 1086TIP3   OH224672   5.301   2.049   6.153  0.5303 -0.3186  0.5608
 1086TIP3    H124673   5.308   1.995   6.231 -1.4985 -0.4190  0.7105
 1086TIP3    H224674   5.207   2.053   6.133  0.7602  1.6528 -0.4859
 1087TIP3   OH224675   3.249   2.657   3.171 -0.2785 -0.1362 -0.4558
 1087TIP3    H124676   3.218   2.567   3.161 -1.5010  0.4213 -2.0278
 1087TIP3    H224677   3.279   2.682   3.084  1.7924  0.4130  0.3446
 1088TIP3   OH224678   0.962   0.732   2.048 -0.5610  0.0646 -0.0463
 1088TIP3    H124679   0.971   0.767   1.960  0.4983  0.0628  0.0455
 1088TIP3    H224680   0.868   0.732   2.065 -0.7745 -0.0057 -1.1978
 1089TIP3   OH224681   6.346   1.075  10.505  0.3096 -0.5876 -0.0565
 1089TIP3    H124682   6.306   1.161  10.492  0.1558 -0.7248 -0.5033
 1089TIP3    H224683   6.271   1.015  10.513  0.4226 -0.7346 -0.1132
 1090TIP3   OH224684   2.286   3.034  15.886 -0.2887 -0.1474 -0.1869
 1090TIP3    H124685   2.219   3.103  15.888  0.3629  0.5496  3.0198
 1090TIP3    H224686   2.239   2.954  15.909 -0.3500 -0.0167  0.1436
 1091TIP3   OH224687   0.143   0.610   3.212  0.0607 -0.7775 -0.2898
 1091TIP3    H124688   0.223   0.655   3.238  0.2613 -1.8547  1.0816
 1091TIP3    H224689   0.172   0.542   3.151  0.0054 -0.3163 -0.8379
 1092TIP3   OH224690   6.186   0.713   1.167  0.1744  0.2047  0.5285
 1092TIP3    H124691   6.207   0.711   1.074  1.9384 -1.3038  0.9087
 1092TIP3    H224692   6.180   0.621   1.192  1.1763  0.5523  2.1837
 1093TIP3   OH224693   4.880   6.010   3.623 -0.2011 -0.0988 -0.0051
 1093TIP3    H124694   4.917   6.092   3.589  0.6831 -0.5254 -0.1174
 1093TIP3    H224695   4.803   6.037   3.672  0.9300  0.9715  1.2610
 1094TIP3   OH224696   2.569   6.766  14.912  0.6284 -0.6322  0.1378
 1094TIP3    H124697   2.519   6.711  14.972  0.4389 -0.7333 -0.1126
 1094TIP3    H224698   2.598   6.840  14.965 -1.1048  0.2375 -0.0854
 1095TIP3   OH224699   3.027   2.583   0.159  0.2130 -0.1370 -0.2929
 1095TIP3    H124700   3.061   2.504   0.200 -0.5697 -0.7935 -0.8688
 1095TIP3    H224701   2.993   2.635   0.232  1.5521  0.1024  0.1828
 1096TIP3   OH224702   3.927   0.473  10.700  0.2908  0.2075 -0.4186
 1096TIP3    H124703   3.897   0.563  10.712  2.2573  0.9451 -0.5538
 1096TIP3    H224704   3.848   0.420  10.702 -0.8406  1.8550  0.4990
 1097TIP3   OH224705   5.886   3.985   4.507 -0.4430  0.1712 -0.1581
 1097TIP3    H124706   5.922   3.986   4.596 -0.1619 -1.4618 -0.2200
 1097TIP3    H224707   5.791   3.986   4.520 -0.4385  2.2033  0.0636
 1098TIP3   OH224708   4.260   4.213   1.144  0.3729  0.3103 -0.3505
 1098TIP3    H124709   4.236   4.237   1.054 -1.4913  1.6407  0.4442
 1098TIP3    H224710   4.290   4.294   1.184 -0.8058  0.2002  0.8211
 1099TIP3   OH224711   4.236   6.770   2.730 -0.1990  0.1446 -0.0262
 1099TIP3    H124712   4.274   6.744   2.814  1.7512  0.1235 -0.8665
 1099TIP3    H224713   4.307   6.757   2.666 -2.2334 -1.9130 -2.0520
 1100TIP3   OH224714   4.349   1.663   6.632  0.0845 -0.1900  0.1264
 1100TIP3    H124715   4.391   1.600   6.690  1.8069  0.6724 -0.1135
 1100TIP3    H224716   4.420   1.720   6.603 -1.3549  1.7245  0.1330
 1101TIP3   OH224717   2.332   3.697  13.255  0.0514 -0.3903  0.2826
 1101TIP3    H124718   2.406   3.675  13.312  0.5901 -1.9913 -0.9473
 1101TIP3    H224719   2.318   3.618  13.203 -1.5232  0.4311 -0.6227
 1102TIP3   OH224720   1.503   0.311  14.445 -0.1776 -0.0451 -0.0792
 1102TIP3    H124721   1.487   0.217  14.436 -0.2365  0.0513 -1.0674
 1102TIP3    H224722   1.527   0.340  14.357  0.0653  0.8270  0.2626
 1103TIP3   OH224723   1.678   0.098  14.126 -0.2328 -0.5444 -0.4080
 1103TIP3    H124724   1.731   0.122  14.202 -0.0018 -1.3479 -0.3119
 1103TIP3    H224725   1.619   0.173  14.114 -1.5541 -1.1441  1.6842
 1104TIP3   OH224726   3.787   2.302  14.276  0.2389  0.2557  0.3508
 1104TIP3    H124727   3.866   2.349  14.305  1.6180 -1.1169 -0.9572
 1104TIP3    H224728   3.820   2.237  14.214 -1.7857 -1.3026  0.8097
 1105TIP3   OH224729   1.507   6.379  13.929 -0.1248  0.6754  0.4499
 1105TIP3    H124730   1.559   6.458  13.947  1.8140 -0.7557  1.4566
 1105TIP3    H224731   1.570   6.316  13.893 -1.2446 -1.0242  1.3357
 1106TIP3   OH224732   6.666   0.569  11.008  0.4552 -0.7534 -0.5452
 1106TIP3    H124733   6.702   0.498  11.061 -0.2114 -0.6249  0.0885
 1106TIP3    H224734   6.578   0.541  10.986 -0.0977  0.1901  0.3469
 1107TIP3   OH224735   0.539   1.099  17.256  0.0438  0.3440 -0.0012
 1107TIP3    H124736   0.468   1.115  17.318 -0.2904 -1.2167  0.0624
 1107TIP3    H224737   0.601   1.045  17.305  0.1572 -0.2397 -0.7674
 1108TIP3   OH224738   4.680   1.827   3.058  0.3781  0.1208  0.1797
 1108TIP3    H124739   4.666   1.910   3.012  0.6546  0.7284  1.1749
 1108TIP3    H224740   4.691   1.763   2.988 -2.0029  0.5089 -0.6638
 1109TIP3   OH224741   2.596   6.690   3.259 -0.8822  0.4301 -0.3930
 1109TIP3    H124742   2.624   6.604   3.291  1.1584  1.1699 -0.0883
 1109TIP3    H224743   2.570   6.674   3.168 -0.3181 -0.4727 -0.4048
 1110TIP3   OH224744   3.533   1.684   1.485 -0.3797  0.1872  0.2307
 1110TIP3    H124745   3.571   1.772   1.488 -0.9448  0.4326  0.2386
 1110TIP3    H224746   3.545   1.656   1.394 -2.0866  1.1221 -0.3221
 1111TIP3   OH224747   4.468   4.684  14.962  0.2248 -0.2952 -0.0451
 1111TIP3    H124748   4.387   4.722  14.929  1.3585  0.4475 -2.1891
 1111TIP3    H224749   4.525   4.759  14.979  1.4184 -0.8451 -1.3457
 1112TIP3   OH224750   4.171   3.829  11.503  0.0531 -0.1990 -0.7546
 1112TIP3    H124751   4.174   3.758  11.439  0.9085 -0.2578 -0.6551
 1112TIP3    H224752   4.078   3.840  11.522 -0.2061 -0.2879 -1.8843
 1113TIP3   OH224753   1.357   4.180  15.729  0.6998 -0.2207 -0.6121
 1113TIP3    H124754   1.351   4.257  15.673 -1.4585 -0.8884 -1.3903
 1113TIP3    H224755   1.267   4.162  15.756  1.4444 -1.0491  1.5761
 1114TIP3   OH224756   5.675   5.842   2.764  0.1137  0.2365 -0.2537
 1114TIP3    H124757   5.596   5.886   2.796 -0.7546 -2.4439  1.6676
 1114TIP3    H224758   5.730   5.832   2.842  1.9318  1.1020 -1.3602
 1115TIP3   OH224759   4.558   0.811   1.309 -0.1575 -0.5173  0.0252
 1115TIP3    H124760   4.470   0.791   1.342 -0.9348  1.0550 -0.9401
 1115TIP3    H224761   4.571   0.903   1.331  0.7336 -0.3950 -0.9150
 1116TIP3   OH224762   3.163   2.285   1.157 -0.3246  0.9114  0.0713
 1116TIP3    H124763   3.093   2.316   1.214 -0.3475 -2.0164  1.8746
 1116TIP3    H224764   3.243   2.294   1.210 -0.2694 -1.3365  0.4704
 1117TIP3   OH224765   5.762   1.609  14.110  0.4552 -0.1380 -0.3103
 1117TIP3    H124766   5.692   1.624  14.172 -0.2979  0.3279 -1.2463
 1117TIP3    H224767   5.831   1.671  14.136 -0.4715  1.1610 -0.8521
 1118TIP3   OH224768   4.718   2.021   0.257  0.0905 -0.4862 -0.4996
 1118TIP3    H124769   4.703   2.079   0.182  0.2196 -1.9700 -1.7033
 1118TIP3    H224770   4.804   2.048   0.291 -0.3902  0.8283 -0.2646
 1119TIP3   OH224771   5.740   5.944   0.265 -0.2387  0.1720  0.2530
 1119TIP3    H124772   5.707   5.854   0.261 -1.5691  0.6745 -0.6990
 1119TIP3    H224773   5.663   5.996   0.288  0.6708  1.0041  1.4977
 1120TIP3   OH224774   4.352   2.122   3.517  0.5309 -0.1491 -0.4555
 1120TIP3    H124775   4.424   2.112   3.455  0.5239  0.3909 -0.5545
 1120TIP3    H224776   4.385   2.085   3.599  0.1254 -1.9874 -1.0538
 1121TIP3   OH224777   2.630   4.641  14.869 -0.3405  0.0503  0.4640
 1121TIP3    H124778   2.574   4.576  14.911 -1.2138 -0.0124 -0.7370
 1121TIP3    H224779   2.569   4.710  14.841  0.5725  1.5222  1.8696
 1122TIP3   OH224780   6.739   3.745   2.342  0.2620  0.5353 -0.0383
 1122TIP3    H124781   6.681   3.688   2.290  0.5934  0.1849 -0.0279
 1122TIP3    H224782   6.764   3.814   2.281  2.2996 -0.9800 -1.0173
 1123TIP3   OH224783   0.957   2.542  13.048  0.8762 -0.5881 -0.3724
 1123TIP3    H124784   0.976   2.514  12.958  1.5467 -0.8253 -0.1678
 1123TIP3    H224785   0.986   2.468  13.102  0.9830 -0.2280  0.0673
 1124TIP3   OH224786   1.156   6.580  15.859 -0.2097 -0.1618  0.4866
 1124TIP3    H124787   1.223   6.643  15.886 -1.1180  0.6006  1.0222
 1124TIP3    H224788   1.201   6.523  15.796  0.5905  1.1527 -0.1958
 1125TIP3   OH224789   1.376   1.744   0.338 -0.1620  0.2538  0.7090
 1125TIP3    H124790   1.415   1.824   0.300 -1.2129  0.6569  0.4474
 1125TIP3    H224791   1.288   1.770   0.364 -0.6874 -0.9391  0.2047
 1126TIP3   OH224792   4.719   0.695   4.850 -0.0001  0.0404  0.5111
 1126TIP3    H124793   4.666   0.619   4.829  1.1518 -1.0864  1.4964
 1126TIP3    H224794   4.686   0.724   4.936 -1.0333  1.2473 -0.2537
 1127TIP3   OH224795   4.441   1.096  14.566 -0.6051 -0.1669  0.0785
 1127TIP3    H124796   4.448   1.114  14.472  3.2251  0.0635  0.2464
 1127TIP3    H224797   4.423   1.002  14.571  1.0354 -0.5807 -0.9783
 1128TIP3   OH224798   2.367   1.304   3.797 -0.2295 -0.1406 -0.1264
 1128TIP3    H124799   2.403   1.384   3.836  0.9895 -1.8554  2.5537
 1128TIP3    H224800   2.274   1.306   3.818 -0.4324  1.0440 -1.0426
 1129TIP3   OH224801   2.888   1.499  14.084  0.1174  0.1263 -0.3119
 1129TIP3    H124802   2.841   1.495  14.167 -1.2666 -2.5203 -1.1024
 1129TIP3    H224803   2.829   1.547  14.026  0.3510  0.5547 -0.1979
 1130TIP3   OH224804   1.820   2.012   0.878 -0.3656  0.6621  0.1341
 1130TIP3    H124805   1.814   2.008   0.783  0.8815 -0.6724  0.0798
 1130TIP3    H224806   1.756   2.079   0.903  0.9253  2.7517 -1.7953
 1131TIP3   OH224807   6.385   2.576  10.284 -0.2652  0.3608 -0.0258
 1131TIP3    H124808   6.352   2.489  10.262  1.4705 -0.5126  0.6289
 1131TIP3    H224809   6.480   2.569  10.273  0.0795  1.6670  1.6874
 1132TIP3   OH224810   6.705   3.013  13.004  0.1303 -0.5177  0.2607
 1132TIP3    H124811   6.659   3.059  13.074  0.3227 -0.0033  0.0534
 1132TIP3    H224812   6.635   2.975  12.951  0.0036 -2.1071  1.5067
 1133TIP3   OH224813   6.418   5.081  11.764 -0.0289 -0.1816 -0.0255
 1133TIP3    H124814   6.470   5.001  11.764  0.3844  0.0809 -0.3184
 1133TIP3    H224815   6.477   5.148  11.799 -0.6161 -0.1552  0.9469
 1134TIP3   OH224816   1.060   4.114  15.731 -0.3485 -0.1123 -0.0578
 1134TIP3    H124817   1.079   4.031  15.688  1.3033  1.0712 -1.7669
 1134TIP3    H224818   0.972   4.137  15.701 -0.2651 -0.5753 -0.6772
 1135TIP3   OH224819   5.977   6.502   5.983  0.2188 -0.2909  0.2692
 1135TIP3    H124820   6.014   6.421   6.017 -0.2330 -0.6960 -0.1873
 1135TIP3    H224821   5.908   6.524   6.044  0.8693  0.1951  0.8433
 1136TIP3   OH224822   0.153   2.684   0.408  0.2580  0.0230  0.3567
 1136TIP3    H124823   0.198   2.612   0.452 -0.1597 -0.6961 -0.3652
 1136TIP3    H224824   0.154   2.755   0.472  0.1632 -0.8117  1.3170
 1137TIP3   OH224825   4.567   3.645  10.597 -0.7520 -0.0796  0.6734
 1137TIP3    H124826   4.562   3.577  10.531  0.6236 -0.2228  0.6895
 1137TIP3    H224827   4.512   3.614  10.669 -0.6138 -0.8838  0.4342
 1138TIP3   OH224828   4.353   4.290  13.627  0.2067 -0.0329 -0.4378
 1138TIP3    H124829   4.366   4.372  13.579  2.8167 -0.5538 -0.7720
 1138TIP3    H224830   4.344   4.224  13.558  1.1536 -0.4179 -0.1929
 1139TIP3   OH224831   1.255   1.484   1.392 -0.3115  0.1245 -0.4301
 1139TIP3    H124832   1.226   1.414   1.334  0.5465 -0.2356 -0.4319
 1139TIP3    H224833   1.178   1.503   1.446  0.1661 -2.7585  1.5013
 1140TIP3   OH224834   4.524   3.985   1.057  0.5152 -0.0068 -0.3408
 1140TIP3    H124835   4.452   4.010   1.000  2.0829  2.9920 -1.2569
 1140TIP3    H224836   4.598   4.037   1.026  2.5180 -1.2865  1.9157
 1141TIP3   OH224837   1.752   3.719   0.313  0.1085 -0.2895 -0.2309
 1141TIP3    H124838   1.801   3.658   0.368  0.0928  0.8497  1.0992
 1141TIP3    H224839   1.814   3.789   0.294 -0.3606  0.0890 -0.3664
 1142TIP3   OH224840   3.587   3.074   0.232 -0.1005  0.4868  0.0851
 1142TIP3    H124841   3.541   3.054   0.150  1.1357  0.2551 -0.5847
 1142TIP3    H224842   3.675   3.039   0.218  0.2575  0.8515  1.3525
 1143TIP3   OH224843   5.312   4.219  15.305  0.0725 -0.0547 -0.4194
 1143TIP3    H124844   5.335   4.145  15.248  1.0107  0.7838 -1.1606
 1143TIP3    H224845   5.242   4.185  15.361  1.7792 -2.1191  0.5903
 1144TIP3   OH224846   4.224   0.458   5.070 -0.0833  0.4117  0.1925
 1144TIP3    H124847   4.181   0.408   5.140 -0.5325  2.5061  1.4968
 1144TIP3    H224848   4.180   0.543   5.070  1.3077  1.1885 -1.2555
 1145TIP3   OH224849   2.176   3.096  13.106  0.1647 -0.1150  0.4746
 1145TIP3    H124850   2.230   3.126  13.179  0.9356 -0.6517  0.1311
 1145TIP3    H224851   2.181   3.167  13.042  0.4805 -0.1704  0.4366
 1146TIP3   OH224852   3.077   3.281  12.899  0.2161 -0.1191 -0.1923
 1146TIP3    H124853   3.098   3.188  12.902 -0.3224 -0.2257  0.6316
 1146TIP3    H224854   2.987   3.286  12.933  0.4625  0.7641  0.3517
 1147TIP3   OH224855   4.636   5.925  12.388 -0.2092 -0.1858 -0.5626
 1147TIP3    H124856   4.571   5.958  12.450  0.8102 -1.4019  1.2341
 1147TIP3    H224857   4.691   6.001  12.368  0.7014 -0.2005  1.6808
 1148TIP3   OH224858   4.222   0.989   1.027 -0.2095 -0.2468 -0.6301
 1148TIP3    H124859   4.136   1.031   1.032 -1.2217 -2.1240 -1.4438
 1148TIP3    H224860   4.222   0.943   0.943 -0.0737 -3.6386  1.0606
 1149TIP3   OH224861   6.276   2.208   1.585  0.2854  0.0178 -0.6876
 1149TIP3    H124862   6.372   2.214   1.590  0.3375 -1.6701  1.3703
 1149TIP3    H224863   6.249   2.295   1.554  2.3650  1.2709  0.7188
 1150TIP3   OH224864   0.158   0.058   1.695 -0.4424  0.0516 -0.2253
 1150TIP3    H124865   0.110   0.119   1.639 -1.4632 -0.3258  0.2224
 1150TIP3    H224866   0.232   0.030   1.642 -2.2439 -1.5407 -2.0410
 1151TIP3   OH224867   2.334   5.759  11.752  0.3215 -0.1623 -0.1273
 1151TIP3    H124868   2.282   5.684  11.783  0.5460 -0.6315 -0.8589
 1151TIP3    H224869   2.425   5.734  11.768  0.4096 -0.1608 -0.6126
 1152TIP3   OH224870   3.946   4.976   6.443 -0.2071  0.2959 -0.7962
 1152TIP3    H124871   3.902   5.040   6.500 -1.0692 -0.9954  0.0419
 1152TIP3    H224872   3.991   5.030   6.378 -0.1295  1.7858  0.4233
 1153TIP3   OH224873   4.094   6.655  17.011 -0.1651 -0.0281 -0.0379
 1153TIP3    H124874   4.151   6.579  16.994 -0.3608  0.2098 -1.9946
 1153TIP3    H224875   4.155   6.729  17.016 -0.1811  0.0522 -0.8865
 1154TIP3   OH224876   6.786   5.197  13.507  0.2986  0.3186 -0.1010
 1154TIP3    H124877   6.751   5.270  13.558 -0.0950 -0.7363  1.1966
 1154TIP3    H224878   6.713   5.167  13.454  0.4116  0.7440 -0.5015
 1155TIP3   OH224879   5.961   1.025  14.831 -0.0480  0.4660  0.0684
 1155TIP3    H124880   5.923   1.080  14.900 -0.3218  1.5130 -0.8853
 1155TIP3    H224881   5.953   1.078  14.751 -0.4790 -1.0463 -0.9202
 1156TIP3   OH224882   6.069   3.032  14.714 -0.0938  0.2710 -0.5517
 1156TIP3    H124883   6.007   3.071  14.652 -0.9930  0.1314  0.2425
 1156TIP3    H224884   6.081   3.098  14.782 -0.3334 -0.1728 -0.0678
 1157TIP3   OH224885   1.301   3.405  16.165  0.2837  0.2467  0.3787
 1157TIP3    H124886   1.275   3.388  16.075 -0.8566  0.5353  0.6447
 1157TIP3    H224887   1.221   3.393  16.217  1.3426 -1.9729  1.6432
 1158TIP3   OH224888   6.342   5.994   3.309  0.4509  0.4029 -0.0040
 1158TIP3    H124889   6.396   6.062   3.268  0.6998  0.1147 -0.1496
 1158TIP3    H224890   6.259   5.998   3.260  0.9031 -0.2411 -0.8353
 1159TIP3   OH224891   5.523   0.200   4.778  0.0178 -0.0334 -0.1802
 1159TIP3    H124892   5.472   0.279   4.756  0.0798  0.5735  1.7081
 1159TIP3    H224893   5.495   0.177   4.866  0.7755 -1.5473 -0.3056
 1160TIP3   OH224894   4.814   2.427  14.330  0.3913  0.3301 -0.2204
 1160TIP3    H124895   4.895   2.417  14.381  0.5963  2.6006  0.0357
 1160TIP3    H224896   4.804   2.344  14.283  0.8134 -1.4483  2.6084
 1161TIP3   OH224897   5.025   2.525  16.888  0.3282 -0.1245 -0.1606
 1161TIP3    H124898   5.017   2.504  16.981 -1.3142  0.7623 -0.0671
 1161TIP3    H224899   5.107   2.575  16.881  0.7040 -0.5945  0.7106
 1162TIP3   OH224900   6.181   4.083  12.029  0.4532 -0.1135 -0.4295
 1162TIP3    H124901   6.199   4.121  12.116 -1.4069 -0.9893  0.3986
 1162TIP3    H224902   6.140   4.155  11.980  1.5430  0.3963 -0.6294
 1163TIP3   OH224903   1.940   1.977   3.807 -0.2326  0.2746 -0.5093
 1163TIP3    H124904   1.928   1.890   3.846 -2.7872  0.8098  0.0735
 1163TIP3    H224905   2.015   1.967   3.749  1.9939 -1.3210  2.3394
 1164TIP3   OH224906   3.708   3.543   0.612  0.4779  0.2314 -0.2884
 1164TIP3    H124907   3.693   3.530   0.518 -0.0751  1.9593 -0.4830
 1164TIP3    H224908   3.622   3.568   0.646  0.5592 -0.8921  0.7944
 1165TIP3   OH224909   3.417   3.394   5.923  0.2404  0.0475  0.4094
 1165TIP3    H124910   3.431   3.486   5.946 -1.5214 -0.1498  2.7103
 1165TIP3    H224911   3.343   3.396   5.863  0.8842  0.1857 -0.3872
 1166TIP3   OH224912   4.066   5.056  16.887  0.0088 -0.5555 -0.6057
 1166TIP3    H124913   4.077   5.037  16.794  0.6907  0.3801 -0.7290
 1166TIP3    H224914   4.153   5.082  16.917 -0.3875  0.0414  0.0716
 1167TIP3   OH224915   3.175   1.049   2.103  0.5620 -0.0899 -0.1130
 1167TIP3    H124916   3.082   1.039   2.083  0.5042  0.8593 -0.3753
 1167TIP3    H224917   3.180   1.045   2.199  0.4710 -1.7275 -0.1380
 1168TIP3   OH224918   6.722   4.712  17.009 -0.1414  0.4348  0.4855
 1168TIP3    H124919   6.722   4.799  17.048 -0.7211  0.2859  0.8208
 1168TIP3    H224920   6.784   4.662  17.063  0.1902  0.6294  0.2939
 1169TIP3   OH224921   2.097   3.111  11.875 -0.6425  0.3287  0.6203
 1169TIP3    H124922   2.121   3.114  11.968  0.6618 -2.4816  0.4896
 1169TIP3    H224923   2.020   3.054  11.872  0.4507 -1.1965 -0.1150
 1170TIP3   OH224924   6.594   5.453   4.956  0.0080  0.0055 -0.2045
 1170TIP3    H124925   6.518   5.453   5.014  1.4161  0.1472  1.7217
 1170TIP3    H224926   6.649   5.382   4.989  1.1456  0.5131 -0.9620
 1171TIP3   OH224927   4.459   1.507  14.630 -0.0720 -0.4455 -0.6175
 1171TIP3    H124928   4.472   1.511  14.725 -0.8197 -2.0503 -0.4175
 1171TIP3    H224929   4.395   1.437  14.617 -2.5599  1.8974 -2.1029
 1172TIP3   OH224930   2.829   3.570  16.283  0.1629  0.3098 -0.0678
 1172TIP3    H124931   2.877   3.513  16.223  0.8774  0.2910  0.4985
 1172TIP3    H224932   2.895   3.598  16.347 -1.1686 -2.5251  2.8638
 1173TIP3   OH224933   5.167   3.514   0.430  0.4250  0.2618 -0.6134
 1173TIP3    H124934   5.219   3.546   0.504  2.3241 -0.5904 -1.4929
 1173TIP3    H224935   5.096   3.464   0.470 -0.3196  2.2138  0.6604
 1174TIP3   OH224936   2.977   4.240  12.287  0.2799  0.0709 -0.1314
 1174TIP3    H124937   3.022   4.245  12.202 -1.5267  0.7457 -1.0966
 1174TIP3    H224938   2.996   4.324  12.329 -0.0365  0.3446 -0.5262
 1175TIP3   OH224939   1.292   2.111  16.539  0.1663  0.3148 -0.1581
 1175TIP3    H124940   1.341   2.063  16.472  0.0443 -1.2700  0.8166
 1175TIP3    H224941   1.347   2.185  16.562  0.2486  0.8351 -1.9319
 1176TIP3   OH224942   2.084   4.151   5.745  0.0065  0.5476  0.0021
 1176TIP3    H124943   1.990   4.143   5.733  0.0485  0.2536 -0.1407
 1176TIP3    H224944   2.122   4.120   5.662  0.2562 -0.2210  0.4036
 1177TIP3   OH224945   5.429   6.696   3.304  0.0635 -0.6115  1.3798
 1177TIP3    H124946   5.495   6.627   3.317  1.7159  0.5872 -0.1402
 1177TIP3    H224947   5.370   6.661   3.237  0.1772 -1.0202  1.4899
 1178TIP3   OH224948   4.031   4.814  14.607 -0.1561  0.4363 -1.2014
 1178TIP3    H124949   4.006   4.769  14.688 -2.0228 -1.3905 -2.6621
 1178TIP3    H224950   3.999   4.903  14.618 -0.8119  0.0876 -0.1148
 1179TIP3   OH224951   2.268   3.776   2.037 -0.5522 -0.3087  0.3715
 1179TIP3    H124952   2.303   3.853   1.992  0.5660 -1.8202 -1.4754
 1179TIP3    H224953   2.343   3.741   2.085 -0.4071 -1.5284 -0.6944
 1180TIP3   OH224954   2.639   5.982   2.181  0.2829  0.0257 -0.4771
 1180TIP3    H124955   2.729   6.009   2.160  1.0917  0.3624  2.8319
 1180TIP3    H224956   2.600   6.059   2.221  0.3536 -1.5307  2.8794
 1181TIP3   OH224957   2.232   1.357  11.316  0.0376  0.1136  0.0979
 1181TIP3    H124958   2.291   1.324  11.385  1.0486 -1.0163 -1.2551
 1181TIP3    H224959   2.284   1.351  11.236 -1.5018  0.3403 -0.9417
 1182TIP3   OH224960   2.125   6.776  10.896 -0.3636  0.1544  0.6344
 1182TIP3    H124961   2.186   6.704  10.913 -0.1288 -0.0125 -0.7777
 1182TIP3    H224962   2.039   6.741  10.920 -0.3397 -0.8522 -0.6509
 1183TIP3   OH224963   2.559   4.632   5.717 -0.3914  0.6128 -0.1690
 1183TIP3    H124964   2.654   4.624   5.721 -0.5225 -2.6707 -0.8285
 1183TIP3    H224965   2.531   4.636   5.809  0.3209  0.1824  0.0708
 1184TIP3   OH224966   0.471   3.524   6.603 -0.0573  0.2261  0.1177
 1184TIP3    H124967   0.542   3.531   6.668 -0.3590  2.8231  0.2624
 1184TIP3    H224968   0.479   3.604   6.550 -0.7649 -1.1060 -2.1151
 1185TIP3   OH224969   0.349   5.524  12.596 -0.2465  0.1448 -0.2285
 1185TIP3    H124970   0.278   5.586  12.580  0.9335  1.5387 -0.2213
 1185TIP3    H224971   0.311   5.459  12.655 -1.6051  0.6780 -0.4848
 1186TIP3   OH224972   1.076   0.727   4.135 -0.0755  0.1237 -0.2414
 1186TIP3    H124973   1.101   0.767   4.219  1.5590  0.0422 -0.6440
 1186TIP3    H224974   1.059   0.801   4.077 -0.7775  0.1827  0.0300
 1187TIP3   OH224975   5.847   2.869   1.390  0.6297  0.1240 -0.0519
 1187TIP3    H124976   5.885   2.956   1.397  1.1782 -0.1183  0.0341
 1187TIP3    H224977   5.869   2.826   1.473 -1.7246  0.7027  0.9472
 1188TIP3   OH224978   5.960   6.716  11.735 -0.6069  0.3884 -0.7036
 1188TIP3    H124979   5.975   6.745  11.646 -1.0449 -1.0817 -1.2848
 1188TIP3    H224980   5.927   6.627  11.726  2.7150 -1.1812  1.0526
 1189TIP3   OH224981   1.508   0.373   5.743 -0.1538  0.3131 -0.1337
 1189TIP3    H124982   1.556   0.440   5.793  0.9439 -0.2776 -0.3532
 1189TIP3    H224983   1.564   0.296   5.747 -1.5511 -0.7137  0.3772
 1190TIP3   OH224984   3.565   1.069  11.105 -0.1313 -0.4718 -0.1016
 1190TIP3    H124985   3.638   1.124  11.133 -0.4644  0.1153 -0.3845
 1190TIP3    H224986   3.510   1.061  11.183  1.0511 -2.2962  0.6251
 1191TIP3   OH224987   1.336   0.262   2.066  0.3631  0.7941  0.1687
 1191TIP3    H124988   1.288   0.277   1.984 -0.3021 -1.6118  0.0503
 1191TIP3    H224989   1.428   0.263   2.040  0.1464 -0.4431 -0.7520
 1192TIP3   OH224990   1.701   5.011  15.511 -0.6794 -0.2343 -0.0401
 1192TIP3    H124991   1.670   5.091  15.552 -2.8726 -0.0240 -1.9078
 1192TIP3    H224992   1.724   4.953  15.584  0.3113  1.8038  1.3402
 1193TIP3   OH224993   3.440   3.257  14.188 -0.0531 -0.3182  0.5716
 1193TIP3    H124994   3.486   3.173  14.192  1.4141  0.4009 -0.2427
 1193TIP3    H224995   3.463   3.292  14.102  0.0513  1.2832  1.2272
 1194TIP3   OH224996   1.547   6.253  12.107  0.0601  0.2119  0.0705
 1194TIP3    H124997   1.642   6.240  12.097 -0.5703 -4.7384 -1.9860
 1194TIP3    H224998   1.518   6.288  12.023 -0.2097 -0.4201 -0.0994
 1195TIP3   OH224999   3.163   1.309  15.440  0.3063  0.0391  0.2585
 1195TIP3    H125000   3.142   1.368  15.512 -0.6483 -0.1195  0.1254
 1195TIP3    H225001   3.239   1.349  15.397  0.5951  0.3766  1.0660
 1196TIP3   OH225002   1.510   3.455   3.974  0.8553  0.1482  0.3939
 1196TIP3    H125003   1.534   3.529   3.918 -0.7460 -0.3863 -1.0849
 1196TIP3    H225004   1.437   3.487   4.027 -0.6546 -0.6584 -1.1066
 1197TIP3   OH225005   3.506   1.475  14.806 -0.6991  0.1564 -0.6462
 1197TIP3    H125006   3.495   1.388  14.768 -2.6780 -0.4890  1.2161
 1197TIP3    H225007   3.590   1.506  14.771 -0.2430 -2.2133 -1.8589
 1198TIP3   OH225008   4.948   0.145  15.168 -0.0601  0.3591 -0.6886
 1198TIP3    H125009   4.925   0.067  15.217  0.8053 -0.1875 -1.1289
 1198TIP3    H225010   5.032   0.124  15.127 -0.2607  1.1756 -1.5623
 1199TIP3   OH225011   5.613   1.093  14.785  0.3224 -0.4446 -0.3299
 1199TIP3    H125012   5.531   1.142  14.788  0.5705  0.1165 -1.6781
 1199TIP3    H225013   5.592   1.015  14.734  0.8380  0.2039 -1.5841
 1200TIP3   OH225014   6.008   4.693  11.789  0.2179 -0.0741  0.1017
 1200TIP3    H125015   6.021   4.707  11.695  2.8353  2.7054  0.7357
 1200TIP3    H225016   5.958   4.611  11.794  1.3160 -1.1789 -3.6353
 1201TIP3   OH225017   2.468   1.759   1.978 -0.3363 -0.3203 -0.7738
 1201TIP3    H125018   2.373   1.769   1.980 -0.4125 -0.6560  2.2155
 1201TIP3    H225019   2.500   1.842   1.944 -1.6474  0.9564  0.9189
 1202TIP3   OH225020   3.298   0.898  17.241 -0.5721  0.3577  0.0840
 1202TIP3    H125021   3.286   0.822  17.185 -1.1778 -0.3366  1.1356
 1202TIP3    H225022   3.271   0.869  17.328  1.0814  1.1705  0.9157
 1203TIP3   OH225023   2.160   1.045  13.221  0.2434  0.1711  0.2192
 1203TIP3    H125024   2.110   1.039  13.302  1.3434  0.0493  0.9087
 1203TIP3    H225025   2.241   0.999  13.239  0.5241  0.1728 -0.9474
 1204TIP3   OH225026   3.208   2.971   0.888 -0.1372 -0.7415 -0.4443
 1204TIP3    H125027   3.225   2.905   0.820 -1.2270 -1.3231 -0.1613
 1204TIP3    H225028   3.113   2.978   0.892 -0.0789 -0.5868  0.9177
 1205TIP3   OH225029   4.121   0.840  15.608  0.1559 -0.2671 -0.5942
 1205TIP3    H125030   4.027   0.859  15.612  0.4926  1.3182  1.8034
 1205TIP3    H225031   4.143   0.812  15.697  2.0902  0.0539 -0.9362
 1206TIP3   OH225032   6.666   6.773   2.705  0.1179  0.2227  0.4421
 1206TIP3    H125033   6.592   6.760   2.646  0.9370  1.7197 -0.9992
 1206TIP3    H225034   6.684   6.866   2.701  1.4985  0.0382  1.5126
 1207TIP3   OH225035   1.709   2.489   6.082  0.1661  0.2605 -0.7839
 1207TIP3    H125036   1.782   2.545   6.053  2.3474 -0.7659  2.2470
 1207TIP3    H225037   1.747   2.401   6.087 -0.4289  0.0651  3.1826
 1208TIP3   OH225038   1.081   5.361  16.341 -0.4876  0.3757  0.5191
 1208TIP3    H125039   0.985   5.355  16.342 -0.5876  0.8418 -1.9003
 1208TIP3    H225040   1.110   5.270  16.345 -1.1193  0.0853 -0.8591
 1209TIP3   OH225041   1.067   6.164  15.988 -0.0891 -0.1376  0.0693
 1209TIP3    H125042   1.021   6.081  15.998 -1.2717  0.4378 -0.4288
 1209TIP3    H225043   1.080   6.174  15.894  0.9296 -0.1982  0.1830
 1210TIP3   OH225044   2.492   2.342   3.520  0.2020 -0.7522 -0.2067
 1210TIP3    H125045   2.534   2.305   3.597 -0.3141 -0.4346  0.2320
 1210TIP3    H225046   2.489   2.270   3.457 -0.7212 -1.4568  0.6083
 1211TIP3   OH225047   6.768   6.709  16.221  0.3737 -0.3811  0.0958
 1211TIP3    H125048   6.708   6.646  16.181 -0.3443 -0.2111  0.8570
 1211TIP3    H225049   6.762   6.691  16.315  0.3044  0.6880  0.3121
 1212TIP3   OH225050   5.395   2.182   0.296  0.1498  0.5769  0.0314
 1212TIP3    H125051   5.403   2.087   0.288 -1.0232  0.4181  0.4050
 1212TIP3    H225052   5.458   2.217   0.234 -1.6179 -0.4816 -2.5906
 1213TIP3   OH225053   2.754   0.217   1.685 -0.0449 -0.9269 -0.5903
 1213TIP3    H125054   2.833   0.256   1.648  2.0747 -1.3165  3.0609
 1213TIP3    H225055   2.711   0.290   1.731 -0.0359 -1.3443  0.0945
 1214TIP3   OH225056   2.759   3.006   1.637  0.4190 -0.2707  0.0415
 1214TIP3    H125057   2.751   2.956   1.718  0.1151 -0.6122 -0.1963
 1214TIP3    H225058   2.739   3.096   1.662  2.5981  0.0520  0.8165
 1215TIP3   OH225059   4.838   2.294  11.211 -0.3030  0.7009  0.7607
 1215TIP3    H125060   4.774   2.259  11.272 -0.5283 -0.6658 -0.2240
 1215TIP3    H225061   4.906   2.333  11.266 -1.2619  0.8857  1.8297
 1216TIP3   OH225062   2.985   2.511   4.956 -0.6100  0.0896 -0.0508
 1216TIP3    H125063   3.059   2.538   5.010 -0.9706 -0.3264  0.6727
 1216TIP3    H225064   2.934   2.453   5.012 -0.3197 -1.4045 -1.2454
 1217TIP3   OH225065   2.237   4.279  13.259  0.0947 -0.3022  0.1318
 1217TIP3    H125066   2.275   4.330  13.331 -1.6756 -0.4293  1.2068
 1217TIP3    H225067   2.144   4.301  13.260  0.0692 -0.0105 -2.4092
 1218TIP3   OH225068   5.240   3.552  11.761  0.2257  0.1636  0.6265
 1218TIP3    H125069   5.318   3.531  11.709  1.2259 -0.8459  2.4530
 1218TIP3    H225070   5.269   3.621  11.821 -0.2849 -0.1931  1.2971
 1219TIP3   OH225071   6.702   3.885  12.364 -0.6552  0.7560  0.1133
 1219TIP3    H125072   6.743   3.932  12.292  0.0962 -0.1829 -0.0912
 1219TIP3    H225073   6.682   3.798  12.328  0.1812  0.1062  1.1549
 1220TIP3   OH225074   4.951   5.351  15.635  0.0654  0.1449  0.0523
 1220TIP3    H125075   5.007   5.368  15.559  2.8408 -0.3436  1.8414
 1220TIP3    H225076   4.945   5.436  15.679 -1.9498  0.5403 -0.8959
 1221TIP3   OH225077   1.904   2.172  12.119 -0.0985 -0.3317  0.4840
 1221TIP3    H125078   1.963   2.245  12.102  0.1312 -0.6898 -0.3103
 1221TIP3    H225079   1.816   2.210  12.114  0.0351  0.0858  1.1016
 1222TIP3   OH225080   6.652   5.270   2.091  0.3034  0.2776 -0.0725
 1222TIP3    H125081   6.599   5.192   2.107  0.7213  0.6150  4.2328
 1222TIP3    H225082   6.593   5.344   2.104  1.1368  0.6210  2.3764
 1223TIP3   OH225083   0.236   5.054   0.987  0.4729 -0.5027  0.0371
 1223TIP3    H125084   0.257   5.076   1.078  0.6677 -0.6791  0.0363
 1223TIP3    H225085   0.188   4.972   0.994 -0.1051 -0.1713  0.0287
 1224TIP3   OH225086   4.931   5.007   1.682  0.0001  0.0073  0.6311
 1224TIP3    H125087   4.879   4.932   1.711  0.0875 -0.3042  0.0025
 1224TIP3    H225088   5.022   4.980   1.696  0.0165  0.5240  1.6628
 1225TIP3   OH225089   0.361   4.894  14.316 -0.9948  0.4474  0.1023
 1225TIP3    H125090   0.323   4.831  14.255 -1.9702 -0.3208  1.4381
 1225TIP3    H225091   0.420   4.842  14.370  0.6719  1.3107 -0.8052
 1226TIP3   OH225092   6.617   2.406  16.623  0.7013 -0.2283  0.1946
 1226TIP3    H125093   6.536   2.401  16.673  1.0876 -0.6389  0.7998
 1226TIP3    H225094   6.671   2.335  16.659  1.1732 -0.2104 -0.4681
 1227TIP3   OH225095   2.680   0.597  17.105 -0.1745 -0.3437  0.3747
 1227TIP3    H125096   2.668   0.588  17.011 -0.6299 -1.0459  0.4906
 1227TIP3    H225097   2.703   0.509  17.135 -1.4377 -0.4471  1.1107
 1228TIP3   OH225098   3.116   1.037  16.317 -0.4533  0.9269  0.2346
 1228TIP3    H125099   3.141   1.092  16.391  0.3162  0.8302  0.0608
 1228TIP3    H225100   3.028   1.007  16.337  1.0564 -2.2196  2.9891
 1229TIP3   OH225101   3.581   2.883  13.054 -0.4282  0.7265  0.1774
 1229TIP3    H125102   3.604   2.918  13.140 -0.5678  2.5707 -0.4878
 1229TIP3    H225103   3.521   2.948  13.017  0.1350  0.3095 -1.5627
 1230TIP3   OH225104   3.909   6.441   5.548 -1.2208  0.2347  0.4754
 1230TIP3    H125105   3.827   6.392   5.544 -0.5550 -1.1645  2.3268
 1230TIP3    H225106   3.969   6.383   5.595  0.8501  1.2081 -0.8153
 1231TIP3   OH225107   1.503   4.487  11.904  0.0364 -0.2925  0.0917
 1231TIP3    H125108   1.481   4.426  11.974 -0.0946 -1.7984 -1.1777
 1231TIP3    H225109   1.583   4.450  11.865  0.9514  1.3189  0.3474
 1232TIP3   OH225110   4.532   1.093   1.363 -0.0024 -0.3896 -0.0704
 1232TIP3    H125111   4.450   1.143   1.367  0.2305 -0.0329  0.4842
 1232TIP3    H225112   4.580   1.120   1.442  1.1076  0.2117 -0.9213
 1233TIP3   OH225113   2.394   4.698  14.118  0.0668  0.4358 -0.4665
 1233TIP3    H125114   2.419   4.669  14.031 -0.1136  0.2872 -0.4709
 1233TIP3    H225115   2.468   4.749  14.149  1.2933 -1.7156  0.3732
 1234TIP3   OH225116   1.276   4.533   1.042 -0.2696  0.5449 -0.0820
 1234TIP3    H125117   1.368   4.522   1.063 -0.5654 -0.1718  0.9475
 1234TIP3    H225118   1.265   4.627   1.026  0.6804  0.5913 -0.4738
 1235TIP3   OH225119   2.395   5.555  12.530 -0.7195 -0.1955  0.3604
 1235TIP3    H125120   2.429   5.567  12.618 -0.7816 -0.9597  0.4921
 1235TIP3    H225121   2.396   5.643  12.492  1.2790 -0.1727  0.3827
 1236TIP3   OH225122   4.226   5.678   5.669  0.0100  0.0323  0.1439
 1236TIP3    H125123   4.273   5.748   5.625  1.0526 -0.6739  0.1042
 1236TIP3    H225124   4.180   5.722   5.741 -0.5096  0.9599 -0.7419
 1237TIP3   OH225125   4.993   2.786   1.478 -0.1752 -0.3682  0.4053
 1237TIP3    H125126   5.007   2.725   1.406  0.2319 -0.1495  0.2975
 1237TIP3    H225127   4.984   2.730   1.555  2.7308 -0.5337  0.7474
 1238TIP3   OH225128   3.702   1.860  14.046  0.2904 -0.0159 -0.3678
 1238TIP3    H125129   3.766   1.921  14.009 -0.4749  0.2445 -1.2980
 1238TIP3    H225130   3.685   1.895  14.134  2.7965 -1.1512  0.6750
 1239TIP3   OH225131   2.601   1.139   0.247 -0.2500  0.0898 -0.0961
 1239TIP3    H125132   2.538   1.186   0.302  0.1596 -0.0616  0.5097
 1239TIP3    H225133   2.669   1.203   0.228 -0.6430  0.2993 -0.8804
 1240TIP3   OH225134   4.180   3.229   0.545  0.1913 -0.0036 -0.3758
 1240TIP3    H125135   4.121   3.301   0.520 -0.7026  0.6307  3.0417
 1240TIP3    H225136   4.125   3.151   0.541 -0.3553  0.2935  0.8173
 1241TIP3   OH225137   1.606   4.240  15.818 -0.2737 -0.2921  0.0032
 1241TIP3    H125138   1.620   4.229  15.911 -0.2875  0.0158  0.0430
 1241TIP3    H225139   1.511   4.243  15.808 -0.2672  0.6435  0.1026
 1242TIP3   OH225140   5.330   0.581   1.382  0.3299  0.0540  0.6718
 1242TIP3    H125141   5.420   0.584   1.415 -0.2091  0.4215  2.1960
 1242TIP3    H225142   5.303   0.490   1.394 -0.5519  0.5764  3.3471
 1243TIP3   OH225143   4.303   3.664   2.536 -0.5347  0.1391 -0.6893
 1243TIP3    H125144   4.386   3.704   2.562 -0.6875  0.4816 -0.7321
 1243TIP3    H225145   4.244   3.681   2.609 -0.1734 -1.3656  0.0090
 1244TIP3   OH225146   2.837   4.612  16.092  0.5594  0.0664 -0.0832
 1244TIP3    H125147   2.926   4.578  16.081  0.5733  0.2984 -0.7210
 1244TIP3    H225148   2.790   4.580  16.016  1.0553  3.0288 -1.7758
 1245TIP3   OH225149   1.694   6.620  15.866  0.7410 -0.1410 -0.1906
 1245TIP3    H125150   1.683   6.654  15.777  0.2828 -2.2145 -0.9771
 1245TIP3    H225151   1.607   6.624  15.905  0.7100 -0.3216 -0.2422
 1246TIP3   OH225152   5.118   6.527   4.888 -0.2615  0.2136  0.2126
 1246TIP3    H125153   5.029   6.538   4.923 -0.3849 -0.6624  0.1913
 1246TIP3    H225154   5.108   6.536   4.794 -0.2082  0.8299  0.2619
 1247TIP3   OH225155   1.561   3.265   4.584 -0.9359 -0.0220 -0.1466
 1247TIP3    H125156   1.619   3.204   4.630 -0.6804  0.7829  0.6291
 1247TIP3    H225157   1.560   3.234   4.494 -0.6483 -1.0478  0.1853
 1248TIP3   OH225158   1.904   3.984   0.868 -0.9827  0.2730  0.1980
 1248TIP3    H125159   1.843   4.023   0.931  0.0510  0.2477  1.2605
 1248TIP3    H225160   1.983   4.038   0.874 -1.0547  0.6073 -1.5109
 1249TIP3   OH225161   5.388   3.683  16.260  0.3578  0.4209 -0.2134
 1249TIP3    H125162   5.329   3.656  16.189  1.6722 -2.2039 -0.4141
 1249TIP3    H225163   5.366   3.625  16.333  1.3207  0.8002  0.3962
 1250TIP3   OH225164   3.492   0.175  13.072 -0.1336  0.2693 -0.0011
 1250TIP3    H125165   3.552   0.106  13.098 -0.9240 -0.1505  0.7818
 1250TIP3    H225166   3.406   0.133  13.072 -0.3913  0.7364 -1.5416
 1251TIP3   OH225167   2.417   5.336   2.463  0.0853 -0.3091  0.0349
 1251TIP3    H125168   2.372   5.314   2.382 -0.3527 -0.4352  0.3130
 1251TIP3    H225169   2.467   5.415   2.441 -0.7861  0.2216 -0.0892
 1252TIP3   OH225170   4.456   4.742  12.787  0.0304  0.0159  0.4059
 1252TIP3    H125171   4.526   4.800  12.759 -1.4872  0.5823 -2.6754
 1252TIP3    H225172   4.495   4.655  12.786  0.2395 -0.0554 -3.9730
 1253TIP3   OH225173   2.581   4.248  14.125  0.1115 -0.6784  0.6660
 1253TIP3    H125174   2.512   4.282  14.068 -0.8657 -1.0818  1.5785
 1253TIP3    H225175   2.657   4.303  14.105 -0.3578 -0.4513 -0.6091
 1254TIP3   OH225176   5.321   1.932   0.492 -0.2774 -0.0569  0.1451
 1254TIP3    H125177   5.331   1.837   0.484 -1.0470 -0.1333 -0.0083
 1254TIP3    H225178   5.376   1.956   0.566  1.8534 -0.2564 -1.2986
 1255TIP3   OH225179   3.600   4.435  16.036  0.1122  0.0599  0.3801
 1255TIP3    H125180   3.634   4.485  16.111  0.3537 -0.5852  0.7125
 1255TIP3    H225181   3.631   4.346  16.052 -1.6592 -0.5372  0.6293
 1256TIP3   OH225182   4.214   2.071   4.300  0.1562  0.7563  1.1683
 1256TIP3    H125183   4.214   1.976   4.314 -1.6295  0.3543 -1.0555
 1256TIP3    H225184   4.189   2.107   4.385 -1.4172 -0.9323  1.4957
 1257TIP3   OH225185   0.244   6.599   1.789 -0.4912  0.1774  0.0603
 1257TIP3    H125186   0.213   6.612   1.878  0.8609  0.4353  0.5107
 1257TIP3    H225187   0.207   6.672   1.740 -2.8606 -0.9967 -0.0693
 1258TIP3   OH225188   6.355   0.288  17.134 -0.2075 -0.1580 -0.1974
 1258TIP3    H125189   6.388   0.300  17.045 -0.4777 -0.2789 -0.3154
 1258TIP3    H225190   6.391   0.204  17.162 -0.9267 -0.5962 -0.5590
 1259TIP3   OH225191   6.620   1.385  13.836  0.0970 -0.4599  0.0684
 1259TIP3    H125192   6.670   1.360  13.758 -1.5115 -0.8385 -0.8903
 1259TIP3    H225193   6.542   1.329  13.833 -0.7541  0.6362  1.0981
 1260TIP3   OH225194   0.139   6.315  14.455  0.1145  0.6298  1.0102
 1260TIP3    H125195   0.091   6.363  14.523 -0.0267  0.9490  0.6895
 1260TIP3    H225196   0.206   6.267  14.503 -0.7364 -0.0924  1.5073
 1261TIP3   OH225197   1.284   3.307   4.603  0.5069 -0.2710  0.0780
 1261TIP3    H125198   1.269   3.223   4.646 -0.4909 -0.4613 -0.6262
 1261TIP3    H225199   1.379   3.309   4.589  0.6110 -1.0325  0.5755
 1262TIP3   OH225200   4.551   2.926   0.820 -0.0850 -0.0467  0.1312
 1262TIP3    H125201   4.506   2.981   0.884 -1.0857 -0.3521 -0.2737
 1262TIP3    H225202   4.525   2.837   0.844  0.5375 -0.2503  0.0533
 1263TIP3   OH225203   5.840   5.050  14.029 -0.4064 -0.1064 -0.2252
 1263TIP3    H125204   5.817   5.077  13.940  0.2056  0.6501 -0.1645
 1263TIP3    H225205   5.755   5.035  14.072 -0.7525  0.8807 -0.5341
 1264TIP3   OH225206   1.343   0.101   0.765  0.5710 -0.2380  0.1025
 1264TIP3    H125207   1.419   0.159   0.761 -0.7833  1.6229 -0.1097
 1264TIP3    H225208   1.357   0.038   0.695  0.9293  1.4201 -1.3963
 1265TIP3   OH225209   1.000   6.728   3.328  0.3504  0.2261 -0.3012
 1265TIP3    H125210   0.990   6.634   3.345 -1.3686 -0.2090 -2.9638
 1265TIP3    H225211   0.910   6.761   3.322  0.8876  1.6315 -1.2343
 1266TIP3   OH225212   6.746   2.627  13.386 -0.3642 -0.0411 -0.0070
 1266TIP3    H125213   6.747   2.720  13.362  0.0430 -0.3266 -1.1817
 1266TIP3    H225214   6.656   2.610  13.413 -0.8012  0.3890 -1.1174
 1267TIP3   OH225215   3.424   3.796   4.942 -0.0497  0.4926 -0.8318
 1267TIP3    H125216   3.360   3.867   4.956 -0.0551  0.7569 -2.1005
 1267TIP3    H225217   3.425   3.783   4.847  1.8100  0.5189 -0.8556
 1268TIP3   OH225218   0.866   6.459  12.103  0.1416 -0.8055 -0.1228
 1268TIP3    H125219   0.872   6.413  12.019 -0.7476 -1.4665  0.1614
 1268TIP3    H225220   0.867   6.552  12.079 -1.1581 -0.9870 -0.9646
 1269TIP3   OH225221   3.474   3.859   1.503 -0.2865  0.2239 -0.2533
 1269TIP3    H125222   3.404   3.858   1.438 -0.2304  0.0741 -0.3110
 1269TIP3    H225223   3.547   3.903   1.459  0.0847 -0.7414 -0.6391
 1270TIP3   OH225224   4.712   4.184  17.149  0.4403 -0.6084  0.0942
 1270TIP3    H125225   4.723   4.132  17.229 -2.4340  0.7633  1.5235
 1270TIP3    H225226   4.727   4.274  17.178 -1.4494 -0.0028 -0.6582
 1271TIP3   OH225227   6.561   4.759   0.663  0.2798  0.2551  0.2998
 1271TIP3    H125228   6.625   4.820   0.699  1.4287 -1.2325  0.9075
 1271TIP3    H225229   6.527   4.713   0.739 -0.9835  0.5077 -0.0951
 1272TIP3   OH225230   0.350   0.455  15.476  0.1030  0.2655  0.0240
 1272TIP3    H125231   0.319   0.484  15.390 -0.3957 -1.1269 -0.2907
 1272TIP3    H225232   0.444   0.443  15.464  0.0406  0.0986 -0.3321
 1273TIP3   OH225233   0.267   1.602   5.215 -0.2189 -0.1927  0.2097
 1273TIP3    H125234   0.348   1.585   5.264  0.0188  1.1700  0.3100
 1273TIP3    H225235   0.285   1.570   5.127 -0.1743 -1.4326  0.6516
 1274TIP3   OH225236   1.561   0.382   0.650  0.2640 -0.1572  0.5244
 1274TIP3    H125237   1.477   0.427   0.653 -0.0466 -0.7218  0.5013
 1274TIP3    H225238   1.558   0.329   0.570  0.6197 -0.2192  0.5491
 1275TIP3   OH225239   4.616   0.645  12.977  0.0309  0.2888  0.2024
 1275TIP3    H125240   4.663   0.581  12.922 -1.3440 -0.1838 -0.4674
 1275TIP3    H225241   4.536   0.664  12.929  0.1450  2.1317  0.6649
 1276TIP3   OH225242   0.373   5.405   5.010 -0.2499 -0.3184  0.0222
 1276TIP3    H125243   0.336   5.448   4.933  2.4897 -1.2463 -1.9733
 1276TIP3    H225244   0.357   5.312   4.995 -1.9696 -0.4025  1.9567
 1277TIP3   OH225245   5.477   3.485  11.148  0.2208  0.2338 -0.0905
 1277TIP3    H125246   5.553   3.498  11.092  0.7510 -0.3579  0.4686
 1277TIP3    H225247   5.499   3.531  11.229 -1.3788  2.8393 -1.0041
 1278TIP3   OH225248   1.470   3.109  14.634  0.1374 -0.6598  0.1853
 1278TIP3    H125249   1.417   3.083  14.709 -0.4417 -0.5692 -0.1921
 1278TIP3    H225250   1.528   3.177  14.668  1.0957 -1.8125  0.9810
 1279TIP3   OH225251   4.874   4.224  13.145 -0.2115 -0.1132 -0.2220
 1279TIP3    H125252   4.946   4.214  13.081 -0.4976  0.8175 -0.7010
 1279TIP3    H225253   4.901   4.169  13.218 -0.2380 -1.8439 -1.4452
 1280TIP3   OH225254   3.370   0.805  11.506  0.6948 -0.6196  0.1135
 1280TIP3    H125255   3.287   0.843  11.477  0.8192  1.9573  2.6391
 1280TIP3    H225256   3.346   0.720  11.544 -0.8276  0.0712  0.7877
 1281TIP3   OH225257   1.545   5.113  11.412  0.2391 -0.0199 -0.6041
 1281TIP3    H125258   1.639   5.106  11.430  0.3773 -1.2676 -1.6460
 1281TIP3    H225259   1.536   5.081  11.322 -1.3095 -0.9171 -0.1651
 1282TIP3   OH225260   4.008   0.452   2.506 -0.1920 -0.3191 -0.3704
 1282TIP3    H125261   4.083   0.409   2.547  0.9412  0.1375 -1.8385
 1282TIP3    H225262   3.985   0.523   2.565  2.5041  1.4179 -1.2107
 1283TIP3   OH225263   0.754   2.130   0.795  0.6107  0.0647  0.5110
 1283TIP3    H125264   0.726   2.064   0.731  1.0314  0.4588 -0.0880
 1283TIP3    H225265   0.835   2.166   0.758  2.7573 -1.9958  2.8374
 1284TIP3   OH225266   6.020   5.654  11.923  0.3014 -0.1400 -0.5984
 1284TIP3    H125267   6.053   5.639  11.835  0.9135  0.5821 -0.4997
 1284TIP3    H225268   6.087   5.707  11.965 -0.6065  0.6602 -0.1257
 1285TIP3   OH225269   0.034   4.886  14.747 -0.5408 -0.3440  0.3303
 1285TIP3    H125270  -0.008   4.801  14.742 -2.0874  0.4442 -1.4531
 1285TIP3    H225271   0.077   4.887  14.833  0.6542 -3.3673 -0.1260
 1286TIP3   OH225272   4.205   1.056  12.627  0.0235  0.1216  0.0329
 1286TIP3    H125273   4.166   1.120  12.567  0.3350 -0.8267 -1.2296
 1286TIP3    H225274   4.268   1.009  12.573  0.1046 -0.9612  1.0475
 1287TIP3   OH225275   5.104   4.985   2.317 -0.0296 -0.8196 -0.1506
 1287TIP3    H125276   5.178   4.962   2.260  0.5564  0.5283  0.0366
 1287TIP3    H225277   5.052   5.047   2.265 -0.0462 -0.3791  0.3852
 1288TIP3   OH225278   3.368   3.678   3.837  0.7957 -0.1425  0.3099
 1288TIP3    H125279   3.317   3.617   3.784  0.0983  1.7150 -1.2710
 1288TIP3    H225280   3.312   3.698   3.912  0.2311 -0.0050 -0.1464
 1289TIP3   OH225281   0.755   3.539  12.965  0.1876  0.5859 -0.5042
 1289TIP3    H125282   0.820   3.593  12.921 -1.8418  2.1611 -1.7264
 1289TIP3    H225283   0.707   3.600  13.020 -2.5867  0.2553 -2.3932
 1290TIP3   OH225284   1.991   2.632  14.333 -0.1251 -0.0754  0.1561
 1290TIP3    H125285   2.054   2.644  14.262  0.4444  1.7498  0.8874
 1290TIP3    H225286   2.037   2.576  14.396  0.1139 -0.1211 -0.0577
 1291TIP3   OH225287   2.447   5.406   5.906  0.3509 -0.2081 -0.0293
 1291TIP3    H125288   2.508   5.418   5.980  0.6834  0.7966 -0.4466
 1291TIP3    H225289   2.382   5.344   5.939  2.1110 -2.1132  0.1109
 1292TIP3   OH225290   1.282   6.009   3.162  0.5168  0.3615  0.6014
 1292TIP3    H125291   1.258   6.095   3.196 -0.5787 -0.2407  1.4449
 1292TIP3    H225292   1.220   5.949   3.205  1.3032 -0.8470  0.0912
 1293TIP3   OH225293   0.537   3.647  15.426 -0.5672  0.0442  0.0105
 1293TIP3    H125294   0.458   3.602  15.456 -1.8116  2.1422  0.0182
 1293TIP3    H225295   0.513   3.683  15.341  1.0173 -0.8053 -0.8493
 1294TIP3   OH225296   3.604   4.024   0.184 -0.5888 -0.2420  0.2365
 1294TIP3    H125297   3.684   4.056   0.142 -1.2985  0.0753 -0.9239
 1294TIP3    H225298   3.598   3.933   0.156 -0.8110 -0.1656  0.0320
 1295TIP3   OH225299   4.755   6.139  14.433 -0.3523  0.0864  0.1092
 1295TIP3    H125300   4.756   6.234  14.422 -0.9666  0.2763  1.4223
 1295TIP3    H225301   4.783   6.126  14.524 -0.7398 -0.9496  0.0914
 1296TIP3   OH225302   6.312   4.321   1.826 -0.2644 -0.1285  0.6146
 1296TIP3    H125303   6.284   4.232   1.806 -0.5436 -0.8836  3.8067
 1296TIP3    H225304   6.338   4.318   1.918  0.7293  2.8710  0.5449
 1297TIP3   OH225305   4.429   2.408   0.546  0.5318 -0.6707  0.2569
 1297TIP3    H125306   4.400   2.336   0.602 -0.9831 -1.8842 -1.9168
 1297TIP3    H225307   4.479   2.365   0.476  1.6126  0.6881  0.1617
 1298TIP3   OH225308   3.430   3.417   3.990  0.1138 -0.0164  0.5058
 1298TIP3    H125309   3.449   3.448   4.078 -1.8748  2.1309  0.2821
 1298TIP3    H225310   3.479   3.476   3.933 -0.9338  0.5387  0.1479
 1299TIP3   OH225311   6.185   5.260   6.527 -0.2302  0.4597 -0.0684
 1299TIP3    H125312   6.266   5.301   6.496 -0.3652  1.0166  0.3045
 1299TIP3    H225313   6.123   5.333   6.535 -0.4993  0.1705  0.5057
 1300TIP3   OH225314   1.012   3.849   1.100  0.5169 -0.0911  0.5483
 1300TIP3    H125315   0.947   3.789   1.136 -0.4341  0.7489  0.2964
 1300TIP3    H225316   1.058   3.883   1.176  0.5337 -0.5507  0.7470
 1301TIP3   OH225317   5.133   4.377   0.320 -0.4420  0.6262 -0.0008
 1301TIP3    H125318   5.104   4.449   0.265 -2.3760  0.6833  1.0308
 1301TIP3    H225319   5.053   4.335   0.351  0.5367  0.3802  2.4701
 1302TIP3   OH225320   6.434   2.741   4.205 -0.1440  0.0840  0.0027
 1302TIP3    H125321   6.421   2.778   4.292 -0.8944  0.7069 -0.3688
 1302TIP3    H225322   6.349   2.705   4.180 -0.3683  1.3304 -1.1270
 1303TIP3   OH225323   5.315   4.110   4.393 -0.9920  0.3423 -0.9648
 1303TIP3    H125324   5.343   4.022   4.418  1.4445  1.1593 -0.5045
 1303TIP3    H225325   5.283   4.101   4.303  0.1967 -0.8555 -1.3001
 1304TIP3   OH225326   0.895   2.001  13.863  0.0286 -0.2237  0.5785
 1304TIP3    H125327   0.860   2.028  13.779  2.1791 -1.2974 -0.7534
 1304TIP3    H225328   0.823   1.955  13.906 -1.1444  0.4735 -0.6025
 1305TIP3   OH225329   5.382   4.680   4.300 -0.0757  0.0582  0.4811
 1305TIP3    H125330   5.330   4.599   4.296 -0.9552  0.5686  1.2852
 1305TIP3    H225331   5.380   4.705   4.392  0.6237  0.7304  0.3205
 1306TIP3   OH225332   3.328   3.674  14.708  0.8390  0.1711  0.7497
 1306TIP3    H125333   3.354   3.727  14.632 -0.2828 -0.8411 -0.3653
 1306TIP3    H225334   3.304   3.589  14.671 -4.6352  1.0789  1.4741
 1307TIP3   OH225335   5.899   6.065   1.583 -0.3013 -0.5532 -0.1037
 1307TIP3    H125336   5.980   6.117   1.587  0.0793 -1.1282 -0.2949
 1307TIP3    H225337   5.878   6.063   1.490  1.0618 -2.8155 -0.4392
 1308TIP3   OH225338   5.251   1.692  15.528  0.6364 -0.3363  0.4151
 1308TIP3    H125339   5.277   1.611  15.486  0.7321  0.2255 -0.6503
 1308TIP3    H225340   5.330   1.747  15.525  1.3732 -1.0524  3.4050
 1309TIP3   OH225341   3.963   3.227  12.671 -0.2092 -0.4703 -0.6206
 1309TIP3    H125342   3.930   3.147  12.630 -0.1889 -1.9815  2.0912
 1309TIP3    H225343   3.946   3.215  12.764 -1.0137  3.1321 -0.1778
 1310TIP3   OH225344   1.310   5.830  14.969 -0.6116 -0.2485 -0.1810
 1310TIP3    H125345   1.252   5.790  15.034  0.5974 -2.0727 -0.1739
 1310TIP3    H225346   1.356   5.757  14.928  0.0639  0.9975 -1.7654
 1311TIP3   OH225347   3.657   2.683   2.530 -0.3460  0.5976 -0.1357
 1311TIP3    H125348   3.605   2.604   2.542 -0.5900  0.7384 -0.2456
 1311TIP3    H225349   3.622   2.723   2.451  0.3522  0.3730 -0.5645
 1312TIP3   OH225350   2.297   6.178  16.857  0.3399  0.1374  0.0034
 1312TIP3    H125351   2.345   6.240  16.801 -0.2281 -0.4234 -1.1467
 1312TIP3    H225352   2.231   6.232  16.901  0.4784  0.5125 -0.2423
 1313TIP3   OH225353   2.369   1.745  17.230  0.1329  0.0636  0.0008
 1313TIP3    H125354   2.298   1.728  17.168  0.0662 -0.5939  0.2527
 1313TIP3    H225355   2.448   1.744  17.177  0.1415 -1.1382  0.0101
 1314TIP3   OH225356   0.771   0.227   0.031  0.1331  0.6330  0.1689
 1314TIP3    H125357   0.816   0.265   0.106  1.2828 -0.8951  0.2989
 1314TIP3    H225358   0.743   0.140   0.061  1.3958 -0.3666 -1.3908
 1315TIP3   OH225359   1.275   1.497  13.304  0.5082  0.2876  0.0128
 1315TIP3    H125360   1.312   1.430  13.246 -2.0392 -1.5611  0.3472
 1315TIP3    H225361   1.300   1.468  13.392 -0.4603 -0.1535  0.1497
 1316TIP3   OH225362   3.740   2.154   3.069  0.2744 -0.2701  0.3736
 1316TIP3    H125363   3.792   2.197   3.136 -2.4865  2.2503  1.1417
 1316TIP3    H225364   3.742   2.214   2.994  0.0270 -1.0600 -0.2807
 1317TIP3   OH225365   2.657   2.358  12.532 -0.0536  0.3789  0.0099
 1317TIP3    H125366   2.690   2.380  12.619  0.6692  0.8118 -0.3627
 1317TIP3    H225367   2.731   2.376  12.473 -0.6429  0.4297 -0.7280
 1318TIP3   OH225368   2.075   3.691  13.409 -0.0275  0.2231 -0.1010
 1318TIP3    H125369   2.138   3.689  13.337  0.4210  0.3034  0.2832
 1318TIP3    H225370   1.994   3.722  13.369 -0.1203 -0.8715 -0.8241
 1319TIP3   OH225371   6.684   1.345  12.098  0.4738 -0.3235  0.3866
 1319TIP3    H125372   6.678   1.249  12.100  1.0836 -0.3617  0.6546
 1319TIP3    H225373   6.746   1.364  12.027  1.6688 -0.2168  1.4090
 1320TIP3   OH225374   0.174   3.253   5.138  0.5300  0.4087  0.7212
 1320TIP3    H125375   0.080   3.265   5.124  0.0752 -0.4911  2.6912
 1320TIP3    H225376   0.210   3.245   5.050 -1.2753  0.3781 -0.0715
 1321TIP3   OH225377   0.316   5.920   1.459 -0.0913  0.4689 -0.3082
 1321TIP3    H125378   0.297   5.864   1.384  1.0563 -0.7611  0.2777
 1321TIP3    H225379   0.237   5.915   1.513 -0.6609  0.8208 -1.0796
 1322TIP3   OH225380   6.182   2.203  11.713 -0.0202 -0.4598 -0.2206
 1322TIP3    H125381   6.227   2.267  11.768  1.0606 -1.1214 -0.3077
 1322TIP3    H225382   6.104   2.249  11.681 -0.6361 -0.0248  1.7623
 1323TIP3   OH225383   6.213   3.900  13.289  0.1364  0.2266 -0.3100
 1323TIP3    H125384   6.186   3.987  13.320 -0.7250  0.1711 -0.8706
 1323TIP3    H225385   6.251   3.916  13.202 -1.0432 -0.0764 -0.8987
 1324TIP3   OH225386   1.324   5.231  15.592  0.2241 -0.9633  0.3075
 1324TIP3    H125387   1.278   5.201  15.670  0.8708  0.2583  1.1888
 1324TIP3    H225388   1.311   5.160  15.528 -2.5906 -0.8188  0.5905
 1325TIP3   OH225389   2.661   3.233   4.676  0.1998  0.2403 -0.1620
 1325TIP3    H125390   2.649   3.141   4.649 -0.1180  0.1121  0.3965
 1325TIP3    H225391   2.732   3.230   4.739 -0.2091  0.2929  0.3024
 1326TIP3   OH225392   5.373   6.039  13.721  0.1446  0.0612 -0.7391
 1326TIP3    H125393   5.409   6.064  13.636 -1.1557  2.2702 -0.7235
 1326TIP3    H225394   5.439   6.067  13.784  0.4463 -0.1925 -0.9407
 1327TIP3   OH225395   0.700   2.282   4.545 -0.7559  0.4131 -0.6609
 1327TIP3    H125396   0.613   2.299   4.510 -1.5363  0.5926  1.2273
 1327TIP3    H225397   0.720   2.359   4.598  0.1911  0.0047 -0.4032
 1328TIP3   OH225398   2.511   3.265   2.693 -0.2108  0.1618 -0.3404
 1328TIP3    H125399   2.445   3.224   2.750  0.6270  1.8198  1.9608
 1328TIP3    H225400   2.555   3.191   2.651 -0.9077 -1.1481  1.1262
 1329TIP3   OH225401   4.905   4.368  15.352  0.4510 -0.2239  0.0960
 1329TIP3    H125402   4.850   4.390  15.427 -0.3608  1.0681 -0.8291
 1329TIP3    H225403   4.898   4.445  15.294  0.4454 -1.4818 -1.6540
 1330TIP3   OH225404   1.557   0.983   4.374  0.0182 -0.0465 -0.2549
 1330TIP3    H125405   1.607   0.910   4.337  1.0368  0.1460  0.6835
 1330TIP3    H225406   1.581   1.058   4.321 -0.4059 -0.2334 -0.7166
 1331TIP3   OH225407   4.689   6.377   4.447 -0.3830 -0.2325 -0.5017
 1331TIP3    H125408   4.754   6.447   4.450  0.1317 -0.6807 -0.9383
 1331TIP3    H225409   4.705   6.334   4.363 -2.4700  0.7916 -1.4806
 1332TIP3   OH225410   6.279   5.936  11.758  0.1526  0.2879 -0.7333
 1332TIP3    H125411   6.270   5.981  11.674  0.2734 -1.0911 -1.5212
 1332TIP3    H225412   6.358   5.973  11.797 -0.2426  1.3739 -0.9297
 1333TIP3   OH225413   4.750   4.436  13.504 -0.6331  0.4593 -0.4439
 1333TIP3    H125414   4.770   4.455  13.596 -2.2954  3.1868 -0.5501
 1333TIP3    H225415   4.720   4.345  13.504 -1.1463  0.5799  1.8159
 1334TIP3   OH225416   0.893   0.077  10.776  0.0134  0.7417  0.0071
 1334TIP3    H125417   0.952   0.125  10.717 -1.4982 -0.3001 -2.5086
 1334TIP3    H225418   0.806   0.113  10.757 -0.4030  1.7044  3.0798
 1335TIP3   OH225419   6.636   0.255   2.654 -0.5978 -0.1449 -0.2061
 1335TIP3    H125420   6.543   0.250   2.635 -0.1952 -2.0819 -2.1035
 1335TIP3    H225421   6.676   0.276   2.570  0.7431 -0.2217  0.3865
 1336TIP3   OH225422   0.881   6.449  15.728 -0.0948  0.0959 -0.0539
 1336TIP3    H125423   0.826   6.527  15.714 -0.0585  0.0263 -0.5958
 1336TIP3    H225424   0.938   6.473  15.801 -1.7671 -0.3181  1.4522
 1337TIP3   OH225425   2.367   2.608  13.276 -0.3203  0.2510 -0.2191
 1337TIP3    H125426   2.431   2.630  13.344 -0.1365  1.0924 -0.6532
 1337TIP3    H225427   2.410   2.634  13.194 -1.1938  0.7745 -0.5203
 1338TIP3   OH225428   5.406   3.387   1.042 -0.6714 -1.0407  0.1038
 1338TIP3    H125429   5.474   3.449   1.019 -0.3545 -0.9448  1.2811
 1338TIP3    H225430   5.443   3.301   1.019 -1.0573 -0.8405 -1.3889
 1339TIP3   OH225431   3.978   1.719   2.978  0.4376  0.1288 -0.4169
 1339TIP3    H125432   4.033   1.766   3.042  0.1914  1.2365 -0.9942
 1339TIP3    H225433   3.953   1.786   2.914 -1.5064 -0.3486 -0.2347
 1340TIP3   OH225434   2.911   4.494  15.108 -0.3940 -1.2318  0.2775
 1340TIP3    H125435   2.818   4.499  15.132 -0.1684 -1.0371  1.1202
 1340TIP3    H225436   2.926   4.401  15.091 -1.0867 -1.0953 -1.3151
 1341TIP3   OH225437   2.043   4.954  15.199 -0.0143 -0.0242 -0.3430
 1341TIP3    H125438   2.114   4.904  15.239  2.3078  2.5423 -0.9595
 1341TIP3    H225439   2.063   4.954  15.106  0.0958  1.9928 -0.3637
 1342TIP3   OH225440   2.315   1.940   4.175 -0.2028  0.3240 -0.5208
 1342TIP3    H125441   2.238   1.974   4.221 -0.1648 -0.5080  0.1938
 1342TIP3    H225442   2.324   1.996   4.098 -1.9591  0.0271 -1.0073
 1343TIP3   OH225443   1.304   1.072   1.110 -0.0594 -0.1543  0.0480
 1343TIP3    H125444   1.345   1.036   1.188 -0.1242  1.7073  0.9972
 1343TIP3    H225445   1.377   1.091   1.051 -0.0156 -1.6082 -0.4017
 1344TIP3   OH225446   1.464   6.363   0.412  0.0123  0.5989  0.1706
 1344TIP3    H125447   1.555   6.384   0.434  0.1374 -0.0020  0.2369
 1344TIP3    H225448   1.417   6.369   0.495 -0.1151  1.4543  0.0399
 1345TIP3   OH225449   3.186   0.549  11.880 -0.0754 -0.5833 -0.0202
 1345TIP3    H125450   3.097   0.515  11.874  0.2620 -1.5367  0.3477
 1345TIP3    H225451   3.241   0.479  11.844  0.8243 -1.3141  2.5961
 1346TIP3   OH225452   0.959   1.415   1.960 -0.2103  0.9943  0.1703
 1346TIP3    H125453   0.996   1.327   1.972  2.7788  2.0402 -0.5465
 1346TIP3    H225454   0.880   1.415   2.015  1.2161 -1.2368  2.4672
 1347TIP3   OH225455   5.319   3.471   5.552 -0.1905 -0.3262 -0.3916
 1347TIP3    H125456   5.259   3.462   5.625  1.0051 -0.1679  0.6400
 1347TIP3    H225457   5.406   3.460   5.590  0.4085 -2.1505 -2.0829
 1348TIP3   OH225458   1.218   2.832  13.916  0.1031  0.2264 -0.3374
 1348TIP3    H125459   1.176   2.838  14.002  0.8515  3.6568 -0.0595
 1348TIP3    H225460   1.200   2.743  13.886 -2.7172 -0.1507  2.0620
 1349TIP3   OH225461   1.088   6.752  17.176  0.7629 -0.2445 -0.3364
 1349TIP3    H125462   1.054   6.821  17.119  2.2731 -0.3910 -1.4637
 1349TIP3    H225463   1.009   6.707  17.208 -0.1503  0.2669 -1.7652
 1350TIP3   OH225464   6.688   4.187   0.769 -0.0492 -0.2071  0.4307
 1350TIP3    H125465   6.736   4.218   0.846  0.5498 -0.0929  0.0167
 1350TIP3    H225466   6.756   4.162   0.707 -0.5133  0.8641 -0.5412
 1351TIP3   OH225467   4.508   2.064   4.045  0.3596 -0.3444 -0.2571
 1351TIP3    H125468   4.538   2.100   3.962  2.2226 -0.8081  0.1851
 1351TIP3    H225469   4.453   1.990   4.020 -1.1868  0.9859 -1.0900
 1352TIP3   OH225470   5.845   2.046   0.753 -0.1126 -0.2387 -1.0831
 1352TIP3    H125471   5.848   2.008   0.841  0.6900 -0.3532 -1.1490
 1352TIP3    H225472   5.823   2.138   0.767 -1.3686 -0.5439 -0.8701
 1353TIP3   OH225473   5.189   1.359   5.046 -0.0269  0.1885 -0.3685
 1353TIP3    H125474   5.225   1.402   4.969  0.4903 -1.4305 -1.0609
 1353TIP3    H225475   5.097   1.342   5.023 -0.7140  2.3101  0.5418
 1354TIP3   OH225476   5.070   5.543  13.849  0.0901  0.7135  0.1730
 1354TIP3    H125477   5.144   5.496  13.810 -1.8306 -0.7943 -1.9413
 1354TIP3    H225478   5.060   5.621  13.795 -0.2935  0.5382 -0.0117
 1355TIP3   OH225479   3.418   6.612   6.177  0.3649 -0.5470  0.0841
 1355TIP3    H125480   3.337   6.639   6.133 -1.7363 -1.8033  2.9377
 1355TIP3    H225481   3.443   6.689   6.229 -1.0710 -1.2728  1.9403
 1356TIP3   OH225482   0.767   5.473  16.252  0.0786  0.6359 -0.1871
 1356TIP3    H125483   0.706   5.527  16.302  0.1567 -0.3960  1.0830
 1356TIP3    H225484   0.751   5.384  16.284  0.8831  0.0843 -1.2619
 1357TIP3   OH225485   4.913   0.626   6.613  0.1315 -0.3395  0.2593
 1357TIP3    H125486   4.984   0.562   6.619  1.2684  0.8491  0.0247
 1357TIP3    H225487   4.950   0.705   6.653 -0.5468  0.7222 -1.1561
 1358TIP3   OH225488   3.923   2.443  13.590  0.6478  0.1807 -0.4800
 1358TIP3    H125489   3.873   2.461  13.670  0.0341  3.4123 -1.4502
 1358TIP3    H225490   4.001   2.397  13.621 -0.6616 -0.7733  1.6537
 1359TIP3   OH225491   3.960   2.913   5.806 -0.2334 -0.1605  0.6545
 1359TIP3    H125492   3.893   2.855   5.842  0.7373 -0.8898  1.3626
 1359TIP3    H225493   3.993   2.962   5.881 -0.3869  0.6346  0.2141
 1360TIP3   OH225494   6.314   0.297  14.030 -0.2328 -1.0683  0.0855
 1360TIP3    H125495   6.221   0.316  14.022 -0.0779 -0.6610 -0.9349
 1360TIP3    H225496   6.352   0.379  14.062  0.0177 -0.5722 -1.3787
 1361TIP3   OH225497   4.434   0.433  11.606 -0.2788 -0.6099 -0.2598
 1361TIP3    H125498   4.516   0.481  11.590 -0.7884 -0.2452 -2.0227
 1361TIP3    H225499   4.455   0.372  11.677  0.7834  1.2527  1.1203
 1362TIP3   OH225500   3.809   3.695   5.507  0.5359  0.8154  0.1618
 1362TIP3    H125501   3.745   3.766   5.510 -0.9189 -0.4242 -0.2507
 1362TIP3    H225502   3.861   3.706   5.587 -0.2244  1.8214  0.5368
 1363TIP3   OH225503   5.701   4.566  16.451  0.1774  0.1133  0.2426
 1363TIP3    H125504   5.790   4.560  16.486  0.5283  1.5715 -0.3120
 1363TIP3    H225505   5.658   4.632  16.506  0.1776  1.1068 -0.8933
 1364TIP3   OH225506   6.740   5.049   5.403 -0.3893 -0.3526  0.2502
 1364TIP3    H125507   6.778   5.050   5.491 -1.5166  1.0053  0.7621
 1364TIP3    H225508   6.815   5.038   5.345  0.4818 -0.3820  1.3405
 1365TIP3   OH225509   5.854   2.134  15.081  0.0531  0.2164 -0.4615
 1365TIP3    H125510   5.775   2.129  15.027 -0.5601  1.4293  0.2937
 1365TIP3    H225511   5.823   2.116  15.170  1.1374 -2.3352 -0.4995
 1366TIP3   OH225512   4.271   1.852  14.107  0.2421  0.0438  0.2144
 1366TIP3    H125513   4.283   1.765  14.069 -0.5965  0.3778 -0.8717
 1366TIP3    H225514   4.282   1.839  14.201 -0.2328 -1.3034  0.1098
 1367TIP3   OH225515   2.140   4.527  16.470 -0.6237  0.2637 -0.7836
 1367TIP3    H125516   2.227   4.495  16.444  0.8742  3.3161  0.0205
 1367TIP3    H225517   2.099   4.553  16.388  0.2828  1.1467 -0.9767
 1368TIP3   OH225518   5.109   3.513  16.380 -0.0195  0.2243 -0.8186
 1368TIP3    H125519   5.109   3.609  16.374 -0.9723  0.2882 -0.1422
 1368TIP3    H225520   5.183   3.492  16.436 -2.0827  0.8948  2.4725
 1369TIP3   OH225521   5.521   2.196  16.480 -0.1614  0.6031 -0.1325
 1369TIP3    H125522   5.615   2.207  16.470 -0.1594  0.6573 -0.0473
 1369TIP3    H225523   5.509   2.164  16.569 -0.1648 -0.1014 -0.3718
 1370TIP3   OH225524   0.067   2.763  13.793 -0.1312  0.5737 -0.2085
 1370TIP3    H125525   0.108   2.778  13.878  1.5090  0.9762 -1.0265
 1370TIP3    H225526   0.136   2.724  13.740 -1.5115 -0.9201 -0.9945
 1371TIP3   OH225527   4.479   0.152   3.851  0.3358 -0.8028  0.1307
 1371TIP3    H125528   4.491   0.213   3.779 -0.6563 -0.1000  0.5406
 1371TIP3    H225529   4.550   0.173   3.912  0.4333 -0.5665 -0.0619
 1372TIP3   OH225530   2.752   3.042   3.058 -0.0324 -0.3217  1.2449
 1372TIP3    H125531   2.764   2.991   3.139  3.6155 -2.7792 -0.5896
 1372TIP3    H225532   2.833   3.029   3.009 -2.4551  0.0639 -3.3934
 1373TIP3   OH225533   6.708   6.132   2.114 -0.0461  0.1686  0.3428
 1373TIP3    H125534   6.704   6.129   2.209  1.5245  0.6148  0.4401
 1373TIP3    H225535   6.619   6.109   2.086 -0.3131 -0.8103  1.8798
 1374TIP3   OH225536   0.016   5.576   0.310  0.3034  0.2098 -0.0993
 1374TIP3    H125537  -0.058   5.517   0.324  0.6195 -0.3636 -0.7794
 1374TIP3    H225538   0.048   5.595   0.398 -0.8565  0.7384  0.2256
 1375TIP3   OH225539   0.517   2.550  16.153 -0.0408 -0.1054  0.2884
 1375TIP3    H125540   0.465   2.513  16.225  0.2655 -1.4213 -0.1404
 1375TIP3    H225541   0.457   2.553  16.079 -0.3925  1.3682  0.5984
 1376TIP3   OH225542   1.173   5.385   4.640  0.6152  0.0188 -0.4173
 1376TIP3    H125543   1.211   5.322   4.579  2.5125  0.5479  0.1423
 1376TIP3    H225544   1.084   5.353   4.656  1.0200 -1.6642 -1.2927
 1377TIP3   OH225545   1.124   5.891  15.855 -0.4189 -0.2580 -0.5463
 1377TIP3    H125546   1.212   5.917  15.882 -1.1091  0.3970  1.2065
 1377TIP3    H225547   1.136   5.809  15.806  1.4831  1.5020 -3.3376
 1378TIP3   OH225548   1.258   4.966   0.533 -0.2900  0.3393  0.0411
 1378TIP3    H125549   1.167   4.993   0.547 -0.0873  1.4470 -0.7027
 1378TIP3    H225550   1.254   4.870   0.533 -1.1091  0.2990  2.1966
 1379TIP3   OH225551   4.745   0.775  11.427 -0.6028 -0.1938  0.2844
 1379TIP3    H125552   4.730   0.811  11.339 -1.5591  0.7848  0.8253
 1379TIP3    H225553   4.832   0.735  11.422  0.2609  1.6685 -0.5391
 1380TIP3   OH225554   4.345   3.506  16.723 -0.1672  0.2395  0.7835
 1380TIP3    H125555   4.302   3.539  16.802  0.5318 -0.8781  1.6672
 1380TIP3    H225556   4.428   3.554  16.719 -1.3600  2.3133 -0.8581
 1381TIP3   OH225557   6.357   6.307   5.740 -0.5021 -0.0239 -0.0921
 1381TIP3    H125558   6.351   6.329   5.833 -1.1014  1.4595 -0.4576
 1381TIP3    H225559   6.433   6.356   5.708 -2.3719  2.4124 -1.1107
 1382TIP3   OH225560   1.133   5.575   3.284 -0.0499  0.2808 -0.1039
 1382TIP3    H125561   1.166   5.664   3.276 -0.9656  0.6188 -0.1544
 1382TIP3    H225562   1.039   5.584   3.301 -0.2176 -0.6728 -0.4209
 1383TIP3   OH225563   1.030   6.408   3.688  0.1007 -0.0795 -0.5554
 1383TIP3    H125564   1.031   6.380   3.779 -0.2703  0.0566 -0.5074
 1383TIP3    H225565   1.122   6.413   3.663  0.1807 -1.2971 -0.5483
 1384TIP3   OH225566   5.270   5.065   4.460  0.3416  0.1989 -0.2369
 1384TIP3    H125567   5.232   5.151   4.443 -0.4466 -0.0799  0.1029
 1384TIP3    H225568   5.196   5.004   4.459  0.8732 -0.4674 -0.3678
 1385TIP3   OH225569   2.025   2.215   0.722  0.2346  0.2099  0.2849
 1385TIP3    H125570   2.019   2.163   0.802 -0.2437  0.3571  0.3473
 1385TIP3    H225571   1.974   2.294   0.741  0.2204  0.2993 -0.1190
 1386TIP3   OH225572   6.590   5.260   2.506 -0.0087 -0.2692 -0.0923
 1386TIP3    H125573   6.553   5.325   2.447 -0.7067 -0.9984 -0.4757
 1386TIP3    H225574   6.577   5.177   2.461 -1.1466 -0.9160  1.3597
 1387TIP3   OH225575   0.535   4.206   2.529  0.0637  0.0493 -0.2827
 1387TIP3    H125576   0.448   4.167   2.516 -0.1608 -0.1805  1.5742
 1387TIP3    H225577   0.556   4.185   2.620  2.3437 -0.4125 -0.8694
 1388TIP3   OH225578   1.358   3.943   4.285  0.0338  0.2958 -0.0480
 1388TIP3    H125579   1.297   4.017   4.279  1.3932  1.9093  3.5564
 1388TIP3    H225580   1.303   3.868   4.308 -0.9703  0.9436 -0.2683
 1389TIP3   OH225581   5.012   4.411   1.390  0.5344  0.3402 -0.2751
 1389TIP3    H125582   5.093   4.397   1.439  1.0620 -0.7573 -1.3823
 1389TIP3    H225583   5.015   4.502   1.363  1.1194  0.4633  0.1890
 1390TIP3   OH225584   3.534   0.489  12.121 -0.0318  0.0695 -0.1890
 1390TIP3    H125585   3.587   0.486  12.041  0.4658  0.5302  0.1228
 1390TIP3    H225586   3.469   0.557  12.104  0.0522  0.1434 -0.2121
 1391TIP3   OH225587   0.750   0.356   2.207  0.9036 -0.4776  0.5839
 1391TIP3    H125588   0.725   0.351   2.300  0.0653  0.7542  0.4457
 1391TIP3    H225589   0.666   0.354   2.160  1.3057 -0.6883 -0.1366
 1392TIP3   OH225590   6.169   4.919   4.628  0.0608  0.4508 -0.3741
 1392TIP3    H125591   6.206   4.991   4.577 -0.1238  0.5582 -0.3555
 1392TIP3    H225592   6.118   4.961   4.697 -1.1649  0.3075 -1.1658
 1393TIP3   OH225593   5.323   1.928   5.843 -0.4012  0.1053 -0.1334
 1393TIP3    H125594   5.232   1.902   5.857 -0.5255  0.8619  0.5689
 1393TIP3    H225595   5.318   2.019   5.814  0.1738  0.9571  2.1488
 1394TIP3   OH225596   0.148   5.469   1.598  0.0296  0.0012  0.1626
 1394TIP3    H125597   0.084   5.472   1.527 -0.7268  4.5013  0.7292
 1394TIP3    H225598   0.116   5.401   1.657 -2.6529  0.1205 -0.9973
 1395TIP3   OH225599   3.500   3.352  11.085 -0.1258 -0.4093 -0.7730
 1395TIP3    H125600   3.527   3.271  11.043 -0.6491 -1.7575  1.3495
 1395TIP3    H225601   3.412   3.368  11.052  0.4967  0.0906 -2.2566
 1396TIP3   OH225602   4.990   4.597   5.375  0.4952  0.2934  0.3556
 1396TIP3    H125603   4.962   4.538   5.445  0.4971 -2.0200 -1.4705
 1396TIP3    H225604   4.968   4.685   5.407 -3.7828 -0.9111  1.3470
 1397TIP3   OH225605   4.035   1.538  14.263  0.3710 -0.0463  0.2538
 1397TIP3    H125606   3.952   1.558  14.220  0.1674  1.0774  1.0970
 1397TIP3    H225607   4.009   1.508  14.350  0.8405  1.8537  1.1041
 1398TIP3   OH225608   3.810   5.606   5.326 -0.2141  0.4373  0.6515
 1398TIP3    H125609   3.821   5.524   5.374  0.0881  0.3945  0.5157
 1398TIP3    H225610   3.830   5.675   5.390  2.1672  0.3373  0.1163
 1399TIP3   OH225611   0.459   4.083  11.988  0.0370 -0.0243 -0.4388
 1399TIP3    H125612   0.410   4.103  11.908 -1.0144 -1.7498 -0.2837
 1399TIP3    H225613   0.478   4.168  12.027  1.1643  0.9157 -2.8358
 1400TIP3   OH225614   0.856   2.894  12.857  0.2015  0.1528 -0.8749
 1400TIP3    H125615   0.898   2.856  12.934 -0.6758 -1.6270 -1.2319
 1400TIP3    H225616   0.927   2.910  12.796  0.8150  0.8736 -0.0043
 1401TIP3   OH225617   5.927   4.818   5.179  0.1984  0.0448 -0.4581
 1401TIP3    H125618   5.931   4.914   5.181 -3.0782  0.2827  0.0448
 1401TIP3    H225619   5.957   4.791   5.265  0.6724  0.6422 -0.4289
 1402TIP3   OH225620   3.804   5.548  13.961  0.1928 -0.1004 -0.0359
 1402TIP3    H125621   3.780   5.456  13.948 -0.6232  0.0608  0.2851
 1402TIP3    H225622   3.815   5.582  13.872  0.4583 -0.4900 -0.1597
 1403TIP3   OH225623   3.654   2.833  14.497 -0.2329 -1.0416  0.1262
 1403TIP3    H125624   3.574   2.856  14.450 -0.6687 -0.4987  1.1075
 1403TIP3    H225625   3.624   2.779  14.571 -0.0186  1.1284  1.9187
 1404TIP3   OH225626   1.522   4.205  12.319  0.6470  0.5974 -0.2199
 1404TIP3    H125627   1.463   4.257  12.372  1.2694  0.4205  0.6621
 1404TIP3    H225628   1.545   4.262  12.245 -2.2414 -0.0536 -1.7598
 1405TIP3   OH225629   6.724   5.698  14.516  0.1688 -0.8424 -0.4708
 1405TIP3    H125630   6.684   5.781  14.486  0.6195 -0.0791  0.9522
 1405TIP3    H225631   6.781   5.672  14.444  0.7885  0.6320 -0.5574
 1406TIP3   OH225632   1.363   3.870  16.843 -0.2535  0.1615  0.2756
 1406TIP3    H125633   1.280   3.834  16.809  0.4331  0.2379 -1.5974
 1406TIP3    H225634   1.423   3.796  16.841 -0.0794  0.2784  0.9722
 1407TIP3   OH225635   1.667   3.780   5.803 -0.4531 -0.1800 -0.0992
 1407TIP3    H125636   1.672   3.794   5.708 -1.9759 -0.3854 -0.2314
 1407TIP3    H225637   1.677   3.868   5.840  1.9478 -0.2888 -0.3173
 1408TIP3   OH225638   2.642   5.290  12.818 -0.0228  0.0587  0.3016
 1408TIP3    H125639   2.707   5.317  12.754 -0.9781  1.0622 -0.2879
 1408TIP3    H225640   2.630   5.196  12.803  2.4338 -0.5304  1.5274
 1409TIP3   OH225641   0.884   5.494  14.938 -0.3021 -0.0244 -0.0111
 1409TIP3    H125642   0.940   5.559  14.979  0.2880  0.0908 -0.9774
 1409TIP3    H225643   0.830   5.544  14.877 -0.3137 -0.3457 -0.2674
 1410TIP3   OH225644   1.916   1.811  12.811  0.1501 -0.1852 -0.0545
 1410TIP3    H125645   1.850   1.758  12.766  0.3042  0.4038 -0.9951
 1410TIP3    H225646   1.985   1.824  12.746  0.3273  0.7771  0.3092
 1411TIP3   OH225647   1.304   6.146  13.663  0.1756 -0.7857 -0.6965
 1411TIP3    H125648   1.363   6.094  13.608  1.8248 -1.2180  1.3055
 1411TIP3    H225649   1.242   6.082  13.698  2.2541 -1.6408  1.8301
 1412TIP3   OH225650   1.878   4.558  13.849  0.0906 -0.0694 -0.4395
 1412TIP3    H125651   1.895   4.470  13.884  1.8720  0.5100  0.2773
 1412TIP3    H225652   1.807   4.592  13.903  1.0399 -0.1746  0.9258
 1413TIP3   OH225653   1.808   4.818   0.611 -0.0142 -0.1169 -1.2099
 1413TIP3    H125654   1.851   4.883   0.555 -1.7205  0.0226 -2.4527
 1413TIP3    H225655   1.880   4.763   0.644  1.1490  0.3369 -2.8501
 1414TIP3   OH225656   0.832   0.652   2.499  0.5017  0.2203  0.1110
 1414TIP3    H125657   0.776   0.729   2.501  0.2310  0.0938 -1.4090
 1414TIP3    H225658   0.898   0.672   2.434 -0.8623 -1.6420 -1.9868
 1415TIP3   OH225659   1.474   5.535   5.133 -0.1960  0.2911  0.3524
 1415TIP3    H125660   1.560   5.568   5.159  0.2650 -0.0546 -0.7095
 1415TIP3    H225661   1.486   5.504   5.043 -1.4794  0.4297  0.1200
 1416TIP3   OH225662   3.425   6.453   2.300 -0.5309 -0.2143  0.2602
 1416TIP3    H125663   3.336   6.428   2.278 -0.6569 -0.0414  0.5701
 1416TIP3    H225664   3.475   6.371   2.294 -0.9762 -0.6055  1.4574
 1417TIP3   OH225665   1.480   1.307   0.003 -0.4043  0.0645  0.3323
 1417TIP3    H125666   1.464   1.218   0.033  0.2035 -0.5382 -1.0651
 1417TIP3    H225667   1.447   1.362   0.075  1.3031 -1.2782  2.2590
 1418TIP3   OH225668   1.637   6.305   0.805  0.1490  0.1307  0.1355
 1418TIP3    H125669   1.665   6.315   0.896  1.0915 -0.0142 -0.1307
 1418TIP3    H225670   1.715   6.273   0.759 -0.8758 -1.9231 -0.3149
 1419TIP3   OH225671   0.190   4.279  14.790 -0.1799 -0.1174  0.3103
 1419TIP3    H125672   0.197   4.373  14.809  1.3690 -0.4931  1.9396
 1419TIP3    H225673   0.278   4.254  14.763 -0.3511 -1.2681  0.7785
 1420TIP3   OH225674   0.705   3.788   4.279 -0.1961 -0.0565  0.0500
 1420TIP3    H125675   0.698   3.732   4.357  2.3111  0.3994  0.6849
 1420TIP3    H225676   0.623   3.774   4.232 -0.8854 -1.9834  1.6952
 1421TIP3   OH225677   3.162   4.793   4.972 -0.4972  0.3673  0.2984
 1421TIP3    H125678   3.107   4.723   4.938 -0.3972 -0.1272  1.1303
 1421TIP3    H225679   3.140   4.799   5.065  0.0737  0.8900  0.4111
 1422TIP3   OH225680   5.828   6.347  16.029 -0.1559 -0.3706 -0.4128
 1422TIP3    H125681   5.873   6.338  16.113 -0.5381  1.3582  0.0073
 1422TIP3    H225682   5.765   6.275  16.028  0.7501 -1.2069  0.1752
 1423TIP3   OH225683   4.803   4.287  14.336  0.4594  0.1615  0.1586
 1423TIP3    H125684   4.810   4.372  14.380  4.1367  1.2311 -2.0741
 1423TIP3    H225685   4.891   4.251  14.339 -0.1680 -1.8414 -2.2049
 1424TIP3   OH225686   6.289   0.667  17.134  0.3212 -0.6522  0.0715
 1424TIP3    H125687   6.264   0.627  17.217 -0.4832 -1.2941 -0.4691
 1424TIP3    H225688   6.380   0.641  17.121 -0.0901 -2.0410 -0.1076
 1425TIP3   OH225689   2.310   4.613  12.925 -0.4119 -0.8014  0.7425
 1425TIP3    H125690   2.247   4.664  12.875  0.8460 -2.1134 -2.4589
 1425TIP3    H225691   2.265   4.531  12.944 -0.5640 -0.6841  0.8899
 1426TIP3   OH225692   1.005   4.785  14.572  0.0250  0.0698 -0.1533
 1426TIP3    H125693   1.007   4.848  14.644 -1.0718 -1.1399  0.9947
 1426TIP3    H225694   0.927   4.808  14.522 -0.7114 -0.6878  0.6067
 1427TIP3   OH225695   5.714   3.945   5.093 -0.1428 -0.0879 -0.0557
 1427TIP3    H125696   5.737   3.874   5.033 -1.0497 -0.3375 -0.1236
 1427TIP3    H225697   5.795   3.993   5.106  0.3607 -0.8214 -0.4381
 1428TIP3   OH225698   1.885   4.692   1.773  0.7363 -0.0736 -0.1180
 1428TIP3    H125699   1.935   4.620   1.735 -0.7484 -0.9973 -0.4432
 1428TIP3    H225700   1.862   4.747   1.698 -0.1627 -0.5963 -0.2453
 1429TIP3   OH225701   0.191   5.720  12.511  0.0781  0.1838 -0.0926
 1429TIP3    H125702   0.225   5.772  12.438 -1.7054  0.0821 -1.0369
 1429TIP3    H225703   0.132   5.779  12.558 -3.4008 -1.2848 -2.2131
 1430TIP3   OH225704   2.666   6.474   4.755 -0.5590 -0.1972 -0.0653
 1430TIP3    H125705   2.719   6.402   4.721 -2.0020  0.0192 -3.0643
 1430TIP3    H225706   2.729   6.545   4.769  0.4908 -1.1853  0.4992
 1431TIP3   OH225707   5.306   5.085  13.374 -0.2368  0.1697  0.6008
 1431TIP3    H125708   5.217   5.085  13.338 -0.1577  0.2328  0.4038
 1431TIP3    H225709   5.304   5.020  13.444 -0.8022  1.1151  1.5033
 1432TIP3   OH225710   4.912   2.248   3.804  0.1487 -0.0632 -0.5230
 1432TIP3    H125711   4.848   2.314   3.778 -0.6110 -0.5745 -0.0084
 1432TIP3    H225712   4.883   2.220   3.891  1.8173  0.6086  0.2809
 1433TIP3   OH225713   1.232   6.135  17.092 -0.0626  0.1794  0.1213
 1433TIP3    H125714   1.232   6.206  17.156 -2.4556  0.8095 -0.4702
 1433TIP3    H225715   1.163   6.158  17.030  0.4623 -1.6712 -1.2487
 1434TIP3   OH225716   0.995   1.590  13.307 -0.8977 -0.2081  0.3330
 1434TIP3    H125717   0.956   1.531  13.372  0.5156  0.6309  2.0333
 1434TIP3    H225718   1.084   1.555  13.294 -0.1812  1.2286  1.0656
 1435TIP3   OH225719   1.743   4.169  11.334 -0.4616 -0.0322  0.6530
 1435TIP3    H125720   1.744   4.078  11.302  0.2132  0.2928 -0.3291
 1435TIP3    H225721   1.801   4.215  11.274 -3.0867  1.6961 -0.7525
 1436TIP3   OH225722   1.445   6.194   2.618  0.6783 -0.5049 -0.2413
 1436TIP3    H125723   1.352   6.191   2.595 -0.0993  0.8937  2.2906
 1436TIP3    H225724   1.486   6.246   2.549 -0.8251  0.5539 -0.3858
 1437TIP3   OH225725   2.174   4.629   1.828 -0.3601 -0.2035 -0.2779
 1437TIP3    H125726   2.243   4.674   1.778  1.4694 -2.3235  0.2027
 1437TIP3    H225727   2.123   4.582   1.762 -0.8680  0.6853 -0.5460
 1438TIP3   OH225728   6.093   4.067   4.264 -0.3580  0.2313  0.7174
 1438TIP3    H125729   6.047   3.992   4.301 -0.1792 -0.7358 -0.9478
 1438TIP3    H225730   6.054   4.079   4.178  2.7488 -0.9813 -1.0303
 1439TIP3   OH225731   3.911   5.111  14.414  0.6837 -0.3658 -0.0791
 1439TIP3    H125732   3.932   5.162  14.492 -1.2338  1.0791 -0.4193
 1439TIP3    H225733   3.881   5.026  14.448  0.1323  0.1516  0.7622
 1440TIP3   OH225734   0.826   0.533  11.691 -0.9620 -0.3074 -0.0804
 1440TIP3    H125735   0.873   0.615  11.699 -2.2279  0.4486 -0.0752
 1440TIP3    H225736   0.894   0.466  11.691  0.0217  0.6322  1.4004
 1441TIP3   OH225737   2.101   0.057   3.676 -0.3293  0.2224 -0.4721
 1441TIP3    H125738   2.063   0.113   3.608  1.2886  1.7235 -0.2021
 1441TIP3    H225739   2.103   0.112   3.754 -1.3798 -1.1992  0.6174
 1442TIP3   OH225740   4.139   6.080  11.808 -0.2021  0.1096 -0.2691
 1442TIP3    H125741   4.096   6.137  11.744 -0.7826 -0.7647 -0.6714
 1442TIP3    H225742   4.215   6.044  11.761 -0.2312  0.0107 -0.2407
 1443TIP3   OH225743   0.532   1.059  12.884  0.5290 -0.1796  0.0088
 1443TIP3    H125744   0.558   1.036  12.973  0.7191 -1.4823 -0.3519
 1443TIP3    H225745   0.614   1.070  12.837  0.4358  1.0918  0.1100
 1444TIP3   OH225746   1.928   4.959  13.247  0.3875  0.2857  0.3711
 1444TIP3    H125747   1.977   5.040  13.234  0.0842  0.3408 -0.5090
 1444TIP3    H225748   1.838   4.987  13.260  0.2967  0.0983  0.1562
 1445TIP3   OH225749   1.803   1.717  17.099  0.2059  0.4236 -0.2735
 1445TIP3    H125750   1.854   1.637  17.095 -0.8615 -0.3899  1.2666
 1445TIP3    H225751   1.726   1.694  17.152  0.6972  2.8606  1.7038
 1446TIP3   OH225752   6.708   1.695  15.113 -0.5502  0.4849  0.0391
 1446TIP3    H125753   6.737   1.669  15.026 -0.9756  0.7032 -0.1754
 1446TIP3    H225754   6.638   1.633  15.135 -0.8270  0.7695 -0.0176
 1447TIP3   OH225755   0.011   0.918   4.725 -0.0482 -0.0153 -0.8914
 1447TIP3    H125756   0.007   0.915   4.630  0.3385  0.4487 -0.9280
 1447TIP3    H225757  -0.057   0.857   4.755  0.6457 -1.0812 -1.4613
 1448TIP3   OH225758   4.278   0.633  10.930 -1.1454 -0.6628 -0.5600
 1448TIP3    H125759   4.356   0.673  10.970 -2.5655  0.9751  0.7347
 1448TIP3    H225760   4.294   0.539  10.936 -0.0038 -0.4145  1.2754
 1449TIP3   OH225761   1.979   5.592  12.023  0.0036  0.0862 -0.5277
 1449TIP3    H125762   2.049   5.549  11.975 -1.0582 -1.1823 -1.0071
 1449TIP3    H225763   1.931   5.642  11.956 -0.8372 -0.8212 -0.6252
 1450TIP3   OH225764   3.624   0.931  11.359 -0.1550  0.0341 -0.4552
 1450TIP3    H125765   3.620   1.021  11.392  1.3959 -0.0922  0.1734
 1450TIP3    H225766   3.657   0.940  11.270 -1.6929  0.1837 -1.0377
 1451TIP3   OH225767   5.000   2.638  14.239 -0.2705  0.2417 -0.0389
 1451TIP3    H125768   5.024   2.553  14.200  0.5659 -0.1938  1.3361
 1451TIP3    H225769   5.055   2.701  14.193 -0.1784 -0.0973 -0.4044
 1452TIP3   OH225770   5.589   2.989   0.669 -0.1993  0.3194 -0.2668
 1452TIP3    H125771   5.638   2.912   0.641 -1.6189 -0.8056  0.2017
 1452TIP3    H225772   5.592   2.987   0.764 -0.1705  0.9031 -0.2485
 1453TIP3   OH225773   1.046   6.597   5.184 -0.2450 -0.1925  0.2435
 1453TIP3    H125774   0.972   6.558   5.230 -0.1641  0.7461  1.2164
 1453TIP3    H225775   1.010   6.628   5.101 -0.9829  0.4131  0.7833
 1454TIP3   OH225776   2.330   6.053  13.915 -0.0070  0.4614  0.1290
 1454TIP3    H125777   2.374   6.138  13.912  0.9686  0.0179  1.1498
 1454TIP3    H225778   2.360   6.008  13.836  1.4972  0.1292  0.8556
 1455TIP3   OH225779   3.068   1.990   4.814 -0.4828  0.4396  0.7570
 1455TIP3    H125780   3.125   2.015   4.888 -2.0737 -0.1405  2.2578
 1455TIP3    H225781   3.007   2.064   4.805 -1.7273 -0.4350  1.5875
 1456TIP3   OH225782   4.771   1.299  12.353  0.5913  1.0021  0.2116
 1456TIP3    H125783   4.754   1.285  12.446 -0.2991  0.5555 -0.0030
 1456TIP3    H225784   4.776   1.394  12.343 -0.9157  1.1336  0.4673
 1457TIP3   OH225785   0.985   0.132  12.483 -0.4637  0.2936  0.4616
 1457TIP3    H125786   0.916   0.198  12.481 -1.1038 -0.3907 -1.6458
 1457TIP3    H225787   0.963   0.071  12.413  0.8643 -1.4107  1.4497
 1458TIP3   OH225788   5.642   5.076   5.991 -0.2031 -0.0394  0.0007
 1458TIP3    H125789   5.649   5.044   5.901  0.4292  2.1620 -0.8074
 1458TIP3    H225790   5.699   5.018   6.041  1.3905  0.1289 -1.4925
 1459TIP3   OH225791   5.452   1.051  15.019 -0.2583 -0.1706  0.5671
 1459TIP3    H125792   5.508   0.977  14.996 -0.8577 -0.8716  1.3168
 1459TIP3    H225793   5.368   1.032  14.977 -0.2239  0.4152  0.2198
 1460TIP3   OH225794   1.663   3.608   2.927  0.0509  0.5832  0.9379
 1460TIP3    H125795   1.591   3.627   2.987 -1.3132 -1.4909  0.0746
 1460TIP3    H225796   1.664   3.513   2.919  1.8141  0.6513 -0.3974
 1461TIP3   OH225797   4.327   2.449   0.124 -0.3178  0.1490  0.1262
 1461TIP3    H125798   4.420   2.470   0.131 -0.4721  0.6046  0.9804
 1461TIP3    H225799   4.282   2.520   0.170 -0.9799 -0.8661  1.1043
 1462TIP3   OH225800   0.629   2.027  14.619  0.0460  0.9639  0.4525
 1462TIP3    H125801   0.634   2.112  14.661 -0.3495  0.5955  1.2586
 1462TIP3    H225802   0.535   2.010  14.611  0.1226  0.2195  1.0827
 1463TIP3   OH225803   4.260   0.662  13.304 -0.1868 -0.5936 -0.0290
 1463TIP3    H125804   4.170   0.645  13.276 -0.0353 -1.4232 -0.0544
 1463TIP3    H225805   4.269   0.611  13.385  0.7827 -1.9388 -0.9448
 1464TIP3   OH225806   6.295   3.662   3.173  0.5183 -0.5167 -0.1396
 1464TIP3    H125807   6.275   3.695   3.261 -0.9668  0.5119 -0.8180
 1464TIP3    H225808   6.211   3.667   3.127  1.4781 -0.0933 -1.8984
 1465TIP3   OH225809   0.164   6.050  10.879 -0.6113 -0.0305 -0.5016
 1465TIP3    H125810   0.238   6.025  10.933 -0.3420  0.1340 -0.7911
 1465TIP3    H225811   0.145   5.971  10.827 -0.7309 -0.1182 -0.3257
 1466TIP3   OH225812   0.564   0.465  16.220 -0.1784 -0.2575 -0.0618
 1466TIP3    H125813   0.626   0.495  16.154 -0.6281 -1.5419 -1.1115
 1466TIP3    H225814   0.543   0.375  16.195 -1.6623 -0.2135  0.8612
 1467TIP3   OH225815   0.242   2.242   4.740  0.1585  0.1949 -0.2257
 1467TIP3    H125816   0.324   2.289   4.753  0.7108 -0.3095 -1.6638
 1467TIP3    H225817   0.206   2.232   4.828  1.2843  1.0457  0.3573
 1468TIP3   OH225818   1.546   0.545   5.065 -0.8250  0.2053  0.2544
 1468TIP3    H125819   1.521   0.544   4.972 -1.6596  1.4431  0.4516
 1468TIP3    H225820   1.481   0.489   5.108  0.0932 -1.1142 -0.0031
 1469TIP3   OH225821   4.719   2.932   5.293  0.0187  0.4293 -0.5242
 1469TIP3    H125822   4.756   2.988   5.226  0.3869 -1.0728 -1.6429
 1469TIP3    H225823   4.775   2.854   5.292  0.7302  0.8066  2.3306
 1470TIP3   OH225824   1.726   1.527  11.253  0.6358  0.3103  0.1207
 1470TIP3    H125825   1.698   1.441  11.222  1.2161 -0.1096  0.7250
 1470TIP3    H225826   1.816   1.513  11.283  0.5158  0.9738  0.8128
 1471TIP3   OH225827   6.458   2.276   0.280 -0.0091 -0.3014 -0.1160
 1471TIP3    H125828   6.424   2.353   0.326 -0.7632 -0.5803 -0.2024
 1471TIP3    H225829   6.552   2.292   0.275 -0.3686  1.8087 -2.2784
 1472TIP3   OH225830   0.244   6.238   4.353 -0.0236  0.1295  0.0193
 1472TIP3    H125831   0.289   6.157   4.329  4.8388  2.3199  0.5114
 1472TIP3    H225832   0.228   6.230   4.447  0.3687 -0.3035  0.0519
 1473TIP3   OH225833   6.310   0.535  11.807  0.1935  0.4229  0.0966
 1473TIP3    H125834   6.269   0.450  11.791  0.0543  0.2974  1.0935
 1473TIP3    H225835   6.306   0.579  11.722 -0.3884 -0.2784 -0.2562
 1474TIP3   OH225836   5.488   2.229  12.140  0.0042 -0.3570 -0.0324
 1474TIP3    H125837   5.459   2.238  12.050 -0.6878  0.4103  0.2546
 1474TIP3    H225838   5.502   2.135  12.152  0.0680 -0.4655 -0.9173
 1475TIP3   OH225839   5.988   1.894  13.262  0.2674  0.6026 -0.0725
 1475TIP3    H125840   5.906   1.850  13.287  1.1709 -1.2190 -0.1195
 1475TIP3    H225841   5.972   1.929  13.175 -0.0311 -0.9988 -0.6868
 1476TIP3   OH225842   5.791   4.502  12.420 -0.6433 -0.4860 -0.7870
 1476TIP3    H125843   5.717   4.559  12.399 -1.4125 -0.7696  0.9051
 1476TIP3    H225844   5.766   4.417  12.385 -1.3147 -0.6671  0.1007
 1477TIP3   OH225845   2.985   2.520   0.498 -0.6636 -0.3262 -0.0534
 1477TIP3    H125846   3.035   2.455   0.449  0.3190 -2.7974  3.7409
 1477TIP3    H225847   2.894   2.496   0.484 -0.4715 -0.4018 -1.2769
 1478TIP3   OH225848   2.416   2.615  13.925  0.1732  0.4782 -0.2690
 1478TIP3    H125849   2.474   2.631  14.000  2.1796  1.5950 -1.9409
 1478TIP3    H225850   2.391   2.523  13.933 -0.3289  0.7740  2.1782
 1479TIP3   OH225851   6.396   6.649   5.759 -0.0615  0.0974 -0.5678
 1479TIP3    H125852   6.338   6.574   5.744  1.3869 -1.0827 -0.6238
 1479TIP3    H225853   6.361   6.718   5.703 -0.2956 -1.1923 -2.0976
 1480TIP3   OH225854   0.601   3.795  12.843  0.1062  0.3004 -0.4155
 1480TIP3    H125855   0.619   3.728  12.778  1.7332 -0.0278  0.3232
 1480TIP3    H225856   0.668   3.862  12.829 -1.0764  1.4803 -0.7051
 1481TIP3   OH225857   2.683   0.727   5.057 -0.1666 -0.0145  0.4075
 1481TIP3    H125858   2.727   0.677   5.126  1.1571 -0.8655 -0.9865
 1481TIP3    H225859   2.750   0.785   5.023  0.1449 -1.6912 -2.1190
 1482TIP3   OH225860   5.943   4.817  17.133 -0.6827  0.1906  0.6694
 1482TIP3    H125861   5.967   4.902  17.098  1.4177  0.3857  2.3769
 1482TIP3    H225862   5.847   4.816  17.131 -0.7208  2.1015 -0.4290
 1483TIP3   OH225863   4.832   6.078   2.736 -0.1848  0.1326 -0.5199
 1483TIP3    H125864   4.801   6.037   2.655 -0.5884  0.3540 -0.4791
 1483TIP3    H225865   4.786   6.032   2.806  0.8588 -0.6835 -0.3578
 1484TIP3   OH225866   0.890   3.230  15.427 -0.4845  0.1696  0.1540
 1484TIP3    H125867   0.898   3.213  15.333 -0.9908  0.1090  0.1208
 1484TIP3    H225868   0.967   3.187  15.465 -0.1166  0.4473 -0.2578
 1485TIP3   OH225869   0.357   0.402  12.080 -0.2948  0.0940  0.0325
 1485TIP3    H125870   0.396   0.432  11.998  1.0673 -0.8852  0.2743
 1485TIP3    H225871   0.325   0.314  12.061  0.5662 -0.3838  0.6595
 1486TIP3   OH225872   3.592   0.017  13.935 -0.1006  0.4738 -0.8892
 1486TIP3    H125873   3.593   0.039  13.842 -0.4818 -0.8839 -1.2380
 1486TIP3    H225874   3.507  -0.025  13.948  0.5312 -0.6489 -0.2560
 1487TIP3   OH225875   3.121   0.045   1.772  0.0735  0.3566  0.4125
 1487TIP3    H125876   3.136   0.140   1.773  0.9493  0.2665 -1.3049
 1487TIP3    H225877   3.067   0.031   1.694 -0.2661 -0.5554  0.7984
 1488TIP3   OH225878   6.145   5.403   2.883  0.3596 -0.1180  0.2086
 1488TIP3    H125879   6.132   5.380   2.975 -1.3126  0.7674  0.2305
 1488TIP3    H225880   6.058   5.430   2.853  0.8323 -0.5828 -1.6917
 1489TIP3   OH225881   3.321   2.848   4.526  0.4608  0.5008  0.6136
 1489TIP3    H125882   3.302   2.798   4.606  1.0002  1.7130  1.5295
 1489TIP3    H225883   3.244   2.903   4.514  0.5444  0.5974  0.5218
 1490TIP3   OH225884   5.260   1.676  10.972  0.4626  0.3250 -0.5098
 1490TIP3    H125885   5.215   1.605  10.927  1.1400  0.0325 -0.7455
 1490TIP3    H225886   5.238   1.754  10.922  1.3204 -0.0172 -1.4504
 1491TIP3   OH225887   1.157   6.261   6.690 -0.0230 -0.1800 -0.5870
 1491TIP3    H125888   1.148   6.193   6.757  0.2506  0.7888  0.4700
 1491TIP3    H225889   1.068   6.292   6.675 -0.0234  0.0113 -0.2114
 1492TIP3   OH225890   2.538   6.078  15.589  0.8306 -0.0991  0.0270
 1492TIP3    H125891   2.588   6.118  15.660  1.4400 -0.8735  0.0508
 1492TIP3    H225892   2.593   6.090  15.511  1.4142 -1.5528  0.1735
 1493TIP3   OH225893   0.706   5.533   5.643 -0.2981  0.0401 -0.1135
 1493TIP3    H125894   0.629   5.521   5.587 -0.3168  2.1235 -0.5960
 1493TIP3    H225895   0.744   5.445   5.649 -2.6182 -1.0318  0.0406
 1494TIP3   OH225896   3.628   0.172  12.287  0.1352 -0.0990  0.8556
 1494TIP3    H125897   3.541   0.137  12.269 -0.1446  1.7684 -1.9310
 1494TIP3    H225898   3.612   0.256  12.330  0.6489 -0.4571  1.7844
 1495TIP3   OH225899   1.817   2.316   4.655 -0.6892 -0.3096 -0.6204
 1495TIP3    H125900   1.777   2.401   4.641 -0.5083 -0.1342 -0.1070
 1495TIP3    H225901   1.769   2.278   4.728  1.4697  0.8599  1.5545
 1496TIP3   OH225902   1.632   3.493   5.975 -0.4753  0.3366  0.1633
 1496TIP3    H125903   1.713   3.477   6.023 -0.4074 -1.4094 -0.4538
 1496TIP3    H225904   1.588   3.563   6.024  1.5100  1.5391  0.3431
 1497TIP3   OH225905   4.335   6.031   0.437  0.0455 -0.6601  0.3982
 1497TIP3    H125906   4.401   6.098   0.456 -0.6584 -0.0047  0.5842
 1497TIP3    H225907   4.356   6.001   0.349 -1.4645  2.0703 -1.0187
 1498TIP3   OH225908   6.530   1.517  16.140 -0.2160 -0.3185 -0.7241
 1498TIP3    H125909   6.567   1.589  16.088 -0.6691 -0.6506 -1.5097
 1498TIP3    H225910   6.455   1.556  16.185 -0.6643 -0.3858 -1.4132
 1499TIP3   OH225911   3.826   1.615   0.803  0.1430 -0.0859  0.0175
 1499TIP3    H125912   3.861   1.674   0.870  0.3998  0.1412 -0.3110
 1499TIP3    H225913   3.745   1.582   0.840 -0.2897  0.8987 -0.0026
 1500TIP3   OH225914   3.439   3.861  16.676 -0.3258  0.2732 -0.6882
 1500TIP3    H125915   3.445   3.932  16.612  1.0159 -1.1613 -2.2382
 1500TIP3    H225916   3.415   3.905  16.757 -0.6493  2.3567 -1.8280
 1501TIP3   OH225917   0.459   3.550   5.850 -0.0513 -0.7889 -0.2762
 1501TIP3    H125918   0.534   3.547   5.790 -0.8085 -0.0631 -1.2896
 1501TIP3    H225919   0.398   3.486   5.815 -0.3459 -0.6245 -0.0662
 1502TIP3   OH225920   1.924   4.542   6.843  0.0091  0.1645 -0.0431
 1502TIP3    H125921   1.896   4.464   6.794 -2.0652  1.0893 -0.4350
 1502TIP3    H225922   1.854   4.558   6.905  1.3339  0.6224  1.4011
 1503TIP3   OH225923   5.377   6.052   1.032  0.0626  0.1530 -0.5619
 1503TIP3    H125924   5.322   5.996   0.977 -0.4773  1.8940 -1.8463
 1503TIP3    H225925   5.324   6.069   1.110  0.3523 -1.3052  0.0015
 1504TIP3   OH225926   0.689   1.439  15.445 -0.2229  0.7090 -0.2434
 1504TIP3    H125927   0.734   1.364  15.481  1.2355  0.7783 -1.7880
 1504TIP3    H225928   0.725   1.514  15.491 -1.0111  0.5500  0.6540
 1505TIP3   OH225929   3.107   3.929   0.893  0.1147 -0.3518  0.3537
 1505TIP3    H125930   3.035   3.933   0.956  0.7363 -1.3847  1.1784
 1505TIP3    H225931   3.159   3.854   0.922  1.2992  0.1292 -0.4555
 1506TIP3   OH225932   2.383   5.007   5.840  0.6131 -0.4131  0.0163
 1506TIP3    H125933   2.415   4.971   5.757  1.7449  0.7011 -0.0595
 1506TIP3    H225934   2.430   4.959   5.907  0.4580 -0.6156 -0.0205
 1507TIP3   OH225935   3.611   6.657   5.115 -0.0567 -0.0013 -0.1071
 1507TIP3    H125936   3.613   6.735   5.059 -0.2778 -0.0511 -0.1864
 1507TIP3    H225937   3.545   6.678   5.182  2.2565  1.2684  1.9294
 1508TIP3   OH225938   5.974   1.321   2.065  0.6076 -0.1862 -0.3284
 1508TIP3    H125939   6.009   1.232   2.059  1.4403  0.1929 -1.3842
 1508TIP3    H225940   6.049   1.375   2.086 -0.0937  0.1570  1.4246
 1509TIP3   OH225941   4.492   6.380   2.929  0.3023 -0.1533  0.3015
 1509TIP3    H125942   4.521   6.391   3.020 -1.0016  2.3331  0.4892
 1509TIP3    H225943   4.405   6.419   2.927 -0.3992 -1.7100 -1.6721
 1510TIP3   OH225944   2.322   1.506  14.547  0.3394  0.4973  0.3157
 1510TIP3    H125945   2.277   1.589  14.563 -0.4380 -0.0114  0.8775
 1510TIP3    H225946   2.378   1.523  14.472  1.2364  1.9181  1.2610
 1511TIP3   OH225947   5.168   5.744   4.408  0.8449  0.0261 -0.0058
 1511TIP3    H125948   5.121   5.738   4.324  2.2334  2.2227 -1.0339
 1511TIP3    H225949   5.099   5.752   4.473 -0.2630 -1.0872 -0.9755
 1512TIP3   OH225950   2.352   6.130   1.165  0.1076  0.4821 -0.0276
 1512TIP3    H125951   2.309   6.103   1.083  0.2165  0.4378 -0.0706
 1512TIP3    H225952   2.408   6.056   1.187 -2.0393 -0.7635  1.6242
 1513TIP3   OH225953   2.945   0.640   5.816  0.1180  0.6999 -0.3439
 1513TIP3    H125954   2.854   0.612   5.823  0.3647  0.0407  0.2657
 1513TIP3    H225955   2.958   0.698   5.891  0.5260 -0.1350  0.2429
 1514TIP3   OH225956   4.675   5.915   4.723 -0.2830 -0.2893 -0.0975
 1514TIP3    H125957   4.710   5.901   4.811 -1.3434  1.2093  0.6190
 1514TIP3    H225958   4.593   5.962   4.738 -0.4058  0.1312 -1.8985
 1515TIP3   OH225959   6.363   5.428   5.149 -0.0758  0.1233 -0.7238
 1515TIP3    H125960   6.351   5.505   5.206 -0.2666  0.1472 -0.7947
 1515TIP3    H225961   6.419   5.370   5.199  0.8796  0.7286 -1.0657
 1516TIP3   OH225962   0.953   0.521  11.383  0.0514 -0.4743 -0.4514
 1516TIP3    H125963   1.030   0.568  11.414  0.1447  0.4559 -1.9977
 1516TIP3    H225964   0.889   0.589  11.363 -1.3820 -1.2417  1.1743
 1517TIP3   OH225965   5.052   1.641   0.305 -0.1018  0.1326  0.2815
 1517TIP3    H125966   5.067   1.725   0.262  0.3105 -0.4545 -0.7573
 1517TIP3    H225967   4.963   1.647   0.338 -0.0585  0.9965  0.2608
 1518TIP3   OH225968   3.515   4.366   3.614  0.7510  0.0072  0.3668
 1518TIP3    H125969   3.474   4.305   3.553 -1.0550 -1.7965  3.1498
 1518TIP3    H225970   3.608   4.343   3.611  0.5516 -0.7483 -0.8770
 1519TIP3   OH225971   2.268   4.493   1.417  0.0644 -0.2938  0.2848
 1519TIP3    H125972   2.332   4.563   1.427 -0.2697 -0.0245  0.5463
 1519TIP3    H225973   2.202   4.528   1.358 -0.7277  0.0633  1.3476
 1520TIP3   OH225974   3.885   1.195   1.730 -0.2531  0.9339  0.1422
 1520TIP3    H125975   3.812   1.214   1.788 -0.6495 -0.8993  0.3312
 1520TIP3    H225976   3.844   1.171   1.646  0.2043  1.4490 -0.2307
 1521TIP3   OH225977   2.569   4.408   4.104 -0.3717  0.1795  0.2181
 1521TIP3    H125978   2.525   4.466   4.166 -1.1851 -0.1773 -0.0109
 1521TIP3    H225979   2.588   4.329   4.154 -1.4513 -0.2945 -0.0826
 1522TIP3   OH225980   6.378   1.241  12.270 -0.4375 -0.4611 -0.0498
 1522TIP3    H125981   6.351   1.230  12.361  0.0386 -0.5787  0.0756
 1522TIP3    H225982   6.306   1.202  12.220  0.1012 -2.0038  0.3242
 1523TIP3   OH225983   2.060   0.282  16.124 -0.0729  0.1196 -0.0903
 1523TIP3    H125984   1.989   0.219  16.131 -1.2098  1.2692 -0.7175
 1523TIP3    H225985   2.100   0.284  16.211 -0.7523 -0.6089  0.2501
 1524TIP3   OH225986   5.506   3.425   3.806  0.4201  0.4573 -0.1328
 1524TIP3    H125987   5.505   3.518   3.829  2.4857  0.6941 -0.7541
 1524TIP3    H225988   5.415   3.397   3.815 -0.0824  2.2715  1.1007
 1525TIP3   OH225989   4.088   1.541   0.618  0.3152  0.3160  0.2407
 1525TIP3    H125990   3.999   1.544   0.651  1.0679  2.2538  2.4165
 1525TIP3    H225991   4.083   1.581   0.531 -1.0081 -0.2614  0.0270
 1526TIP3   OH225992   1.237   5.204  12.138  0.8235 -0.5791  0.8077
 1526TIP3    H125993   1.204   5.268  12.076  2.0802 -0.9216 -0.2542
 1526TIP3    H225994   1.216   5.241  12.224 -0.7865 -0.0212  0.2157
 1527TIP3   OH225995   4.633   2.674  13.906 -0.6497 -0.0930  0.1660
 1527TIP3    H125996   4.626   2.677  13.810 -0.4155 -0.7079  0.1258
 1527TIP3    H225997   4.608   2.762  13.934 -0.3681  0.2070 -0.4834
 1528TIP3   OH225998   2.683   5.793   5.009 -0.1014  0.0492 -0.2008
 1528TIP3    H125999   2.769   5.824   5.036 -0.8419  1.1406  1.0393
 1528TIP3    H226000   2.700   5.708   4.968  1.6633  0.7123 -0.9463
 1529TIP3   OH226001   5.948   4.641  14.513  0.1518 -0.3207 -0.3815
 1529TIP3    H126002   5.980   4.590  14.438  1.0427 -0.7333  0.2678
 1529TIP3    H226003   6.023   4.647  14.572 -0.0638  1.4033 -0.2525
 1530TIP3   OH226004   6.447   1.173   5.981  0.4091 -0.3123 -0.1282
 1530TIP3    H126005   6.352   1.168   5.971  0.2563 -0.0022  1.0268
 1530TIP3    H226006   6.461   1.166   6.075  1.6398 -1.7674 -0.3940
 1531TIP3   OH226007   6.178   5.960   6.162 -0.1610  0.4790  0.0364
 1531TIP3    H126008   6.224   6.011   6.096 -0.6555 -0.2565 -0.9099
 1531TIP3    H226009   6.159   6.022   6.232  0.0956  1.3587 -0.6547
 1532TIP3   OH226010   0.541   6.759   0.126  0.0386  0.1948 -0.5533
 1532TIP3    H126011   0.546   6.692   0.058  1.5130  0.4174 -0.6842
 1532TIP3    H226012   0.462   6.736   0.176  0.5494 -1.7097 -0.5374
 1533TIP3   OH226013   0.806   0.126  15.729  0.5437  0.0116  0.6883
 1533TIP3    H126014   0.765   0.095  15.810  1.3046  0.5691  1.3053
 1533TIP3    H226015   0.879   0.180  15.759  0.8752  0.1698 -0.3801
 1534TIP3   OH226016   6.687   1.355  14.676  0.3355  0.0345 -0.0801
 1534TIP3    H126017   6.660   1.304  14.600  1.3093 -0.7273  0.0622
 1534TIP3    H226018   6.617   1.343  14.740 -0.8366  1.2526 -1.0786
 1535TIP3   OH226019   1.214   4.545   4.654 -0.7645 -0.3082  0.2895
 1535TIP3    H126020   1.223   4.631   4.694 -1.6089  0.2487 -0.6788
 1535TIP3    H226021   1.272   4.488   4.705 -1.7431  0.3734  2.2223
 1536TIP3   OH226022   4.515   5.969  11.632 -0.0890  0.3019 -0.1608
 1536TIP3    H126023   4.514   5.984  11.538 -1.1940  0.9768 -0.0562
 1536TIP3    H226024   4.435   5.920  11.650  0.4822 -0.4694  0.3346
 1537TIP3   OH226025   5.084   1.019  16.394  0.2061  0.1237  0.1203
 1537TIP3    H126026   5.064   1.107  16.363 -0.1974  0.1863  0.5547
 1537TIP3    H226027   5.180   1.015  16.395  0.2415  0.0392 -1.3545
 1538TIP3   OH226028   5.745   6.271  13.929 -0.9732 -0.7058 -0.3091
 1538TIP3    H126029   5.747   6.338  13.997 -1.4908 -3.2066  2.3936
 1538TIP3    H226030   5.833   6.234  13.929 -1.1613 -1.1627 -0.4983
 1539TIP3   OH226031   5.130   5.598  16.552  0.0281  0.4413 -0.3310
 1539TIP3    H126032   5.088   5.568  16.471  0.7866 -0.2787 -0.4728
 1539TIP3    H226033   5.217   5.627  16.524 -0.8749  3.5940 -0.3411
 1540TIP3   OH226034   1.156   1.065   2.733  0.4586 -0.0531 -0.1159
 1540TIP3    H126035   1.108   1.007   2.673  0.5094 -1.0008  0.7316
 1540TIP3    H226036   1.096   1.081   2.805  0.6369  0.5371 -0.0930
 1541TIP3   OH226037   5.658   6.147  14.607  1.0449 -0.0370 -0.1442
 1541TIP3    H126038   5.670   6.137  14.702 -1.0261  1.9444  0.4217
 1541TIP3    H226039   5.595   6.078  14.583 -0.6172  1.1573  0.5502
 1542TIP3   OH226040   0.572   1.156   4.879 -0.0897  0.3973 -0.0760
 1542TIP3    H126041   0.585   1.070   4.840 -3.3599  0.1925 -1.0337
 1542TIP3    H226042   0.478   1.160   4.897  0.4952  2.2801  3.6220
 1543TIP3   OH226043   1.751   2.394   4.081  0.3343  0.0302 -0.2125
 1543TIP3    H126044   1.715   2.482   4.072 -0.4536 -0.3252 -0.6604
 1543TIP3    H226045   1.844   2.404   4.063  0.0527  0.5733 -1.4702
 1544TIP3   OH226046   2.240   4.348  11.635  0.3808  0.4135  0.2194
 1544TIP3    H126047   2.151   4.371  11.609  0.4054 -0.5969 -0.8582
 1544TIP3    H226048   2.292   4.425  11.614  0.1230  0.2053 -1.3531
 1545TIP3   OH226049   3.127   1.210  12.333  0.0337 -0.1855 -0.1866
 1545TIP3    H126050   3.100   1.207  12.241  0.5581  1.7374 -0.4530
 1545TIP3    H226051   3.051   1.177  12.380 -0.2053 -1.3201 -1.2877
 1546TIP3   OH226052   1.995   3.935   1.239  0.4256 -0.3328  0.2421
 1546TIP3    H126053   2.010   3.892   1.154  0.5562 -0.9177  0.5519
 1546TIP3    H226054   2.063   3.898   1.296  0.0847 -0.2506  0.7026
 1547TIP3   OH226055   2.442   4.056   1.647  0.2831  0.4704 -0.2516
 1547TIP3    H126056   2.437   3.993   1.575 -0.0932 -0.7840  0.8328
 1547TIP3    H226057   2.390   4.131   1.617 -1.6778 -0.8915 -0.4651
 1548TIP3   OH226058   0.865   3.324   1.174  0.0617 -0.0337  0.5360
 1548TIP3    H126059   0.874   3.229   1.166 -0.8443 -0.0615 -0.4652
 1548TIP3    H226060   0.816   3.337   1.255 -0.3343 -0.4604  0.3688
 1549TIP3   OH226061   0.085   1.554   3.245  0.3240  0.2011 -0.0807
 1549TIP3    H126062   0.027   1.486   3.280  3.3370 -2.8376 -0.4935
 1549TIP3    H226063   0.127   1.591   3.323 -0.8326  1.1805  0.1016
 1550TIP3   OH226064   4.447   0.733  17.259 -0.4757  0.2683 -0.0762
 1550TIP3    H126065   4.526   0.698  17.300  0.0298  1.0660 -0.3437
 1550TIP3    H226066   4.475   0.757  17.170 -0.6444  1.8341  0.2576
 1551TIP3   OH226067   0.439   3.717   3.177  0.0936 -0.1510 -0.5228
 1551TIP3    H126068   0.356   3.764   3.171  0.9641  1.5459 -0.1336
 1551TIP3    H226069   0.470   3.736   3.266  1.1083 -0.3564 -0.8265
 1552TIP3   OH226070   4.846   6.400   2.508  0.4261 -0.2262  0.1194
 1552TIP3    H126071   4.922   6.405   2.450  0.2443  0.2893 -0.0751
 1552TIP3    H226072   4.878   6.351   2.584  1.6009  1.8491  1.0482
 1553TIP3   OH226073   1.699   1.195   0.462  0.2215 -0.0391 -0.4250
 1553TIP3    H126074   1.773   1.166   0.409  0.4239  0.4902 -0.4373
 1553TIP3    H226075   1.739   1.231   0.541 -0.1019 -1.7720  0.6031
 1554TIP3   OH226076   4.242   6.159   3.275  0.1689  0.0548  0.1176
 1554TIP3    H126077   4.286   6.095   3.220  0.0474  0.0243  0.0566
 1554TIP3    H226078   4.160   6.117   3.300  1.0678 -0.7299  1.9352
 1555TIP3   OH226079   1.789   0.619   6.168  0.2139 -0.0737 -0.8199
 1555TIP3    H126080   1.734   0.690   6.133 -0.2858 -0.1409 -0.1923
 1555TIP3    H226081   1.787   0.632   6.263  3.1191  1.2767 -0.8220
 1556TIP3   OH226082   5.756   5.583  15.594 -0.3270 -0.1376  0.2087
 1556TIP3    H126083   5.834   5.637  15.584  0.1547 -0.7623  0.4915
 1556TIP3    H226084   5.752   5.532  15.513  0.2272 -0.9460  0.6805
 1557TIP3   OH226085   2.752   1.763  13.517 -0.7744  0.0287  0.1330
 1557TIP3    H126086   2.698   1.842  13.510 -0.9787 -0.0378  0.8980
 1557TIP3    H226087   2.765   1.735  13.426 -0.3711  1.1593 -0.1806
 1558TIP3   OH226088   1.589   1.483   2.400 -0.3351  0.3132 -0.3762
 1558TIP3    H126089   1.660   1.486   2.465 -0.6332 -0.2447 -0.0118
 1558TIP3    H226090   1.633   1.462   2.318  0.1876  2.0904 -0.5957
 1559TIP3   OH226091   3.311   0.073   4.885 -0.4040 -0.1977  0.2825
 1559TIP3    H126092   3.250   0.044   4.818 -0.2358  0.5211 -0.1997
 1559TIP3    H226093   3.332  -0.006   4.935 -3.6802 -0.1060  2.1308
 1560TIP3   OH226094   6.642   5.592  11.752  0.3483  0.3422 -0.6335
 1560TIP3    H126095   6.734   5.574  11.730 -0.1189 -1.4666 -1.2978
 1560TIP3    H226096   6.598   5.595  11.667 -0.4035 -0.0032 -0.2558
 1561TIP3   OH226097   5.794   6.341  12.235  1.1092  0.2405  0.1632
 1561TIP3    H126098   5.802   6.253  12.198 -2.2371  0.1158 -0.5209
 1561TIP3    H226099   5.782   6.398  12.160  1.0292  0.9750  0.7200
 1562TIP3   OH226100   3.703   3.537  10.994  0.3141 -0.1955 -0.5504
 1562TIP3    H126101   3.618   3.505  11.026 -0.1548  0.5277 -1.0270
 1562TIP3    H226102   3.718   3.485  10.915 -0.1301  0.2853 -0.9620
 1563TIP3   OH226103   5.197   1.027  14.941  0.4304 -0.4913  0.6864
 1563TIP3    H126104   5.148   0.945  14.946  0.5118 -0.8871 -2.6407
 1563TIP3    H226105   5.164   1.080  15.014 -3.4277 -1.5291 -0.0732
 1564TIP3   OH226106   4.090   5.321  16.994  0.3155 -0.3813 -0.0722
 1564TIP3    H126107   4.048   5.255  16.938 -1.0474  0.6523 -0.3371
 1564TIP3    H226108   4.181   5.323  16.966  0.3180 -1.9186 -0.2592
 1565TIP3   OH226109   2.959   5.513  13.155 -0.1574  0.1201  0.5406
 1565TIP3    H126110   2.873   5.472  13.152  0.4783 -1.2150 -2.0828
 1565TIP3    H226111   3.017   5.445  13.189  0.3534 -0.0698 -0.6666
 1566TIP3   OH226112   2.279   0.441   3.361 -0.2751 -0.2111 -0.4426
 1566TIP3    H126113   2.345   0.416   3.426 -0.2822 -1.6345 -0.9479
 1566TIP3    H226114   2.236   0.359   3.338 -2.4458  0.7159  0.0783
 1567TIP3   OH226115   1.925   2.597   3.192 -0.3199 -0.5127  0.1504
 1567TIP3    H126116   1.846   2.566   3.237  0.0755 -3.2410 -0.8622
 1567TIP3    H226117   1.926   2.549   3.110  0.6292  2.0520 -1.4415
 1568TIP3   OH226118   2.840   1.909   2.853  0.1251 -0.5637  0.2650
 1568TIP3    H126119   2.851   1.969   2.779  0.2103  0.7256  1.2700
 1568TIP3    H226120   2.749   1.881   2.847 -0.2421  0.5455  0.3744
 1569TIP3   OH226121   3.928   3.382   1.043  0.3462  0.0002  0.0349
 1569TIP3    H126122   3.983   3.457   1.022 -0.7821  0.3476 -1.9065
 1569TIP3    H226123   3.872   3.370   0.967 -2.0143 -0.5739  1.7208
 1570TIP3   OH226124   5.131   3.803  14.582  0.0363 -0.1892  0.0231
 1570TIP3    H126125   5.073   3.873  14.609  1.9553  1.0243  1.2404
 1570TIP3    H226126   5.073   3.730  14.561 -1.8981  0.9597  1.1134
 1571TIP3   OH226127   4.212   6.599  12.234 -0.0216 -0.3208  0.1173
 1571TIP3    H126128   4.204   6.526  12.296 -1.5775  0.4840  0.9416
 1571TIP3    H226129   4.189   6.676  12.286 -0.3119  0.5141 -1.2072
 1572TIP3   OH226130   4.111   1.272  12.451 -0.0123  0.6310  0.0809
 1572TIP3    H126131   4.101   1.208  12.380 -0.1081  0.2747  0.4117
 1572TIP3    H226132   4.108   1.357  12.407 -0.8235  0.4365 -0.2563
 1573TIP3   OH226133   4.696   2.199  11.421  0.2665 -0.0250 -0.2333
 1573TIP3    H126134   4.611   2.182  11.463  0.0361  0.9883 -0.2623
 1573TIP3    H226135   4.750   2.233  11.492  0.7616 -0.9892 -0.1401
 1574TIP3   OH226136   3.755   3.153  15.738 -0.5371  0.1139 -0.0204
 1574TIP3    H126137   3.703   3.153  15.818 -1.5844  0.7127 -0.6796
 1574TIP3    H226138   3.693   3.126  15.670 -0.4365  2.3259 -1.0818
 1575TIP3   OH226139   4.272   5.105   1.877 -0.7619 -0.1960  0.2425
 1575TIP3    H126140   4.194   5.158   1.857  0.2243  0.9699 -0.6259
 1575TIP3    H226141   4.267   5.032   1.816 -0.1715  0.9282 -1.2041
 1576TIP3   OH226142   4.292   1.796   1.696  0.5934  0.3712 -0.4695
 1576TIP3    H126143   4.219   1.735   1.689  0.9811 -0.4196  1.6850
 1576TIP3    H226144   4.267   1.869   1.639 -0.4181 -1.2346 -2.1989
 1577TIP3   OH226145   3.789   5.694  12.460  0.6389  0.1642  0.1059
 1577TIP3    H126146   3.777   5.606  12.498  1.4579 -0.5324 -1.1883
 1577TIP3    H226147   3.719   5.701  12.395 -0.1766  0.9830  1.0342
 1578TIP3   OH226148   5.194   0.039   5.764  0.0780  0.0257  0.5722
 1578TIP3    H126149   5.214   0.001   5.850  0.0531 -1.1662  0.0722
 1578TIP3    H226150   5.220   0.130   5.771  0.8506 -0.2577  1.5913
 1579TIP3   OH226151   4.565   4.699   6.245 -0.4769 -0.3667 -0.0339
 1579TIP3    H126152   4.514   4.621   6.267  1.3734 -1.2969  1.2491
 1579TIP3    H226153   4.610   4.722   6.326  1.0509  0.4498 -1.0644
 1580TIP3   OH226154   2.905   3.157  12.176 -0.0898  0.2786 -0.4627
 1580TIP3    H126155   2.903   3.174  12.270  0.1930 -0.5304 -0.3045
 1580TIP3    H226156   2.822   3.114  12.157 -0.5167  1.1927 -0.7458
 1581TIP3   OH226157   2.901   2.662  16.209  0.5152  0.2467 -0.9273
 1581TIP3    H126158   2.896   2.740  16.154  0.2956  1.5005  0.7927
 1581TIP3    H226159   2.811   2.628  16.209  0.4902  0.3053 -1.2242
 1582TIP3   OH226160   3.581   5.208   3.109  0.0228 -0.9152 -0.2310
 1582TIP3    H126161   3.617   5.182   3.024 -1.6973 -0.9990 -0.9704
 1582TIP3    H226162   3.531   5.131   3.138 -1.6835  0.0567 -0.4782
 1583TIP3   OH226163   6.541   1.464  15.555 -0.5598 -0.3194  0.0256
 1583TIP3    H126164   6.601   1.416  15.498 -1.9575  2.3245 -4.0663
 1583TIP3    H226165   6.597   1.496  15.626  2.1578 -0.7917 -1.7493
 1584TIP3   OH226166   5.603   2.985  16.885 -0.0297  0.2912 -0.9845
 1584TIP3    H126167   5.533   3.032  16.931 -0.0283 -2.4727  2.2155
 1584TIP3    H226168   5.558   2.931  16.820 -0.7647 -0.4754  0.1403
 1585TIP3   OH226169   0.709   3.526   2.995 -0.4290  0.0504 -0.1851
 1585TIP3    H126170   0.653   3.470   3.048 -1.3895 -0.9077 -2.0955
 1585TIP3    H226171   0.673   3.519   2.907  1.7438  0.6968 -1.1949
 1586TIP3   OH226172   2.344   5.709  14.322 -0.1448 -0.5451 -0.2994
 1586TIP3    H126173   2.367   5.688  14.413 -1.9141 -1.0252  0.0687
 1586TIP3    H226174   2.426   5.739  14.284  1.3473 -3.1187  0.6310
 1587TIP3   OH226175   2.252   1.869  15.388 -0.4790  0.2850 -0.1915
 1587TIP3    H126176   2.345   1.889  15.396 -0.5307  0.1752  0.9428
 1587TIP3    H226177   2.224   1.850  15.478 -1.1489 -1.6275 -0.7409
 1588TIP3   OH226178   5.458   6.233  12.117 -0.4870 -0.4304  0.2272
 1588TIP3    H126179   5.527   6.287  12.079 -0.1936 -0.7644  0.2927
 1588TIP3    H226180   5.402   6.296  12.163 -1.0371  0.0210 -1.0268
 1589TIP3   OH226181   1.603   5.737  15.179 -0.4508 -0.3336  0.1456
 1589TIP3    H126182   1.549   5.720  15.256  0.7906 -1.7958  0.7515
 1589TIP3    H226183   1.584   5.664  15.120 -2.7430  1.6812 -1.8125
 1590TIP3   OH226184   4.176   4.498   4.690 -0.5583 -0.0026  0.1655
 1590TIP3    H126185   4.104   4.560   4.685 -1.4418 -1.1113 -3.0169
 1590TIP3    H226186   4.135   4.412   4.678  1.1616 -0.7577 -0.7060
 1591TIP3   OH226187   4.294   3.006  15.282 -0.2023 -0.0006  0.0454
 1591TIP3    H126188   4.318   3.082  15.229 -0.0784 -0.1947 -0.1769
 1591TIP3    H226189   4.218   3.035  15.333  0.6721  0.7368  0.9913
 1592TIP3   OH226190   2.868   1.833   1.518  0.1458  0.0863  0.5233
 1592TIP3    H126191   2.792   1.788   1.556  0.6179 -0.3204  0.9974
 1592TIP3    H226192   2.852   1.926   1.533 -0.0555 -0.0252  0.9912
 1593TIP3   OH226193   3.174   5.052  11.703  0.4808  0.3809 -0.1985
 1593TIP3    H126194   3.249   5.066  11.760  0.4155  1.8010 -0.4388
 1593TIP3    H226195   3.165   5.134  11.654  0.2896 -0.6287 -1.9579
 1594TIP3   OH226196   6.566   3.472  12.161  0.2504 -0.1944  0.2051
 1594TIP3    H126197   6.545   3.439  12.074  1.1559  1.1694 -0.5771
 1594TIP3    H226198   6.661   3.457  12.170  0.4038  0.8149  0.4185
 1595TIP3   OH226199   6.282   6.782  11.651 -0.3344  0.3929 -0.5076
 1595TIP3    H126200   6.211   6.804  11.591 -0.4400  0.6399 -0.2933
 1595TIP3    H226201   6.326   6.707  11.610 -1.7972 -0.9047  0.2176
 1596TIP3   OH226202   6.316   5.490  16.017 -0.0414 -0.0966 -0.1052
 1596TIP3    H126203   6.403   5.529  16.014  0.7377 -1.7636 -0.0403
 1596TIP3    H226204   6.327   5.401  15.983 -1.3427 -0.9913  1.6281
 1597TIP3   OH226205   6.313   6.311   6.669 -0.1468 -0.1121  0.6254
 1597TIP3    H126206   6.236   6.356   6.706 -0.5301  0.1030 -0.4009
 1597TIP3    H226207   6.326   6.235   6.727 -0.2064  0.6612  1.6918
 1598TIP3   OH226208   2.669   0.923  12.701  0.0563  0.4907 -0.5476
 1598TIP3    H126209   2.655   0.896  12.610  1.3963  0.5294 -0.7835
 1598TIP3    H226210   2.624   1.007  12.709 -1.8110 -0.4715 -0.5865
 1599TIP3   OH226211   1.557   4.437  16.176 -0.1875 -0.2092  0.0337
 1599TIP3    H126212   1.593   4.349  16.183 -3.1525 -1.4964  0.8358
 1599TIP3    H226213   1.498   4.433  16.101  0.4684  1.4794 -0.6223
 1600TIP3   OH226214   2.172   2.562   2.128  0.6930  0.0346  0.1764
 1600TIP3    H126215   2.162   2.584   2.221  0.1414 -1.0669  0.3949
 1600TIP3    H226216   2.231   2.486   2.128 -0.0667 -0.5715 -0.2841
 1601TIP3   OH226217   2.831   2.485  12.145 -0.1979  0.0243 -0.0876
 1601TIP3    H126218   2.846   2.578  12.131  0.1908  0.1755  1.1874
 1601TIP3    H226219   2.751   2.481  12.198 -0.2952 -0.3790 -0.2598
 1602TIP3   OH226220   4.223   5.668  16.451 -0.8976 -0.0183  0.2872
 1602TIP3    H126221   4.134   5.703  16.453 -0.8835  0.0590 -0.3078
 1602TIP3    H226222   4.229   5.622  16.368 -1.3596 -2.6698  1.6086
 1603TIP3   OH226223   0.924   2.832  13.105 -0.2236  0.2689  0.0803
 1603TIP3    H126224   0.935   2.737  13.104  1.8514  0.4229 -2.7386
 1603TIP3    H226225   0.972   2.861  13.183 -0.7301 -0.9482  0.8690
 1604TIP3   OH226226   3.116   3.024  12.034  0.9333 -0.1968  0.1087
 1604TIP3    H126227   3.053   3.061  12.095  0.5974  0.1917 -0.4685
 1604TIP3    H226228   3.195   3.011  12.087  0.4432 -0.4983  0.7811
 1605TIP3   OH226229   2.985   1.203   1.011  0.0765  0.5343  0.1960
 1605TIP3    H126230   2.934   1.282   0.995  0.3326  0.2524 -2.3642
 1605TIP3    H226231   3.063   1.214   0.957  0.6809 -0.9673  0.7211
 1606TIP3   OH226232   4.432   0.203  15.130  0.0610  0.2244  1.0010
 1606TIP3    H126233   4.489   0.245  15.194  0.9112  2.1858 -0.9530
 1606TIP3    H226234   4.421   0.114  15.163  3.1625  0.1586  2.1476
 1607TIP3   OH226235   3.400   2.171  12.036  0.1551 -0.0903 -0.2538
 1607TIP3    H126236   3.488   2.182  12.001  0.2849 -0.4428 -0.0373
 1607TIP3    H226237   3.412   2.156  12.129 -0.0992 -0.6671 -0.3054
 1608TIP3   OH226238   2.993   3.597   2.827 -0.0540 -0.5074  0.7397
 1608TIP3    H126239   2.993   3.502   2.825  0.1689 -0.5393 -2.0755
 1608TIP3    H226240   3.060   3.622   2.763  0.3826  1.5548  1.9247
 1609TIP3   OH226241   6.401   2.224   2.944  0.0219  0.4270 -0.1600
 1609TIP3    H126242   6.440   2.215   2.858 -0.5525  1.4516 -0.5506
 1609TIP3    H226243   6.461   2.280   2.993 -0.2323  0.8218 -0.2923
 1610TIP3   OH226244   6.308   2.542  11.711 -0.1483  0.5593  0.2508
 1610TIP3    H126245   6.292   2.468  11.770  0.8505  0.2142  0.1092
 1610TIP3    H226246   6.337   2.613  11.768  0.7731  0.2396  0.1946
 1611TIP3   OH226247   1.417   6.387   6.682 -0.7508  0.3808 -0.2477
 1611TIP3    H126248   1.343   6.330   6.705  0.4453 -1.7970 -1.4497
 1611TIP3    H226249   1.480   6.373   6.752 -0.9250  1.2104  0.0833
 1612TIP3   OH226250   2.492   2.000  16.884 -0.3340  0.8873 -0.0350
 1612TIP3    H126251   2.541   1.955  16.815  0.2350  0.0686  0.8843
 1612TIP3    H226252   2.557   2.051  16.931 -0.2244 -0.5814  1.4982
 1613TIP3   OH226253   6.741   4.517  16.416 -0.0145 -0.3307 -0.0769
 1613TIP3    H126254   6.823   4.554  16.383 -0.0300 -1.0520 -0.9816
 1613TIP3    H226255   6.722   4.566  16.495  0.6396  0.6992 -0.5398
 1614TIP3   OH226256   0.683   3.094   0.737  0.4760 -0.5682 -0.0367
 1614TIP3    H126257   0.736   3.087   0.816  0.3426  1.9282  0.3593
 1614TIP3    H226258   0.594   3.078   0.766  0.6322 -1.5499 -0.0735
 1615TIP3   OH226259   2.188   5.396   4.181 -0.1679 -0.4386  0.1503
 1615TIP3    H126260   2.269   5.355   4.151 -0.4522 -1.7138  1.0335
 1615TIP3    H226261   2.211   5.488   4.197  0.7642 -0.4900 -0.8368
 1616TIP3   OH226262   1.197   5.639  15.378 -0.1092 -0.3473 -0.0205
 1616TIP3    H126263   1.103   5.645  15.363 -0.4108  0.2026  1.8529
 1616TIP3    H226264   1.222   5.556  15.336 -1.8375 -1.5857  1.2340
 1617TIP3   OH226265   6.405   2.935   3.201 -0.0958  0.6806  0.3676
 1617TIP3    H126266   6.450   2.932   3.285 -1.1760 -0.6355  0.9441
 1617TIP3    H226267   6.412   2.846   3.167 -1.2196  0.7427 -0.0731
 1618TIP3   OH226268   5.828   0.493   5.770  0.1443  0.5393 -0.3122
 1618TIP3    H126269   5.878   0.486   5.851 -0.5539  0.0857  0.0881
 1618TIP3    H226270   5.762   0.559   5.788 -0.0584  0.3850 -0.4887
 1619TIP3   OH226271   2.705   6.017  16.984 -0.1227 -0.1391 -0.0487
 1619TIP3    H126272   2.750   5.998  17.066 -1.7939 -1.0403  0.7084
 1619TIP3    H226273   2.766   5.989  16.916  0.6477 -0.8787  0.9263
 1620TIP3   OH226274   5.435   3.876   4.442  0.2537  0.1881  0.2865
 1620TIP3    H126275   5.515   3.827   4.426 -0.4063 -0.8972  0.2123
 1620TIP3    H226276   5.393   3.832   4.516 -0.4599  0.5021  0.0864
 1621TIP3   OH226277   4.175   6.074   0.657  0.4851  0.1129 -0.3237
 1621TIP3    H126278   4.225   6.137   0.709 -0.2530  1.0366 -0.7046
 1621TIP3    H226279   4.230   6.056   0.582  0.4164  0.8519 -0.5608
 1622TIP3   OH226280   0.880   4.039  11.811  0.1310  0.5512 -0.0573
 1622TIP3    H126281   0.849   4.035  11.720  1.4074  0.3173 -0.4948
 1622TIP3    H226282   0.845   4.122  11.844 -2.4231 -0.4590  0.0549
 1623TIP3   OH226283   2.132   1.139   4.199 -0.0505  0.1018 -0.4089
 1623TIP3    H126284   2.226   1.144   4.182 -0.0873  1.1815 -0.4206
 1623TIP3    H226285   2.099   1.076   4.135  0.6918 -0.4259 -0.2768
 1624TIP3   OH226286   3.862   4.526  14.295  0.5367  0.4048  0.0724
 1624TIP3    H126287   3.848   4.593  14.363 -0.8360  0.2998 -0.0744
 1624TIP3    H226288   3.806   4.554  14.222  1.4802  0.1556 -0.7714
 1625TIP3   OH226289   2.390   4.487   2.449  0.5676 -0.6168  0.9182
 1625TIP3    H126290   2.412   4.533   2.368 -1.1089 -1.0390  0.1797
 1625TIP3    H226291   2.339   4.411   2.420 -2.6356  0.7604  2.4719
 1626TIP3   OH226292   1.426   2.505  13.585 -0.5968  0.3218 -0.1730
 1626TIP3    H126293   1.356   2.535  13.527  0.9602 -1.3607 -3.1452
 1626TIP3    H226294   1.448   2.418  13.553  1.3151 -0.1485  2.1608
 1627TIP3   OH226295   5.600   6.333   5.971  0.3934  0.6517  0.0063
 1627TIP3    H126296   5.680   6.324   6.022  0.2330  0.9974  0.3262
 1627TIP3    H226297   5.628   6.374   5.889  0.7320 -0.3861 -0.4126
 1628TIP3   OH226298   4.340   3.774  15.859  0.3089 -0.4200 -0.0365
 1628TIP3    H126299   4.358   3.864  15.884  0.4638 -0.1322 -1.1056
 1628TIP3    H226300   4.249   3.759  15.884 -0.0403  0.3835 -0.7576
 1629TIP3   OH226301   5.962   0.545  12.982 -0.1439 -0.1917 -0.1563
 1629TIP3    H126302   5.955   0.451  12.965  0.3700 -0.1691 -0.5191
 1629TIP3    H226303   6.052   0.557  13.013 -1.0016 -0.2259  2.6168
 1630TIP3   OH226304   0.659   3.397  15.515 -0.7214  0.0902  0.1765
 1630TIP3    H126305   0.730   3.346  15.475 -2.1259 -0.2319 -2.0941
 1630TIP3    H226306   0.664   3.482  15.471 -2.1724 -0.1976 -0.6051
 1631TIP3   OH226307   0.557   4.756   4.465 -0.1744 -0.3440 -0.1232
 1631TIP3    H126308   0.590   4.736   4.378 -0.5215 -1.8832  0.0708
 1631TIP3    H226309   0.466   4.727   4.463 -1.1066  2.2995 -0.1312
 1632TIP3   OH226310   5.321   4.413  11.604  0.0924  0.1266  0.4521
 1632TIP3    H126311   5.271   4.447  11.678 -0.1053 -1.2722  1.0047
 1632TIP3    H226312   5.279   4.329  11.584  0.0333  0.5455 -1.3801
 1633TIP3   OH226313   2.868   6.503   0.850  0.4350 -0.0113 -0.0552
 1633TIP3    H126314   2.821   6.572   0.897  0.9603 -0.6278  1.4298
 1633TIP3    H226315   2.908   6.549   0.775 -0.3060  1.0299  0.1652
 1634TIP3   OH226316   3.025   4.481   5.199 -0.5691  0.4052  0.4218
 1634TIP3    H126317   3.111   4.512   5.171 -0.1308  0.6744  1.9958
 1634TIP3    H226318   3.028   4.387   5.183  0.4482  0.2346  1.4839
 1635TIP3   OH226319   0.588   2.812  16.574 -0.1871 -0.0100  0.2647
 1635TIP3    H126320   0.671   2.771  16.597 -0.6221  0.3534  2.7171
 1635TIP3    H226321   0.535   2.740  16.538  1.0232 -0.3030 -1.0401
 1636TIP3   OH226322   1.966   2.418   5.566  0.8970 -0.1390  0.2800
 1636TIP3    H126323   2.027   2.352   5.533  2.5724  1.5184 -0.1138
 1636TIP3    H226324   2.019   2.496   5.578 -1.2690  1.6100 -0.7105
 1637TIP3   OH226325   3.320   5.977  15.420  0.2661  0.0839 -1.0690
 1637TIP3    H126326   3.267   6.011  15.347  1.9094  4.0515 -0.7025
 1637TIP3    H226327   3.410   5.979  15.387  0.7683 -0.9233  0.1625
 1638TIP3   OH226328   3.596   5.198  10.921 -0.3511  0.1420  0.4451
 1638TIP3    H126329   3.632   5.279  10.886 -0.8953  0.8135  1.4138
 1638TIP3    H226330   3.577   5.145  10.843 -1.7519  1.6908 -0.3238
 1639TIP3   OH226331   6.543   2.218   5.274 -0.4467 -0.2234  0.7105
 1639TIP3    H126332   6.559   2.244   5.184  0.8200 -1.9561  0.3738
 1639TIP3    H226333   6.529   2.300   5.322 -2.0756  0.6866 -1.1925
 1640TIP3   OH226334   2.382   6.110   5.698  0.5351  0.2559  0.1131
 1640TIP3    H126335   2.292   6.084   5.717  0.5724 -0.3594 -0.5181
 1640TIP3    H226336   2.426   6.029   5.673  0.3668  1.0094 -3.0539
 1641TIP3   OH226337   4.762   2.125  14.581 -0.3945 -0.1477  0.3615
 1641TIP3    H126338   4.830   2.058  14.572 -1.1206 -0.7280 -1.1858
 1641TIP3    H226339   4.802   2.192  14.636  2.3121  0.6139 -2.2747
 1642TIP3   OH226340   1.726   6.662   2.794  0.0359  0.7887 -0.0279
 1642TIP3    H126341   1.819   6.678   2.811 -0.5338  2.6146  1.7412
 1642TIP3    H226342   1.711   6.574   2.828  0.9468  0.7604  0.3475
 1643TIP3   OH226343   2.061   2.902   3.262 -0.4105  0.5107 -0.1971
 1643TIP3    H126344   2.036   2.986   3.223  1.0670  0.5576 -1.1164
 1643TIP3    H226345   1.992   2.884   3.325 -2.0120  1.2870 -1.6270
 1644TIP3   OH226346   4.315   2.159  15.846  1.0759 -0.7502 -0.4980
 1644TIP3    H126347   4.351   2.075  15.816 -0.6822 -2.7994  2.5055
 1644TIP3    H226348   4.223   2.156  15.819  0.5098 -0.7706  1.3149
 1645TIP3   OH226349   0.701   1.403  12.599  0.2214 -0.4638  0.1367
 1645TIP3    H126350   0.674   1.416  12.690  0.8940 -2.7370  0.7315
 1645TIP3    H226351   0.774   1.464  12.587 -0.6356  0.7169  0.7092
 1646TIP3   OH226352   2.445   3.171  12.738  0.2211 -0.5501  0.2266
 1646TIP3    H126353   2.440   3.138  12.828  0.4717 -1.4921 -0.0842
 1646TIP3    H226354   2.516   3.235  12.740  0.0547 -0.3748  0.7509
 1647TIP3   OH226355   2.469   0.264   3.493  0.2043 -0.4368  0.8551
 1647TIP3    H126356   2.427   0.187   3.530 -2.4760  0.0745 -0.8514
 1647TIP3    H226357   2.518   0.232   3.418  0.6861 -0.7192  1.2915
 1648TIP3   OH226358   2.975   4.452  10.643 -0.1955 -0.4144 -0.3380
 1648TIP3    H126359   2.948   4.542  10.662  1.6664  0.0336  0.3785
 1648TIP3    H226360   3.021   4.459  10.559  0.3963 -0.5978 -0.0314
 1649TIP3   OH226361   2.942   6.103   4.238  0.3579 -0.6616 -0.4545
 1649TIP3    H126362   3.016   6.060   4.195  1.5500  0.6781  0.1581
 1649TIP3    H226363   2.953   6.196   4.216 -0.6755 -0.3338  0.3456
 1650TIP3   OH226364   5.456   6.623   5.873 -0.6982 -0.4750  0.2105
 1650TIP3    H126365   5.443   6.551   5.935  0.6425 -1.9940 -1.1925
 1650TIP3    H226366   5.432   6.587   5.788 -1.3142  1.1920 -0.3638
 1651TIP3   OH226367   4.768   3.294  10.618  0.4814 -0.3685 -0.2867
 1651TIP3    H126368   4.790   3.352  10.691 -0.3477  0.5905 -0.7781
 1651TIP3    H226369   4.706   3.344  10.565  1.9121 -0.6021 -2.2718
 1652TIP3   OH226370   1.909   1.203  16.642  0.0149 -0.0502 -0.1136
 1652TIP3    H126371   1.841   1.269  16.651  0.0843 -0.0617  0.5450
 1652TIP3    H226372   1.868   1.132  16.593 -0.0662  0.4648 -0.8046
 1653TIP3   OH226373   5.455   0.236   1.759  0.2717  0.6270  0.3116
 1653TIP3    H126374   5.364   0.206   1.760 -0.5518  2.9387  0.4622
 1653TIP3    H226375   5.489   0.212   1.845 -0.3292  0.1035  0.4105
 1654TIP3   OH226376   6.332   6.647   1.990 -0.0462 -0.1336 -0.2350
 1654TIP3    H126377   6.303   6.618   2.076 -2.2787 -0.7530 -1.1063
 1654TIP3    H226378   6.418   6.606   1.978 -0.5741 -1.6854  0.9278
 1655TIP3   OH226379   5.882   0.825  16.103  0.6508 -0.1432  0.1661
 1655TIP3    H126380   5.956   0.796  16.157 -0.8660 -3.3461  0.8089
 1655TIP3    H226381   5.917   0.828  16.014  1.9580  0.0721  0.6608
 1656TIP3   OH226382   2.860   1.011   3.428  0.0845  0.3788  0.1087
 1656TIP3    H126383   2.835   1.060   3.350  0.2648 -0.3190 -0.3986
 1656TIP3    H226384   2.953   1.030   3.439  0.1597  0.1417 -0.1006
 1657TIP3   OH226385   0.402   3.641   5.481 -0.2978 -0.2410 -0.1010
 1657TIP3    H126386   0.427   3.603   5.397 -2.3264  2.3753 -2.0141
 1657TIP3    H226387   0.484   3.678   5.515  0.6047 -1.5610 -0.7338
 1658TIP3   OH226388   3.467   0.667  12.388 -0.0218 -0.0629 -0.7172
 1658TIP3    H126389   3.455   0.694  12.479  0.2124  1.3610 -1.0820
 1658TIP3    H226390   3.537   0.724  12.355  0.5582 -1.2106 -1.5195
 1659TIP3   OH226391   5.569   2.472   4.467 -0.1975  0.2732  0.0997
 1659TIP3    H126392   5.494   2.419   4.497 -0.4480  0.8161  0.4342
 1659TIP3    H226393   5.641   2.444   4.523 -0.6436  1.2273  1.1899
 1660TIP3   OH226394   3.789   2.923  15.459 -0.1446 -0.1957  0.3882
 1660TIP3    H126395   3.725   2.985  15.495 -1.6365 -2.1429  1.2663
 1660TIP3    H226396   3.850   2.978  15.410 -2.4967  1.8022 -0.5486
 1661TIP3   OH226397   5.092   6.582  12.322  0.1267 -0.1263 -0.1109
 1661TIP3    H126398   5.111   6.662  12.371 -1.2177  1.5811 -2.2105
 1661TIP3    H226399   5.022   6.539  12.371 -0.7988  1.2482 -0.1716
 1662TIP3   OH226400   0.451   4.362  16.134 -0.3122  0.2542 -0.3768
 1662TIP3    H126401   0.429   4.327  16.220  0.2464 -0.0775 -0.3592
 1662TIP3    H226402   0.474   4.285  16.082  0.5939  0.5486 -0.4383
 1663TIP3   OH226403   2.657   2.468  13.418  0.1849 -0.3417 -0.0364
 1663TIP3    H126404   2.604   2.542  13.449  1.8514  0.7106  0.4258
 1663TIP3    H226405   2.690   2.497  13.333 -2.3923 -2.2429 -1.8359
 1664TIP3   OH226406   3.503   5.203   2.439 -0.2485 -0.0551 -0.3586
 1664TIP3    H126407   3.460   5.166   2.517 -0.0782  1.1220  0.3198
 1664TIP3    H226408   3.539   5.286   2.469 -2.7071  1.9213 -2.3810
 1665TIP3   OH226409   3.597   5.418   3.310 -0.8479  0.2213  0.1309
 1665TIP3    H126410   3.610   5.330   3.273 -0.1184  0.8796 -1.2550
 1665TIP3    H226411   3.597   5.476   3.234  0.9357  1.6960  1.1694
 1666TIP3   OH226412   4.411   4.565  16.233  0.4202  0.0034 -0.1197
 1666TIP3    H126413   4.489   4.605  16.195 -0.0745  2.1626  0.9730
 1666TIP3    H226414   4.413   4.592  16.325 -0.4120 -1.8864  0.5096
 1667TIP3   OH226415   2.587   6.579  13.815  0.1160  0.1759  0.0171
 1667TIP3    H126416   2.576   6.581  13.719 -0.1196 -0.0386  0.0358
 1667TIP3    H226417   2.509   6.623  13.849  1.1820  2.1328  0.0685
 1668TIP3   OH226418   5.644   3.320   5.971  0.3813  0.0711 -0.1456
 1668TIP3    H126419   5.695   3.393   6.005  0.2495 -0.0049  0.2235
 1668TIP3    H226420   5.614   3.273   6.049  1.6035 -1.1751 -0.3713
 1669TIP3   OH226421   6.276   6.614  14.235  0.3721 -0.5022 -0.2363
 1669TIP3    H126422   6.213   6.635  14.304 -0.1760 -1.3190 -0.4839
 1669TIP3    H226423   6.313   6.699  14.210 -0.3836 -0.0539  0.1422
 1670TIP3   OH226424   1.004   6.674   1.655 -0.3964 -0.0490 -0.1372
 1670TIP3    H126425   1.063   6.743   1.687 -0.8835  0.2758  0.0821
 1670TIP3    H226426   0.997   6.613   1.728 -0.4373 -0.0183 -0.1154
 1671TIP3   OH226427   6.339   2.438  17.234 -0.1090  0.3401  0.1006
 1671TIP3    H126428   6.261   2.418  17.182 -0.2489 -0.1057  0.4734
 1671TIP3    H226429   6.313   2.420  17.325  0.8390 -1.1949  0.1113
 1672TIP3   OH226430   0.727   0.262   1.647 -0.1458  0.4188 -0.5139
 1672TIP3    H126431   0.766   0.330   1.703 -0.2616  0.2977 -0.2865
 1672TIP3    H226432   0.634   0.283   1.646 -1.0292 -2.2529  3.2219
 1673TIP3   OH226433   4.515   2.147  12.017  0.0421 -0.8541  0.1060
 1673TIP3    H126434   4.589   2.208  12.025  0.6361 -1.3353 -1.3724
 1673TIP3    H226435   4.511   2.103  12.102  2.4260 -1.8563 -0.2113
 1674TIP3   OH226436   5.359   2.266   5.771  0.0649  0.0774  0.0017
 1674TIP3    H126437   5.359   2.358   5.745 -2.3321  0.5604  1.3808
 1674TIP3    H226438   5.331   2.219   5.692 -0.2228  0.7094 -0.2828
 1675TIP3   OH226439   4.034   6.747  15.514  0.3797 -0.3654  0.2580
 1675TIP3    H126440   3.946   6.785  15.514  0.2138 -0.7491  0.2390
 1675TIP3    H226441   4.077   6.787  15.439  0.9219  1.4318  1.4648
 1676TIP3   OH226442   3.487   1.428  13.050 -0.4259  0.4344  0.0393
 1676TIP3    H126443   3.519   1.441  13.139  0.1025 -1.2866  0.1449
 1676TIP3    H226444   3.402   1.472  13.048 -0.1494  1.0655  1.1751
 1677TIP3   OH226445   0.169   6.787  15.195  0.0133 -0.2527  0.0152
 1677TIP3    H126446   0.168   6.744  15.280 -2.3791 -0.2016  0.0823
 1677TIP3    H226447   0.246   6.750  15.151  0.3928 -1.4773  1.5870
 1678TIP3   OH226448   2.939   6.597   3.469  0.2627 -0.5712  0.0637
 1678TIP3    H126449   3.006   6.654   3.508  1.2450 -1.5726 -0.1093
 1678TIP3    H226450   2.954   6.604   3.375 -1.0989  0.6316 -0.0918
 1679TIP3   OH226451   3.625   2.902  13.343  0.4299 -0.3387 -0.1423
 1679TIP3    H126452   3.685   2.838  13.380  0.9213 -0.9342 -1.8817
 1679TIP3    H226453   3.541   2.883  13.385  0.2574 -2.9755 -1.4556
 1680TIP3   OH226454   3.217   0.929   6.716  0.3392  0.2278 -0.2697
 1680TIP3    H126455   3.223   0.962   6.806  0.6682  0.1947 -0.2777
 1680TIP3    H226456   3.308   0.911   6.692  0.0951 -1.5483  0.0505
 1681TIP3   OH226457   4.078   1.437  13.442  0.0418  0.3581  0.2207
 1681TIP3    H126458   4.106   1.499  13.375 -2.2296 -0.5671 -1.7671
 1681TIP3    H226459   4.080   1.352  13.398 -0.8459 -0.3787  1.5287
 1682TIP3   OH226460   1.971   4.367  15.885 -0.1764  0.0205  0.2128
 1682TIP3    H126461   1.932   4.346  15.970 -0.4633  0.7891  0.2846
 1682TIP3    H226462   1.947   4.459  15.870  0.4290  0.0879 -0.3944
 1683TIP3   OH226463   3.224   1.478  12.471  0.8328 -0.8127  0.0421
 1683TIP3    H126464   3.233   1.409  12.405  1.7265 -1.8065  1.1548
 1683TIP3    H226465   3.151   1.450  12.526 -1.4073  1.1221 -1.7437
 1684TIP3   OH226466   5.212   1.026  13.220 -0.4864  0.1584 -0.6119
 1684TIP3    H126467   5.220   1.069  13.305  0.1242 -1.9436  0.4451
 1684TIP3    H226468   5.301   1.001  13.197 -0.8033 -0.3741 -1.2904
 1685TIP3   OH226469   2.319   2.921   5.724 -0.6380  0.1974 -0.3184
 1685TIP3    H126470   2.345   3.003   5.767 -0.8576  0.2020 -0.1942
 1685TIP3    H226471   2.256   2.881   5.784  0.3547 -0.6452  0.1979
 1686TIP3   OH226472   4.253   4.742   2.839 -0.1657  0.1105 -0.3384
 1686TIP3    H126473   4.257   4.747   2.744  0.4808 -1.6547 -0.4311
 1686TIP3    H226474   4.343   4.728   2.867 -0.4333 -0.0205  0.4956
 1687TIP3   OH226475   5.032   2.672   0.180 -0.0065  0.7018  0.4901
 1687TIP3    H126476   4.955   2.676   0.124  0.0506  1.8595  0.4712
 1687TIP3    H226477   5.000   2.634   0.262 -0.1850 -0.5481 -0.1235
 1688TIP3   OH226478   6.329   1.464  12.813  0.4223 -0.2918 -0.1422
 1688TIP3    H126479   6.242   1.437  12.784  0.0265  0.5832  0.1857
 1688TIP3    H226480   6.331   1.558  12.797  2.0906 -0.5977 -2.1263
 1689TIP3   OH226481   3.284   5.419   4.788 -0.1021  0.6176  0.3075
 1689TIP3    H126482   3.197   5.379   4.790 -0.2345  0.8003 -0.9313
 1689TIP3    H226483   3.325   5.391   4.870  0.0422 -2.6193 -0.7303
 1690TIP3   OH226484   6.304   3.082  11.257  0.0117 -0.3750  0.0488
 1690TIP3    H126485   6.236   3.016  11.273  0.0692 -0.3932  0.2290
 1690TIP3    H226486   6.353   3.048  11.183  0.9869 -1.3079  1.0790
 1691TIP3   OH226487   2.486   6.578  16.033  0.6555 -0.7125 -0.5513
 1691TIP3    H126488   2.497   6.659  15.983  1.9455 -0.5774 -0.0958
 1691TIP3    H226489   2.548   6.517  15.993 -0.9932 -1.8297 -1.5310
 1692TIP3   OH226490   5.176   0.206  12.061 -0.1982  0.0195 -0.1336
 1692TIP3    H126491   5.138   0.132  12.013 -0.1755  0.5477 -0.9977
 1692TIP3    H226492   5.269   0.202  12.042 -0.2921  0.6745 -0.7757
 1693TIP3   OH226493   1.724   3.097  14.116  0.2367 -0.4597 -0.5487
 1693TIP3    H126494   1.752   3.106  14.025 -1.6422  1.1958 -1.0296
 1693TIP3    H226495   1.805   3.110  14.167  1.1952 -0.7535 -1.9421
 1694TIP3   OH226496   3.212   4.061  14.562 -0.2235  0.1918  0.1170
 1694TIP3    H126497   3.120   4.070  14.587 -0.7582  0.6643 -1.8303
 1694TIP3    H226498   3.214   3.984  14.504  1.0619 -1.2554  1.9560
 1695TIP3   OH226499   0.758   1.401  17.139  0.3776 -0.5215  0.3904
 1695TIP3    H126500   0.813   1.433  17.211  1.0623 -1.3135  0.2404
 1695TIP3    H226501   0.763   1.306  17.146  0.1225 -0.6073 -0.4525
 1696TIP3   OH226502   4.982   3.634  16.885 -0.2193  0.3767 -0.5257
 1696TIP3    H126503   5.072   3.654  16.859 -0.2403  1.4030  0.1408
 1696TIP3    H226504   4.972   3.540  16.867  1.1126  0.1567 -0.2015
 1697TIP3   OH226505   5.981   1.302  15.704 -0.2865 -0.4514  0.3850
 1697TIP3    H126506   5.908   1.342  15.658 -1.3488 -1.0549  1.4821
 1697TIP3    H226507   6.022   1.374  15.752 -1.5594 -0.4594  1.5444
 1698TIP3   OH226508   0.906   2.560   4.333  0.0575  0.1513 -0.5224
 1698TIP3    H126509   0.933   2.490   4.274 -0.9680 -0.7602  0.0517
 1698TIP3    H226510   0.821   2.588   4.300  0.1635  0.6799 -0.3590
 1699TIP3   OH226511   3.921   1.797   5.411  0.3569  0.3878 -0.2072
 1699TIP3    H126512   3.935   1.755   5.496  1.4357  2.2451  0.5819
 1699TIP3    H226513   3.881   1.881   5.431 -1.8158 -0.1883 -1.7689
 1700TIP3   OH226514   0.189   5.422   4.468 -0.0038 -0.1512  0.0509
 1700TIP3    H126515   0.194   5.420   4.372  0.6292 -2.1883  0.0697
 1700TIP3    H226516   0.277   5.448   4.496  0.3158 -1.2070  0.0699
 1701TIP3   OH226517   6.155   5.256  16.587 -0.0966  0.4250 -0.0476
 1701TIP3    H126518   6.206   5.300  16.655 -0.0120 -0.2620  0.3500
 1701TIP3    H226519   6.118   5.179  16.630 -0.6677  0.3846 -0.5878
 1702TIP3   OH226520   5.396   0.835  14.743 -0.4616 -0.3652  0.2931
 1702TIP3    H126521   5.426   0.868  14.658 -1.8433 -0.5373 -0.2975
 1702TIP3    H226522   5.300   0.839  14.737 -0.6142 -1.8295  1.2621
 1703TIP3   OH226523   0.656   1.344   0.555  0.3233  0.4155  0.4684
 1703TIP3    H126524   0.707   1.364   0.634  0.7230 -2.5621  1.0838
 1703TIP3    H226525   0.643   1.250   0.559  1.1178 -0.0209 -3.5313
 1704TIP3   OH226526   1.643   1.198  14.880 -0.1150 -0.2674  0.0502
 1704TIP3    H126527   1.738   1.199  14.875 -0.0265 -0.7286  1.2530
 1704TIP3    H226528   1.623   1.132  14.947 -1.2817 -0.2617 -0.2629
 1705TIP3   OH226529   3.076   5.035   4.826  0.1321 -0.0286 -0.5194
 1705TIP3    H126530   3.119   4.966   4.776  0.7549 -1.6467  2.0869
 1705TIP3    H226531   2.991   4.998   4.850  1.0301 -0.5956  2.1189
 1706TIP3   OH226532   4.061   4.457   0.573  0.0304 -0.2849 -0.0501
 1706TIP3    H126533   4.065   4.513   0.650 -2.5968  0.8637 -0.6355
 1706TIP3    H226534   4.104   4.508   0.504 -0.1055 -0.1001  0.0020
 1707TIP3   OH226535   4.122   1.085   0.578  0.1119  0.8908 -0.4844
 1707TIP3    H126536   4.057   1.143   0.539 -2.2450  0.2902  2.2225
 1707TIP3    H226537   4.192   1.143   0.608  0.5681  1.6280 -2.7854
 1708TIP3   OH226538   2.191   0.146   2.740 -0.0668  0.1415  0.3099
 1708TIP3    H126539   2.132   0.220   2.744 -0.4454 -0.1225 -0.3734
 1708TIP3    H226540   2.239   0.157   2.658 -0.0186 -0.2842  0.2772
 1709TIP3   OH226541   5.934   6.146   2.772 -0.1829 -0.0134  0.3496
 1709TIP3    H126542   5.887   6.134   2.689  0.0819  3.4386 -0.4323
 1709TIP3    H226543   5.996   6.217   2.755  0.2867  0.4387  3.3642
 1710TIP3   OH226544   3.123   5.750  12.435 -0.2726 -0.6309 -0.2656
 1710TIP3    H126545   3.054   5.804  12.476  0.5678 -0.8264  1.4721
 1710TIP3    H226546   3.136   5.677  12.495  3.6574  1.0230  1.2118
 1711TIP3   OH226547   5.820   2.646  12.313 -0.0891  0.1520 -0.3391
 1711TIP3    H126548   5.854   2.706  12.246  2.0064  0.7219  1.1483
 1711TIP3    H226549   5.859   2.562  12.291  1.0915  0.4698  0.4746
 1712TIP3   OH226550   6.643   3.063  15.732  0.6270  0.1204 -0.5111
 1712TIP3    H126551   6.688   3.143  15.758  1.4154 -0.8582  1.4000
 1712TIP3    H226552   6.598   3.035  15.812 -0.0407 -1.0778 -1.2842
 1713TIP3   OH226553   6.747   3.782  14.168 -0.0695 -0.4750 -0.6746
 1713TIP3    H126554   6.720   3.696  14.202  0.6250 -0.7350 -0.7697
 1713TIP3    H226555   6.830   3.765  14.124  0.5668  0.4270  0.1313
 1714TIP3   OH226556   3.265   1.140  11.850 -0.4064  0.7349  0.4332
 1714TIP3    H126557   3.184   1.160  11.803 -0.4223 -0.5130 -0.1185
 1714TIP3    H226558   3.322   1.101  11.783 -0.1820 -0.4526  1.2803
 1715TIP3   OH226559   1.865   2.982  13.340  0.5294  0.1603  0.1578
 1715TIP3    H126560   1.911   3.066  13.337  0.2427  0.2926 -2.6148
 1715TIP3    H226561   1.777   3.005  13.370  0.3247  0.9590 -0.9898
 1716TIP3   OH226562   1.834   5.607  15.985  0.1160  0.0835 -0.0290
 1716TIP3    H126563   1.844   5.517  15.952 -0.5632 -0.9154  2.2493
 1716TIP3    H226564   1.924   5.639  15.995  0.4821 -1.1914  1.1287
 1717TIP3   OH226565   4.589   3.652  16.700 -0.6059 -0.3552 -0.3373
 1717TIP3    H126566   4.682   3.678  16.693 -0.5630 -0.5813 -0.6139
 1717TIP3    H226567   4.541   3.727  16.664 -0.5355 -0.2064 -0.1258
 1718TIP3   OH226568   6.686   3.145  11.916  0.2806 -0.5716 -0.6214
 1718TIP3    H126569   6.602   3.172  11.955 -0.1103  2.5686 -3.2140
 1718TIP3    H226570   6.662   3.103  11.834  1.2220 -0.1607 -1.1165
 1719TIP3   OH226571   3.478   6.555  12.902  0.7065 -0.0908  0.3700
 1719TIP3    H126572   3.519   6.476  12.936 -0.9808 -0.7398  1.0302
 1719TIP3    H226573   3.456   6.534  12.811 -1.3360 -1.1294  1.0243
 1720TIP3   OH226574   0.736   2.126   3.618 -0.3364  0.5492  0.2518
 1720TIP3    H126575   0.670   2.102   3.553 -0.4626  2.0553 -0.2151
 1720TIP3    H226576   0.686   2.153   3.695 -0.2329  0.5925  0.3045
 1721TIP3   OH226577   4.430   1.635   6.026  0.0100  0.3814 -0.4004
 1721TIP3    H126578   4.508   1.631   5.971  0.2975 -1.0961  0.0718
 1721TIP3    H226579   4.456   1.595   6.108 -0.5657  2.0965  0.6824
 1722TIP3   OH226580   2.092   0.565   5.559 -0.1531 -0.6756  0.0027
 1722TIP3    H126581   2.142   0.627   5.506  0.4520 -0.3494  0.9295
 1722TIP3    H226582   2.086   0.487   5.504  1.3301 -0.6967 -0.1743
 1723TIP3   OH226583   3.931   3.981  14.222  0.4778  0.1235  0.0600
 1723TIP3    H126584   4.019   3.968  14.255  0.8259  1.0950 -0.4376
 1723TIP3    H226585   3.936   4.063  14.171 -0.7255  0.2540  0.1171
 1724TIP3   OH226586   6.268   6.469   4.817  0.7863  0.4993  0.2455
 1724TIP3    H126587   6.358   6.468   4.786  0.6550  1.7309 -0.2548
 1724TIP3    H226588   6.245   6.377   4.828  1.0024 -0.0275 -2.8310
 1725TIP3   OH226589   2.811   3.403   2.048  0.0597 -0.0240 -0.0969
 1725TIP3    H126590   2.765   3.320   2.039 -0.6888  0.0867  2.0325
 1725TIP3    H226591   2.743   3.470   2.044  0.3444  0.3140  0.4895
 1726TIP3   OH226592   2.142   0.784   1.382 -0.0418 -0.6229  0.2234
 1726TIP3    H126593   2.202   0.847   1.342  0.4925 -1.2045  0.0973
 1726TIP3    H226594   2.060   0.795   1.333 -0.0954  0.2774  0.4919
 1727TIP3   OH226595   4.673   4.821   4.098  0.0929  0.6051 -0.1989
 1727TIP3    H126596   4.633   4.735   4.090 -0.4915  0.6946  1.4585
 1727TIP3    H226597   4.605   4.876   4.138  1.4199  1.0732  1.5387
 1728TIP3   OH226598   4.918   3.563   2.690  0.0508  0.4757  0.8281
 1728TIP3    H126599   4.974   3.539   2.616  1.2834  0.8141  1.6288
 1728TIP3    H226600   4.852   3.493   2.694  0.1127  0.3303 -0.4223
 1729TIP3   OH226601   6.584   0.753   4.767 -0.2250  0.6184 -0.3260
 1729TIP3    H126602   6.549   0.667   4.743  2.6982 -0.9795  0.6542
 1729TIP3    H226603   6.528   0.781   4.840 -1.3271 -0.3704 -0.7497
 1730TIP3   OH226604   6.219   4.408  12.842 -0.3959  0.6533 -0.0748
 1730TIP3    H126605   6.174   4.488  12.817  2.0494  1.8507 -0.9642
 1730TIP3    H226606   6.227   4.412  12.937 -0.3929  1.3997 -0.1076
 1731TIP3   OH226607   4.130   3.585   4.675  0.2571 -0.1263  0.2061
 1731TIP3    H126608   4.168   3.586   4.587 -0.5219 -0.8937 -0.1569
 1731TIP3    H226609   4.189   3.530   4.726 -0.0137 -0.7989 -0.1943
 1732TIP3   OH226610   6.325   4.596  13.503 -0.1917 -0.4178  0.2518
 1732TIP3    H126611   6.378   4.622  13.428 -0.8477 -4.8820 -2.0710
 1732TIP3    H226612   6.387   4.557  13.564 -0.1585 -0.7049  0.0347
 1733TIP3   OH226613   0.711   1.654   3.775 -0.1840 -0.9046  0.4227
 1733TIP3    H126614   0.667   1.736   3.796  1.0823  0.2692 -1.2308
 1733TIP3    H226615   0.757   1.629   3.855  0.5675  0.7635  0.5386
 1734TIP3   OH226616   5.695   6.270  12.595 -0.0454 -0.5517  0.8064
 1734TIP3    H126617   5.732   6.267  12.507 -0.8075  1.7915  0.3374
 1734TIP3    H226618   5.632   6.199  12.598 -0.6608 -0.1069 -0.8635
 1735TIP3   OH226619   0.691   0.559   2.707  0.3236  0.1098  0.8600
 1735TIP3    H126620   0.747   0.599   2.640 -0.3129  2.3400  1.5628
 1735TIP3    H226621   0.739   0.572   2.789  1.6072 -3.5550  0.8525
 1736TIP3   OH226622   2.808   5.772   5.413 -0.1500  0.0251 -0.3522
 1736TIP3    H126623   2.903   5.759   5.418 -0.0698 -0.8654 -2.8043
 1736TIP3    H226624   2.794   5.863   5.439  1.8593  1.3731 -3.4870
 1737TIP3   OH226625   1.975   0.318   0.677  0.1028 -0.5739 -0.0869
 1737TIP3    H126626   1.974   0.272   0.761  1.0504 -0.1382  0.1657
 1737TIP3    H226627   1.907   0.385   0.685  0.9787  0.2276  0.7666
 1738TIP3   OH226628   0.220   3.399   5.443 -0.3329 -0.0108 -0.1484
 1738TIP3    H126629   0.142   3.429   5.397  0.9500  0.5989 -2.0290
 1738TIP3    H226630   0.264   3.479   5.470 -0.1948 -0.3485  0.6518
 1739TIP3   OH226631   1.968   5.698  16.537  0.5851 -0.0703  0.3874
 1739TIP3    H126632   1.982   5.681  16.444 -0.2729 -0.9100  0.3892
 1739TIP3    H226633   2.053   5.680  16.578  1.2392  1.2245 -0.3197
 1740TIP3   OH226634   0.380   1.393   2.358  0.2263  0.4262 -0.1763
 1740TIP3    H126635   0.425   1.313   2.334 -1.7618 -0.7304 -0.2683
 1740TIP3    H226636   0.369   1.388   2.453 -0.1579  0.4289 -0.2163
 1741TIP3   OH226637   6.730   5.886   3.410  0.4830  0.6104 -0.2719
 1741TIP3    H126638   6.790   5.838   3.352  0.9505  0.9964 -0.1097
 1741TIP3    H226639   6.757   5.862   3.498 -0.3973 -0.1860 -0.1956
 1742TIP3   OH226640   2.515   4.431   1.738  0.6602 -0.3306 -0.1440
 1742TIP3    H126641   2.469   4.448   1.821  3.4679  3.2725  0.9629
 1742TIP3    H226642   2.607   4.425   1.763  1.4737 -0.3810 -2.9001
 1743TIP3   OH226643   3.059   3.692   4.983 -0.3098 -0.0536  0.3385
 1743TIP3    H126644   3.018   3.606   4.974 -0.5243  0.1246 -0.3968
 1743TIP3    H226645   3.116   3.683   5.060  1.8558 -1.7118 -1.3254
 1744TIP3   OH226646   3.843   2.299   0.903  0.4840 -0.6514  0.4234
 1744TIP3    H126647   3.892   2.378   0.926 -0.1933 -0.4575  1.2543
 1744TIP3    H226648   3.752   2.328   0.900  0.4889 -0.1928 -4.3423
 1745TIP3   OH226649   6.254   3.569   5.664  0.2572  0.1114 -0.1222
 1745TIP3    H126650   6.226   3.629   5.733  0.7788 -1.2325  1.3364
 1745TIP3    H226651   6.345   3.593   5.646  0.5411 -0.3499  0.6297
 1746TIP3   OH226652   4.791   6.060  17.049  0.0802 -0.6459 -0.3112
 1746TIP3    H126653   4.716   6.077  17.106  0.7732  0.5386  0.3109
 1746TIP3    H226654   4.865   6.100  17.096  0.7235  0.1124 -1.9083
 1747TIP3   OH226655   3.976   1.224  16.285 -0.2096  0.0497  0.0064
 1747TIP3    H126656   3.923   1.166  16.340 -1.2748  2.4136  1.6629
 1747TIP3    H226657   3.919   1.245  16.211 -0.6748  0.6272  0.5121
 1748TIP3   OH226658   5.067   2.923  13.348 -0.0249 -0.2852  0.8544
 1748TIP3    H126659   5.136   2.939  13.284 -2.1305 -0.0534 -1.5058
 1748TIP3    H226660   5.049   3.010  13.384  2.0842 -0.6025  2.9048
 1749TIP3   OH226661   4.344   5.166  16.457 -0.1794 -0.1991  0.0037
 1749TIP3    H126662   4.397   5.246  16.462 -1.2702  0.6384 -1.0827
 1749TIP3    H226663   4.367   5.127  16.374  0.2757 -0.9873  0.4895
 1750TIP3   OH226664   1.306   0.336   4.143 -0.1203  0.3803  0.4649
 1750TIP3    H126665   1.237   0.401   4.160  2.2598  2.9132  1.1500
 1750TIP3    H226666   1.269   0.254   4.176 -2.7089  1.6220  0.9770
 1751TIP3   OH226667   0.158   2.453  15.800 -0.3610 -0.7327 -0.1278
 1751TIP3    H126668   0.086   2.482  15.856  1.3934 -0.5193  2.1753
 1751TIP3    H226669   0.132   2.366  15.770 -0.9427 -1.3408  1.9603
 1752TIP3   OH226670   1.683   6.299  14.719  0.3377 -0.3208 -0.0282
 1752TIP3    H126671   1.740   6.373  14.740 -0.1373  0.3982 -1.1521
 1752TIP3    H226672   1.741   6.236  14.676  0.3713  0.2375 -0.8150
 1753TIP3   OH226673   1.809   5.508  12.507  0.1372 -0.4061  0.0649
 1753TIP3    H126674   1.802   5.422  12.467 -2.1300  0.5098 -1.7654
 1753TIP3    H226675   1.826   5.491  12.600 -0.1418 -2.8010 -0.2777
 1754TIP3   OH226676   1.309   1.434   4.471 -0.0568  0.4352  0.3337
 1754TIP3    H126677   1.374   1.414   4.540  2.0357  0.0526 -1.6270
 1754TIP3    H226678   1.321   1.527   4.453 -0.1924  0.4097  0.1107
 1755TIP3   OH226679   3.502   1.124  13.037  0.0382 -0.0602  0.2242
 1755TIP3    H126680   3.484   1.131  12.943 -1.1596  0.2876  0.4625
 1755TIP3    H226681   3.510   1.214  13.067  0.6209 -0.1777  0.4169
 1756TIP3   OH226682   3.980   3.471  10.382 -0.3895  0.2540  0.2911
 1756TIP3    H126683   4.012   3.383  10.365 -0.1683  0.4411 -0.2934
 1756TIP3    H226684   3.998   3.519  10.301  0.8746  1.2307  1.1084
 1757TIP3   OH226685   3.734   0.667   6.424  0.2448 -1.0320 -0.2656
 1757TIP3    H126686   3.823   0.647   6.454 -0.2379 -1.5589  0.8706
 1757TIP3    H226687   3.734   0.761   6.408  1.2239 -1.1505 -1.0597
 1758TIP3   OH226688   6.317   1.979   4.928 -0.2694 -0.4502 -0.3269
 1758TIP3    H126689   6.409   1.984   4.955 -1.1881 -1.7705  3.6564
 1758TIP3    H226690   6.279   2.062   4.956 -0.6486 -0.5969 -0.3944
 1759TIP3   OH226691   2.427   3.601   4.322 -0.2025  0.8481  0.1157
 1759TIP3    H126692   2.452   3.527   4.378  1.3714 -1.4717 -3.2487
 1759TIP3    H226693   2.338   3.581   4.294 -0.1580  0.7611  0.0337
 1760TIP3   OH226694   3.347   4.549   2.486 -0.6080  0.0547 -0.0614
 1760TIP3    H126695   3.286   4.619   2.511 -1.8991 -1.3814  0.9318
 1760TIP3    H226696   3.412   4.549   2.557 -0.9313 -0.1266  0.2373
 1761TIP3   OH226697   2.421   3.808   1.459 -0.2422  0.3513 -0.3618
 1761TIP3    H126698   2.481   3.745   1.418 -0.2695 -0.8656  1.3522
 1761TIP3    H226699   2.396   3.766   1.541 -2.4139  1.4256 -0.4154
 1762TIP3   OH226700   1.826   0.525  14.980  0.7405  0.1414  0.5562
 1762TIP3    H126701   1.822   0.512  14.886 -0.3195  2.6493  0.1805
 1762TIP3    H226702   1.753   0.473  15.014  1.1032 -0.7420  0.0144
 1763TIP3   OH226703   1.288   6.562  14.721  0.0285  0.8017  0.2156
 1763TIP3    H126704   1.199   6.539  14.694 -0.6949  0.3302  2.7802
 1763TIP3    H226705   1.344   6.500  14.675 -1.0079  0.6406 -0.8779
 1764TIP3   OH226706   0.213   0.688   1.769 -0.2366  0.3944  0.0247
 1764TIP3    H126707   0.295   0.641   1.781 -0.4677  0.5322  2.7943
 1764TIP3    H226708   0.238   0.781   1.768 -0.3169  0.4223  0.4852
 1765TIP3   OH226709   5.951   5.733   5.266 -0.0952 -0.5386 -0.2414
 1765TIP3    H126710   5.858   5.735   5.286 -0.5517  3.9925 -1.7298
 1765TIP3    H226711   5.993   5.713   5.350 -2.3170 -0.6198  0.9245
 1766TIP3   OH226712   1.035   2.525  10.959 -0.0587  0.0553  0.0514
 1766TIP3    H126713   1.076   2.611  10.961 -0.6985  0.4654 -1.8797
 1766TIP3    H226714   0.942   2.542  10.973 -0.0508 -0.4525  0.7494
 1767TIP3   OH226715   5.882   5.343   5.127  0.4017  0.6842  0.1198
 1767TIP3    H126716   5.860   5.425   5.085 -1.3457 -0.4272 -1.2733
 1767TIP3    H226717   5.978   5.342   5.130  0.4546  2.7424  0.1935
 1768TIP3   OH226718   0.496   0.204   4.773 -0.3996 -0.3655  0.2175
 1768TIP3    H126719   0.495   0.131   4.835  0.8276 -0.7441 -0.1680
 1768TIP3    H226720   0.430   0.264   4.806 -0.0427 -0.7243  1.6854
 1769TIP3   OH226721   3.612   0.600   5.382  0.2468 -0.6973 -0.3110
 1769TIP3    H126722   3.600   0.541   5.308  0.0818 -0.4412 -0.4914
 1769TIP3    H226723   3.523   0.621   5.411  0.2225  0.8587 -1.3752
 1770TIP3   OH226724   4.651   1.626  15.404  0.2223 -0.1621  0.1592
 1770TIP3    H126725   4.578   1.564  15.394  0.2009 -0.2195  0.6201
 1770TIP3    H226726   4.654   1.674  15.321 -0.5370  0.0467  0.2404
 1771TIP3   OH226727   4.103   3.127   2.590  0.0887 -0.2147  0.2923
 1771TIP3    H126728   4.134   3.036   2.590  3.2640  0.7200  0.8992
 1771TIP3    H226729   4.016   3.123   2.630  1.2413 -2.7344  2.9875
 1772TIP3   OH226730   6.022   3.883   3.196 -0.3111  0.6577  0.2777
 1772TIP3    H126731   6.018   3.970   3.237  1.9671  0.6737  0.5683
 1772TIP3    H226732   6.066   3.897   3.113 -2.2782  0.1381 -0.9231
 1773TIP3   OH226733   1.065   1.164   2.046 -0.3104  0.4493  0.2935
 1773TIP3    H126734   0.989   1.113   2.077 -0.3754  0.3000 -0.1125
 1773TIP3    H226735   1.122   1.100   2.005  0.4710  0.4119  1.3851
 1774TIP3   OH226736   6.122   1.789   6.479  0.1794  0.0796  0.2568
 1774TIP3    H126737   6.215   1.799   6.460 -0.0828  1.2160 -0.4873
 1774TIP3    H226738   6.116   1.702   6.519  2.0898  1.2763  3.6212
 1775TIP3   OH226739   5.909   4.371  15.221  0.2096  0.0255 -0.2371
 1775TIP3    H126740   5.949   4.458  15.219 -1.7235  1.0082  0.9114
 1775TIP3    H226741   5.815   4.388  15.228 -0.2701 -2.1728 -0.6811
 1776TIP3   OH226742   3.763   1.687  15.663  0.3497 -0.7196 -0.3654
 1776TIP3    H126743   3.847   1.640  15.661  0.8930  0.0583  1.4507
 1776TIP3    H226744   3.771   1.753  15.595  1.0088 -0.9801 -0.5535
 1777TIP3   OH226745   0.420   3.485   3.377 -0.0859  0.4749  0.0181
 1777TIP3    H126746   0.392   3.573   3.403 -1.4060  0.7717 -2.1096
 1777TIP3    H226747   0.345   3.429   3.393 -0.2955  0.3340 -1.2954
 1778TIP3   OH226748   0.223   3.994   5.325  0.3693  0.6324 -0.1111
 1778TIP3    H126749   0.265   3.933   5.264 -1.2454 -1.3991  0.6812
 1778TIP3    H226750   0.273   4.075   5.316 -0.7287  1.0497 -5.3238
 1779TIP3   OH226751   3.198   4.959  13.587  0.0596 -0.5213 -0.1252
 1779TIP3    H126752   3.111   4.969  13.548 -0.5159 -1.8482  0.7292
 1779TIP3    H226753   3.200   4.868  13.618  1.9631 -0.6841 -0.6021
 1780TIP3   OH226754   4.581   1.854   1.637  0.1906 -0.1504 -0.3490
 1780TIP3    H126755   4.504   1.876   1.689 -0.5697 -0.3014 -1.3961
 1780TIP3    H226756   4.549   1.843   1.548  1.1049 -1.9344 -0.5267
 1781TIP3   OH226757   6.059   3.868   5.298  0.0414  0.1595  0.0151
 1781TIP3    H126758   6.085   3.843   5.209 -2.4609 -0.9674 -0.5178
 1781TIP3    H226759   6.026   3.787   5.336  1.2717  0.5799  2.1072
 1782TIP3   OH226760   6.503   5.385  11.242  0.0758  0.2424  0.4967
 1782TIP3    H126761   6.420   5.338  11.240  0.4251 -0.3936 -1.8496
 1782TIP3    H226762   6.489   5.463  11.189  0.9589  0.1426  0.0910
 1783TIP3   OH226763   2.107   1.844   3.318 -0.3563  0.2579 -0.6905
 1783TIP3    H126764   2.193   1.846   3.360  0.1961 -0.0054 -1.7695
 1783TIP3    H226765   2.050   1.892   3.378 -0.3248 -2.5511  1.8193
 1784TIP3   OH226766   4.592   4.438  14.853  0.0423 -0.3945 -0.1885
 1784TIP3    H126767   4.639   4.482  14.782 -0.7596 -0.3505 -0.6966
 1784TIP3    H226768   4.545   4.509  14.898 -0.8747 -0.6533 -0.7185
 1785TIP3   OH226769   4.272   5.217  12.475  0.4786 -0.6115  0.5550
 1785TIP3    H126770   4.312   5.132  12.457  0.9595 -0.3977  0.5815
 1785TIP3    H226771   4.341   5.280  12.455 -0.3556 -0.1252 -0.9441
 1786TIP3   OH226772   5.952   3.601  14.963  0.4548 -0.1724 -0.5818
 1786TIP3    H126773   5.890   3.674  14.958 -0.5871 -1.1045 -2.4536
 1786TIP3    H226774   5.987   3.605  15.052 -0.5596  1.7791 -0.2084
 1787TIP3   OH226775   1.736   6.273   1.054 -0.4616 -0.5906 -0.1071
 1787TIP3    H126776   1.659   6.247   1.103  0.1540 -1.2648  0.5328
 1787TIP3    H226777   1.802   6.291   1.121 -0.5475  1.6852 -0.5612
 1788TIP3   OH226778   1.094   1.424  13.998 -0.2240 -0.2489  0.0442
 1788TIP3    H126779   1.044   1.366  14.055 -0.1246 -1.4899 -1.0783
 1788TIP3    H226780   1.069   1.398  13.909  1.0338  0.3393 -0.5100
 1789TIP3   OH226781   3.695   3.260   5.001 -0.4935 -0.2763 -0.1140
 1789TIP3    H126782   3.701   3.340   5.053  0.8771 -0.5545  0.1900
 1789TIP3    H226783   3.671   3.192   5.064 -0.7231 -0.2744 -0.1987
 1790TIP3   OH226784   4.775   6.333  13.355 -0.0802 -0.1773  0.0688
 1790TIP3    H126785   4.838   6.311  13.287  2.0500  0.3177  1.7858
 1790TIP3    H226786   4.707   6.266  13.347  2.1609 -2.6196  0.0032
 1791TIP3   OH226787   3.009   2.283  11.532  0.1322  1.0365 -0.2697
 1791TIP3    H126788   2.955   2.203  11.537  0.4628  0.8921  1.8747
 1791TIP3    H226789   2.980   2.326  11.451  0.4874 -1.6144 -1.9506
 1792TIP3   OH226790   2.343   5.345   0.830 -0.6604 -0.5305 -0.1956
 1792TIP3    H126791   2.265   5.398   0.815 -0.3939 -0.5252 -1.6971
 1792TIP3    H226792   2.380   5.331   0.742 -0.4314 -2.7315  0.1965
 1793TIP3   OH226793   5.109   4.094  15.436 -0.7126 -0.2431 -0.0546
 1793TIP3    H126794   5.154   4.010  15.430  0.0713  0.2314 -1.2097
 1793TIP3    H226795   5.018   4.071  15.454 -0.8878 -1.4549 -2.1508
 1794TIP3   OH226796   2.884   4.045   4.895 -0.0925  0.7704 -0.0322
 1794TIP3    H126797   2.796   4.069   4.925  0.8977  0.9165  3.1059
 1794TIP3    H226798   2.933   4.029   4.975  2.3336 -0.9907 -1.7286
 1795TIP3   OH226799   1.904   0.414  10.287  0.4356  0.3835 -0.1415
 1795TIP3    H126800   1.835   0.399  10.222 -0.3416  0.3119  0.6727
 1795TIP3    H226801   1.869   0.376  10.368  2.0960 -1.0921 -0.0582
 1796TIP3   OH226802   4.465   1.880   0.257  0.3017 -0.0950 -0.3249
 1796TIP3    H126803   4.555   1.911   0.251  0.6095 -1.0171 -0.7220
 1796TIP3    H226804   4.424   1.908   0.175  0.2480  0.2465 -0.1832
 1797TIP3   OH226805   5.617   3.334  15.411  0.1430  0.1701 -0.1588
 1797TIP3    H126806   5.698   3.291  15.436 -0.2215  0.3121  1.3608
 1797TIP3    H226807   5.576   3.275  15.348  2.4469  1.1286 -2.7449
 1798TIP3   OH226808   2.796   0.048  16.048  0.2948  0.0709  0.2702
 1798TIP3    H126809   2.771  -0.016  15.981  1.0306  1.3911 -1.3644
 1798TIP3    H226810   2.719   0.056  16.104  0.0902 -1.9769  0.3456
 1799TIP3   OH226811   6.136   1.765  16.474  0.5522 -0.1365 -0.2539
 1799TIP3    H126812   6.213   1.708  16.482  1.4435  1.0717 -0.0209
 1799TIP3    H226813   6.162   1.847  16.516  0.0233  1.1874 -2.3695
 1800TIP3   OH226814   4.739   5.467   1.601  0.7500 -0.2410 -0.2079
 1800TIP3    H126815   4.657   5.420   1.592  0.1521  1.0190 -1.6828
 1800TIP3    H226816   4.714   5.557   1.621  1.8487 -0.2776  1.6504
 1801TIP3   OH226817   4.240   5.668   0.140 -0.2398  0.1905  0.2031
 1801TIP3    H126818   4.210   5.714   0.061 -0.4508 -0.5870 -0.1808
 1801TIP3    H226819   4.318   5.716   0.168 -0.7496  1.0861  0.1079
 1802TIP3   OH226820   2.052   2.037  11.179  0.4847  0.2905  0.3114
 1802TIP3    H126821   2.004   2.012  11.100  0.2646 -1.7208  1.0162
 1802TIP3    H226822   2.125   1.975  11.184  1.1704  1.1135  1.1044
 1803TIP3   OH226823   1.441   3.122  16.246  0.5561 -0.4011  0.0242
 1803TIP3    H126824   1.526   3.166  16.248  1.5719 -2.2798  0.1766
 1803TIP3    H226825   1.380   3.188  16.212  2.3389  0.5294 -1.5028
 1804TIP3   OH226826   6.710   2.633   5.826 -0.9506 -0.1876  0.0026
 1804TIP3    H126827   6.637   2.579   5.855 -1.4213  0.2056 -0.4286
 1804TIP3    H226828   6.784   2.603   5.878 -1.0905 -1.5559 -0.5519
 1805TIP3   OH226829   4.889   1.431  15.671  0.2665  0.4477 -0.8347
 1805TIP3    H126830   4.952   1.501  15.684  0.5841 -0.0948  0.6716
 1805TIP3    H226831   4.933   1.352  15.701 -0.7768 -0.0996 -0.6827
 1806TIP3   OH226832   2.866   6.203  12.685  0.2221  0.3766  0.1762
 1806TIP3    H126833   2.836   6.249  12.764  0.5337  0.0592  0.4844
 1806TIP3    H226834   2.884   6.114  12.715 -1.6587 -0.3480 -0.6817
 1807TIP3   OH226835   2.147   4.571   1.121 -0.0267  0.2160 -0.0620
 1807TIP3    H126836   2.154   4.635   1.050  2.1250 -1.1467 -1.1934
 1807TIP3    H226837   2.169   4.488   1.080  1.0474 -0.6684  2.1509
 1808TIP3   OH226838   1.559   6.062  15.385 -0.0722  0.0548 -0.0846
 1808TIP3    H126839   1.542   6.052  15.291 -0.5575 -0.7671  0.0792
 1808TIP3    H226840   1.475   6.041  15.426 -0.7133  3.1289  0.4339
 1809TIP3   OH226841   1.957   4.622  10.231 -0.1473 -0.6915  0.1885
 1809TIP3    H126842   1.913   4.707  10.229  0.2512 -0.4652  0.7539
 1809TIP3    H226843   1.980   4.610  10.323  1.4499 -0.5709 -0.1797
 1810TIP3   OH226844   3.345   3.163   4.156 -0.4520 -0.2542  0.3003
 1810TIP3    H126845   3.386   3.248   4.173  1.5433 -0.4636 -2.7256
 1810TIP3    H226846   3.406   3.099   4.193 -1.3844 -0.4599  1.5511
 1811TIP3   OH226847   0.741   1.124   2.626  0.1249  0.0015 -0.0985
 1811TIP3    H126848   0.771   1.209   2.657  0.2221 -0.2289  0.4419
 1811TIP3    H226849   0.808   1.097   2.562 -0.5863  0.9150 -1.2640
 1812TIP3   OH226850   4.857   1.930  15.357 -0.0691 -0.0413  0.2904
 1812TIP3    H126851   4.769   1.905  15.327  0.5419 -0.6989 -1.0004
 1812TIP3    H226852   4.857   2.025  15.355 -0.9294 -0.0120  0.8641
 1813TIP3   OH226853   1.616   0.355   1.694  0.2540 -0.1648 -0.1363
 1813TIP3    H126854   1.688   0.361   1.757 -0.4810  3.0152  0.5783
 1813TIP3    H226855   1.545   0.312   1.743  0.5075 -0.0500  0.3414
 1814TIP3   OH226856   1.797   0.801  13.821  0.0328  0.3348  0.1729
 1814TIP3    H126857   1.833   0.861  13.755 -2.0888  2.0109  0.4224
 1814TIP3    H226858   1.837   0.829  13.903 -0.2847  0.8700  0.1532
 1815TIP3   OH226859   2.528   3.560  14.580 -0.2657  0.6180  0.4839
 1815TIP3    H126860   2.593   3.603  14.525 -0.1488  0.1623  0.2638
 1815TIP3    H226861   2.501   3.627  14.643  1.4283  0.4153  1.4721
 1816TIP3   OH226862   5.066   0.365  11.198 -0.3281  0.1729  0.3729
 1816TIP3    H126863   4.989   0.413  11.167 -0.1247 -0.8976 -2.0690
 1816TIP3    H226864   5.056   0.278  11.160  2.2622  0.1182 -0.3731
 1817TIP3   OH226865   6.676   4.589   0.456  0.0145  0.1252 -0.0358
 1817TIP3    H126866   6.635   4.638   0.528 -0.2797 -0.7037  0.3749
 1817TIP3    H226867   6.612   4.522   0.433 -0.0905  0.6544 -1.3953
 1818TIP3   OH226868   1.382   0.587  15.869  0.8249  0.4445  0.2014
 1818TIP3    H126869   1.445   0.597  15.940  0.2910  1.2468  0.5829
 1818TIP3    H226870   1.340   0.673  15.862 -0.2830 -0.0853  0.0202
 1819TIP3   OH226871   1.375   6.526  15.668 -0.1988 -0.4834 -0.0320
 1819TIP3    H126872   1.395   6.444  15.624 -0.3209 -0.1710 -0.6827
 1819TIP3    H226873   1.447   6.584  15.645 -1.3571  0.3726 -1.6613
 1820TIP3   OH226874   4.056   5.467   3.162 -0.1326 -0.2562 -0.2633
 1820TIP3    H126875   3.983   5.520   3.195  0.4321  0.1014  0.4336
 1820TIP3    H226876   4.050   5.385   3.210  0.3149  0.0259  0.2813
 1821TIP3   OH226877   4.474   3.933   2.136  0.0911  0.5860  0.2702
 1821TIP3    H126878   4.501   3.993   2.067  0.4015 -0.5803 -0.6447
 1821TIP3    H226879   4.550   3.878   2.152 -0.1537  0.4921  1.1692
 1822TIP3   OH226880   0.169   5.816   1.933  0.3600  0.4024 -0.2880
 1822TIP3    H126881   0.202   5.905   1.927 -0.9176  0.8651 -0.9148
 1822TIP3    H226882   0.074   5.826   1.940 -0.0249 -0.9339 -2.6035
 1823TIP3   OH226883   0.305   1.476  12.920  0.4894  0.3049  0.1695
 1823TIP3    H126884   0.298   1.475  13.015  1.4474  1.6555  0.2918
 1823TIP3    H226885   0.231   1.529  12.890  0.5637  0.4418  0.2251
 1824TIP3   OH226886   6.034   5.324  13.083  0.0752 -0.0550  0.1611
 1824TIP3    H126887   5.946   5.307  13.118  0.0586 -1.9957 -0.6670
 1824TIP3    H226888   6.026   5.407  13.036 -0.5284  1.3256  2.5623
 1825TIP3   OH226889   5.685   1.874   0.377 -0.0384  0.1441 -0.4616
 1825TIP3    H126890   5.716   1.850   0.464 -2.4870  0.0121  0.4675
 1825TIP3    H226891   5.690   1.792   0.327  2.6998  0.5313 -0.9501
 1826TIP3   OH226892   2.236   1.690  13.499 -0.7327  0.6411  0.0032
 1826TIP3    H126893   2.177   1.635  13.549 -0.7931  0.5832 -0.1311
 1826TIP3    H226894   2.308   1.709  13.559  0.1397 -0.9801 -0.4653
 1827TIP3   OH226895   2.467   0.236  11.546 -0.4422 -0.0777 -0.0259
 1827TIP3    H126896   2.428   0.170  11.488 -0.9515 -0.2624  0.5163
 1827TIP3    H226897   2.510   0.185  11.615  1.4333  0.0974 -1.0062
 1828TIP3   OH226898   4.346   1.888   0.796  0.1524 -0.4103  0.2764
 1828TIP3    H126899   4.267   1.854   0.838  0.4760 -0.3244  0.9671
 1828TIP3    H226900   4.393   1.810   0.767 -1.2207 -0.4342 -2.1450
 1829TIP3   OH226901   1.667   4.809  12.184  0.5818  0.4107  0.4982
 1829TIP3    H126902   1.646   4.787  12.093 -0.6941 -2.7634  1.4359
 1829TIP3    H226903   1.589   4.854  12.217  1.2377  2.0154 -0.0480
 1830TIP3   OH226904   2.288   0.424   2.312  0.7315 -0.1867  0.1208
 1830TIP3    H126905   2.358   0.486   2.333  0.9405  0.0682 -1.2552
 1830TIP3    H226906   2.252   0.456   2.230 -1.0994 -0.2515  0.8611
 1831TIP3   OH226907   1.987   2.414   1.126 -0.1074 -0.1710 -0.4252
 1831TIP3    H126908   2.073   2.379   1.150 -0.4859 -1.8097 -1.3637
 1831TIP3    H226909   1.965   2.473   1.198  0.6810 -1.6514  1.0891
 1832TIP3   OH226910   4.879   4.015  14.432 -0.0085  0.5463  0.0157
 1832TIP3    H126911   4.939   4.072  14.383 -0.3078  1.1114  0.2982
 1832TIP3    H226912   4.792   4.054  14.418 -0.1419  0.5020  0.6917
 1833TIP3   OH226913   0.080   0.319  15.878 -0.6830  0.4898  0.2641
 1833TIP3    H126914   0.103   0.382  15.947 -3.7562 -2.2931  4.3939
 1833TIP3    H226915   0.106   0.234  15.914  0.3907 -1.0071 -3.6066
 1834TIP3   OH226916   5.806   0.988   0.022 -0.6012 -0.0699  0.9102
 1834TIP3    H126917   5.766   1.005  -0.063  2.1330 -1.1281 -0.7456
 1834TIP3    H226918   5.858   1.067   0.040 -2.6474  0.9635  2.6346
 1835TIP3   OH226919   4.705   1.635   5.922 -0.0306 -0.9086 -0.2447
 1835TIP3    H126920   4.707   1.555   5.870  0.2649 -0.3444 -1.1132
 1835TIP3    H226921   4.779   1.627   5.982  1.3041 -0.3729 -1.7464
 1836TIP3   OH226922   4.482   5.274   1.669  0.3613 -0.1817 -0.5780
 1836TIP3    H126923   4.554   5.249   1.726 -1.4129  0.2505  2.0710
 1836TIP3    H226924   4.432   5.194   1.655  0.6131 -0.2211 -1.3247
 1837TIP3   OH226925   5.445   2.696   3.447  0.1307  0.1828  0.2377
 1837TIP3    H126926   5.382   2.695   3.519  1.5911 -0.2765  1.5599
 1837TIP3    H226927   5.391   2.681   3.369 -1.4364  0.1836  1.2596
 1838TIP3   OH226928   2.817   0.765   1.432 -0.1452  0.5535 -0.0741
 1838TIP3    H126929   2.762   0.754   1.509 -0.9676  0.7864 -0.6199
 1838TIP3    H226930   2.901   0.796   1.467  0.9948 -3.2869  1.1668
 1839TIP3   OH226931   2.639   4.493  15.206  0.7594  0.1013  0.3444
 1839TIP3    H126932   2.589   4.440  15.143 -1.4683  1.4165  0.8974
 1839TIP3    H226933   2.650   4.436  15.282 -1.7106  0.3456  0.9832
 1840TIP3   OH226934   2.782   2.787   4.554  0.0477 -0.2592  0.0740
 1840TIP3    H126935   2.850   2.765   4.490  1.1665 -0.8612  1.4039
 1840TIP3    H226936   2.738   2.703   4.572  1.1843 -0.5600  1.6557
 1841TIP3   OH226937   5.794   1.089   1.000 -0.5321 -0.0177 -0.2314
 1841TIP3    H126938   5.889   1.098   0.992 -0.6489 -0.1964 -2.3787
 1841TIP3    H226939   5.774   1.130   1.084  1.4334 -0.0216  0.3065
 1842TIP3   OH226940   4.851   5.668  13.559  0.0708 -0.3317  0.2102
 1842TIP3    H126941   4.920   5.673  13.626 -0.4441 -1.6104  0.8779
 1842TIP3    H226942   4.864   5.746  13.506  1.6538 -0.2236  0.6898
 1843TIP3   OH226943   5.744   6.163  16.338  0.2591 -0.3145  0.0923
 1843TIP3    H126944   5.782   6.143  16.252  2.0069 -0.6573  0.9151
 1843TIP3    H226945   5.754   6.082  16.388  0.1991  0.1976  0.9476
 1844TIP3   OH226946   2.214   4.242   4.084  0.2185 -0.1100  0.2786
 1844TIP3    H126947   2.195   4.149   4.093  2.6051 -0.9517 -1.9762
 1844TIP3    H226948   2.256   4.266   4.167 -1.4196 -0.7036  1.3182
 1845TIP3   OH226949   5.859   5.151   2.621 -0.5103  0.0748  0.0917
 1845TIP3    H126950   5.855   5.232   2.672  1.0645  0.8315 -0.9148
 1845TIP3    H226951   5.824   5.175   2.535  0.3076 -0.1880 -0.3272
 1846TIP3   OH226952   6.402   0.625  16.815  0.4635 -0.5301 -0.2439
 1846TIP3    H126953   6.398   0.711  16.855  1.0300 -1.8616  3.0094
 1846TIP3    H226954   6.327   0.622  16.756  0.2402  2.0160 -0.1734
 1847TIP3   OH226955   1.264   2.993  14.858  0.6206  0.2636 -0.1087
 1847TIP3    H126956   1.267   2.897  14.864 -3.0042  0.0812  1.7236
 1847TIP3    H226957   1.339   3.023  14.909  3.2402 -1.4396 -2.6483
 1848TIP3   OH226958   5.371   0.712   2.508  0.1534 -0.3634 -0.5743
 1848TIP3    H126959   5.278   0.738   2.510  0.5081  0.9403  0.6959
 1848TIP3    H226960   5.411   0.763   2.578  2.2314  0.5573 -2.3313
 1849TIP3   OH226961   6.636   4.103  15.864 -0.6355  0.1647 -0.1967
 1849TIP3    H126962   6.655   4.145  15.780  0.5730 -1.6122 -0.8826
 1849TIP3    H226963   6.693   4.147  15.927 -1.4324  1.4050 -0.3305
 1850TIP3   OH226964   2.277   0.521   2.053  0.2540 -0.5762  0.2966
 1850TIP3    H126965   2.355   0.573   2.037  0.6511 -1.3017 -0.1831
 1850TIP3    H226966   2.301   0.432   2.026 -1.2302 -0.5188 -1.4380
 1851TIP3   OH226967   5.755   6.603  11.399 -0.1949  0.0391 -0.1576
 1851TIP3    H126968   5.779   6.522  11.355 -0.9274 -1.2076  1.6185
 1851TIP3    H226969   5.828   6.662  11.383 -0.5346 -0.2177 -3.1843
 1852TIP3   OH226970   0.140   6.533  13.244 -0.3671 -0.1247 -0.2663
 1852TIP3    H126971   0.113   6.495  13.328 -2.0866  0.1300 -0.6779
 1852TIP3    H226972   0.098   6.479  13.178  0.3836  0.1189 -0.9630
 1853TIP3   OH226973   5.641   6.776  13.259 -0.4841 -0.1639 -0.7488
 1853TIP3    H126974   5.730   6.787  13.226  0.5004 -0.6101  1.5851
 1853TIP3    H226975   5.633   6.842  13.328 -1.3061 -1.3223  0.2943
 1854TIP3   OH226976   1.093   0.518   4.413 -1.1505  0.3575  0.3835
 1854TIP3    H126977   1.109   0.604   4.450  0.7714  0.0447  0.3704
 1854TIP3    H226978   1.142   0.458   4.470 -2.0313 -0.6697  0.0863
 1855TIP3   OH226979   2.837   2.108   1.587 -0.5446  0.0250  0.0279
 1855TIP3    H126980   2.750   2.146   1.583 -0.4528  0.2293 -0.0458
 1855TIP3    H226981   2.852   2.091   1.680 -1.3512 -1.6237 -0.1107
 1856TIP3   OH226982   0.573   0.217  15.211 -0.2283  0.0650  0.1094
 1856TIP3    H126983   0.621   0.239  15.291 -0.3631  1.6070 -0.2067
 1856TIP3    H226984   0.614   0.136  15.180  2.0433  1.1968 -0.0378
 1857TIP3   OH226985   4.820   2.882   4.892  0.1875 -0.5164 -0.0264
 1857TIP3    H126986   4.860   2.943   4.954  1.4337  0.1436 -1.4124
 1857TIP3    H226987   4.886   2.871   4.824 -1.7463  0.0948 -2.1067
 1858TIP3   OH226988   3.933   3.717   2.372  0.2744  0.2889 -0.1989
 1858TIP3    H126989   3.882   3.679   2.444  0.8905 -0.3074 -0.0722
 1858TIP3    H226990   3.948   3.808   2.399  0.2077  0.1657  0.2619
 1859TIP3   OH226991   1.389   4.764  15.573 -0.2518  0.9173  0.3410
 1859TIP3    H126992   1.412   4.778  15.482  1.7366  0.6286  0.7547
 1859TIP3    H226993   1.301   4.800  15.582  0.1396  2.3855 -1.3150
 1860TIP3   OH226994   2.732   2.718   1.129 -0.1514  1.0072  0.1918
 1860TIP3    H126995   2.817   2.684   1.158 -0.4888  0.0333  0.0892
 1860TIP3    H226996   2.718   2.677   1.043 -1.1262  0.4241  0.6096
 1861TIP3   OH226997   5.389   4.777  15.866 -0.2378 -0.1768  0.0310
 1861TIP3    H126998   5.441   4.846  15.823 -0.9406  0.3413  0.0066
 1861TIP3    H226999   5.322   4.824  15.914 -0.6469 -0.8486  0.1238
 1862TIP3   OH227000   2.671   1.165  13.936 -0.8874 -0.0694 -0.2444
 1862TIP3    H127001   2.619   1.241  13.963 -0.5663  0.0494  0.0372
 1862TIP3    H227002   2.691   1.181  13.844  0.9161  1.1914  0.3316
 1863TIP3   OH227003   4.753   4.609  14.361 -0.9810  0.6967  0.6566
 1863TIP3    H127004   4.680   4.626  14.301 -0.1880 -0.7997 -0.8056
 1863TIP3    H227005   4.828   4.651  14.319 -0.0877 -1.6987 -0.3292
 1864TIP3   OH227006   0.461   5.376  12.287  0.2345  0.5803 -0.6059
 1864TIP3    H127007   0.444   5.459  12.330  0.6783 -0.7678  2.4341
 1864TIP3    H227008   0.375   5.332  12.285 -0.2544  1.4664 -3.3013
 1865TIP3   OH227009   5.793   4.095   6.428  0.0350  0.2218  0.1050
 1865TIP3    H127010   5.710   4.082   6.382  0.6362 -0.6855 -0.7567
 1865TIP3    H227011   5.795   4.024   6.493 -0.4048  0.9718  0.9601
 1866TIP3   OH227012   0.019   5.807   2.231 -1.0680  0.1250 -0.4611
 1866TIP3    H127013  -0.045   5.843   2.171 -1.3946 -0.4921 -0.4908
 1866TIP3    H227014  -0.031   5.751   2.290 -0.7947  0.9061  0.5575
 1867TIP3   OH227015   3.453   0.618   1.462 -0.4798 -0.4447 -0.1668
 1867TIP3    H127016   3.492   0.696   1.422 -1.8264  0.2262 -0.2495
 1867TIP3    H227017   3.517   0.548   1.447 -0.2804  0.1113 -2.1999
 1868TIP3   OH227018   4.644   4.562  12.712 -0.0435  0.7268  0.4615
 1868TIP3    H127019   4.715   4.601  12.661 -0.6940 -0.1819 -1.2311
 1868TIP3    H227020   4.594   4.510  12.648 -0.1527 -1.5727  2.2558
 1869TIP3   OH227021   0.692   4.896  14.578 -0.1087 -0.3015  0.4879
 1869TIP3    H127022   0.747   4.954  14.525  1.8944 -0.6644  2.0258
 1869TIP3    H227023   0.675   4.946  14.658 -1.0911 -0.6491  0.5146
 1870TIP3   OH227024   2.040   1.425   3.306 -0.5718  0.1393  0.3146
 1870TIP3    H127025   2.110   1.484   3.278 -1.8824  1.3869 -0.4512
 1870TIP3    H227026   2.056   1.344   3.257 -0.4115  0.8664 -0.8726
 1871TIP3   OH227027   1.862   5.267  12.394  0.0864 -0.1718 -0.2834
 1871TIP3    H127028   1.866   5.183  12.440  0.0188 -0.5908 -1.0311
 1871TIP3    H227029   1.938   5.266  12.336  0.7507  0.7943  0.5498
 1872TIP3   OH227030   2.925   4.412  14.205 -0.2366  0.8605 -0.4637
 1872TIP3    H127031   2.866   4.381  14.136 -0.9720  1.9724 -0.3574
 1872TIP3    H227032   2.867   4.449  14.271  0.2633 -2.1590  1.9019
 1873TIP3   OH227033   3.293   2.627   5.506 -0.3244 -0.8003 -0.0572
 1873TIP3    H127034   3.271   2.694   5.441  2.0714 -0.3196 -0.4764
 1873TIP3    H227035   3.258   2.661   5.589 -1.2652 -0.2223 -0.6809
 1874TIP3   OH227036   2.401   4.743   2.598 -0.4600 -0.1701  0.2955
 1874TIP3    H127037   2.340   4.670   2.610 -0.7480  0.3282  2.3026
 1874TIP3    H227038   2.361   4.797   2.529 -1.4197 -0.7196  0.4050
 1875TIP3   OH227039   1.620   4.560   0.906  0.2109  1.0581  0.0899
 1875TIP3    H127040   1.565   4.611   0.846 -0.5989 -0.3329 -0.3837
 1875TIP3    H227041   1.575   4.476   0.915  1.6519  0.3073  0.6348
 1876TIP3   OH227042   1.292   5.033   3.269 -0.1203 -0.0013 -0.2563
 1876TIP3    H127043   1.381   5.029   3.304 -0.6728  1.1167  1.3681
 1876TIP3    H227044   1.237   4.995   3.337 -0.6968 -3.5175 -2.4138
 1877TIP3   OH227045   6.725   5.530  12.602  0.3375 -0.0350  0.1056
 1877TIP3    H127046   6.791   5.479  12.649 -0.4624 -0.5530  0.6882
 1877TIP3    H227047   6.693   5.593  12.667 -1.3585 -1.2837  0.5520
 1878TIP3   OH227048   0.784   4.109   3.610  0.3853  0.6218 -0.4294
 1878TIP3    H127049   0.876   4.086   3.596  0.8070  1.8350  0.1461
 1878TIP3    H227050   0.756   4.149   3.528  1.2478  2.8105  0.2588
 1879TIP3   OH227051   6.651   0.428  10.550  0.2302 -0.4779  0.4207
 1879TIP3    H127052   6.560   0.435  10.580 -0.2667  0.6102 -1.2169
 1879TIP3    H227053   6.704   0.438  10.629 -1.0351  0.8856  1.1351
 1880TIP3   OH227054   6.116   2.069  12.350 -0.0020 -0.0280  0.3866
 1880TIP3    H127055   6.162   2.072  12.266  0.0705  3.3948  0.4003
 1880TIP3    H227056   6.033   2.115  12.333 -1.0383 -1.3381  1.6664
 1881TIP3   OH227057   0.389   3.372  13.627 -0.2561 -0.0442 -0.0178
 1881TIP3    H127058   0.440   3.427  13.685  0.5651  0.0253 -0.7857
 1881TIP3    H227059   0.402   3.283  13.660 -0.7998  0.1122  0.6366
 1882TIP3   OH227060   3.707   5.694   1.456  0.1997 -0.1161 -0.0329
 1882TIP3    H127061   3.772   5.758   1.425 -0.3346 -0.4488 -2.0073
 1882TIP3    H227062   3.692   5.718   1.547  0.3402  2.3284 -0.5644
 1883TIP3   OH227063   0.571   3.043   2.360 -1.0534  0.0915 -0.3534
 1883TIP3    H127064   0.560   3.110   2.428  0.0397  0.0350 -0.0945
 1883TIP3    H227065   0.487   3.041   2.314 -1.3789  1.0463  0.1681
 1884TIP3   OH227066   6.407   2.608   3.569 -0.3005  0.0344 -0.2498
 1884TIP3    H127067   6.498   2.610   3.599 -0.3941  1.0838  0.0066
 1884TIP3    H227068   6.388   2.515   3.556  0.6446 -0.2304  0.1810
 1885TIP3   OH227069   2.617   4.817  13.757 -0.0991 -0.1634  0.3263
 1885TIP3    H127070   2.684   4.764  13.800  0.9363 -0.3770 -1.4579
 1885TIP3    H227071   2.540   4.809  13.814  0.8898 -1.2341  1.5771
 1886TIP3   OH227072   0.674   6.419  13.355 -0.4383 -0.4266  0.3113
 1886TIP3    H127073   0.655   6.399  13.447 -1.1789 -3.0744 -0.3147
 1886TIP3    H227074   0.595   6.392  13.308  0.2932 -0.0374 -1.2035
 1887TIP3   OH227075   5.289   0.550  12.601 -0.2825 -0.3435  0.4460
 1887TIP3    H127076   5.290   0.462  12.563 -0.3193 -0.9615  1.8214
 1887TIP3    H227077   5.253   0.605  12.531 -1.6274 -1.6545  0.0304
 1888TIP3   OH227078   1.406   4.362   6.194 -0.0633 -0.5167 -0.0220
 1888TIP3    H127079   1.388   4.443   6.241 -2.8731 -1.2461  0.2933
 1888TIP3    H227080   1.500   4.347   6.207  0.3295  2.1613  0.6803
 1889TIP3   OH227081   2.299   3.072   2.557  0.1835 -0.1343 -0.1496
 1889TIP3    H127082   2.384   3.029   2.564 -1.3788 -3.5950 -0.3703
 1889TIP3    H227083   2.261   3.036   2.477 -2.2406 -0.1908  0.9411
 1890TIP3   OH227084   6.537   2.641  15.451  0.1201 -0.0459  0.5637
 1890TIP3    H127085   6.544   2.732  15.481 -2.1392  0.6610 -0.7727
 1890TIP3    H227086   6.472   2.644  15.381  1.5648 -2.3807 -1.0267
 1891TIP3   OH227087   5.978   1.867  12.544  0.4140 -0.5135  0.0798
 1891TIP3    H127088   6.041   1.905  12.484  1.4116  1.5868  2.2733
 1891TIP3    H227089   5.899   1.920  12.534  0.4839 -0.3457  0.3965
 1892TIP3   OH227090   2.879   4.751   0.051  0.0039  0.1987  0.1780
 1892TIP3    H127091   2.786   4.751   0.028 -0.0030 -0.0597  0.2096
 1892TIP3    H227092   2.922   4.793  -0.024 -0.2698  1.4443  0.6865
 1893TIP3   OH227093   1.080   0.638   2.847  0.1902 -0.4008  0.1506
 1893TIP3    H127094   0.998   0.601   2.878 -0.1659  0.7270  0.5743
 1893TIP3    H227095   1.146   0.607   2.909  0.0628 -1.1122 -0.0575
 1894TIP3   OH227096   3.539   2.886   1.597  0.0979 -0.1721  0.3361
 1894TIP3    H127097   3.538   2.827   1.672  0.6531  0.1266  0.5912
 1894TIP3    H227098   3.464   2.944   1.612 -0.2232 -0.5691  0.2809
 1895TIP3   OH227099   3.153   3.191  12.434 -0.1470  0.5029  0.1135
 1895TIP3    H127100   3.193   3.176  12.519 -0.7261  1.7535  0.6256
 1895TIP3    H227101   3.059   3.196  12.451 -0.4263 -0.8743 -0.8501
 1896TIP3   OH227102   1.982   4.724  16.926 -0.0408  0.0639 -0.2790
 1896TIP3    H127103   1.976   4.660  16.855 -0.7378  0.5110 -0.6386
 1896TIP3    H227104   2.073   4.721  16.953  0.1458 -0.3950 -0.9340
 1897TIP3   OH227105   2.220   6.426  13.803 -0.1965 -0.4039 -0.1621
 1897TIP3    H127106   2.307   6.391  13.823 -0.3846  0.2412  2.0083
 1897TIP3    H227107   2.234   6.520  13.792 -0.6032 -0.3234  0.0087
 1898TIP3   OH227108   0.714   6.295  11.422 -0.7940 -0.1942 -0.4356
 1898TIP3    H127109   0.785   6.350  11.390  0.4132 -1.6224 -0.3410
 1898TIP3    H227110   0.637   6.322  11.372  0.1247  0.4614 -1.5184
 1899TIP3   OH227111   6.208   4.633  16.731 -0.3303  0.2035 -0.3389
 1899TIP3    H127112   6.205   4.713  16.678 -0.8660  0.2826 -0.1988
 1899TIP3    H227113   6.176   4.661  16.817  0.4932  0.0683  0.0221
 1900TIP3   OH227114   0.667   3.299  14.005  0.2272  0.5248  0.2953
 1900TIP3    H127115   0.722   3.302  14.084  1.9329  1.8559 -0.8822
 1900TIP3    H227116   0.682   3.211  13.970  0.8659  0.5370  0.5114
 1901TIP3   OH227117   1.052   5.967  11.443 -0.5136 -0.7990 -0.0398
 1901TIP3    H127118   1.045   6.049  11.393  0.5065 -0.3500  0.5243
 1901TIP3    H227119   0.962   5.934  11.447 -0.8223 -0.1256 -0.9663
 1902TIP3   OH227120   4.139   2.175   3.738  0.0052 -0.2698  0.6245
 1902TIP3    H127121   4.201   2.192   3.808  0.9989  1.6020 -0.6358
 1902TIP3    H227122   4.155   2.244   3.674  0.0415 -2.6205 -2.0828
 1903TIP3   OH227123   1.366   3.413  11.919  0.6213  0.1749  0.0666
 1903TIP3    H127124   1.273   3.402  11.900 -0.2175  3.2834  1.7028
 1903TIP3    H227125   1.369   3.432  12.013  3.0638 -0.7673  0.2628
 1904TIP3   OH227126   5.194   1.869   4.496  0.8235  0.7491 -0.5961
 1904TIP3    H127127   5.116   1.872   4.552  0.6377  1.5490 -0.8845
 1904TIP3    H227128   5.177   1.934   4.427  2.7745  2.8505  0.7362
 1905TIP3   OH227129   5.258   3.289   3.260  0.4819  0.0108  1.0480
 1905TIP3    H127130   5.338   3.279   3.209  0.2923 -0.7576  0.9004
 1905TIP3    H227131   5.187   3.279   3.196  0.2608  0.6275  1.1857
 1906TIP3   OH227132   5.453   0.328   2.838 -0.2987  0.1223 -0.2484
 1906TIP3    H127133   5.424   0.367   2.756  0.1324  0.4825 -0.2324
 1906TIP3    H227134   5.535   0.372   2.858 -1.3415  1.4411  1.3898
 1907TIP3   OH227135   1.458   1.865  15.815 -0.0023 -0.0357 -0.0768
 1907TIP3    H127136   1.432   1.799  15.750 -0.8850  0.2628 -0.0344
 1907TIP3    H227137   1.512   1.816  15.877 -0.3345 -0.6404 -0.2517
 1908TIP3   OH227138   0.017   6.184   0.072  0.1083 -0.2199 -0.1424
 1908TIP3    H127139   0.089   6.221   0.021  0.8789 -0.5588  0.6676
 1908TIP3    H227140  -0.048   6.254   0.077  1.2440  0.8200  0.7851
 1909TIP3   OH227141   0.272   3.475   2.021  0.3920 -0.0875  0.1015
 1909TIP3    H127142   0.203   3.432   1.972 -1.8828  0.5963  2.4779
 1909TIP3    H227143   0.262   3.443   2.111  1.9749  1.4324  0.8832
 1910TIP3   OH227144   6.248   4.576  11.966 -0.4590 -0.3209  0.2046
 1910TIP3    H127145   6.320   4.615  12.016 -1.3897 -0.1762  1.4731
 1910TIP3    H227146   6.237   4.634  11.891 -0.2758  0.5255  0.8204
 1911TIP3   OH227147   2.307   5.757   3.899 -0.0625  0.0902 -0.3576
 1911TIP3    H127148   2.299   5.771   3.805 -3.5950 -0.8652 -0.3723
 1911TIP3    H227149   2.229   5.800   3.936  0.4243 -0.8573  1.9577
 1912TIP3   OH227150   2.631   6.110   3.176  0.0694  0.5944  0.3304
 1912TIP3    H127151   2.626   6.189   3.121  3.2148  0.0575 -0.8942
 1912TIP3    H227152   2.721   6.081   3.169 -1.3464 -4.5094 -1.1952
 1913TIP3   OH227153   3.804   1.895   0.593 -0.1159  0.1691 -0.3455
 1913TIP3    H127154   3.824   1.975   0.642 -1.9291 -0.6801  1.9792
 1913TIP3    H227155   3.861   1.829   0.630 -1.4636 -0.4691  0.6900
 1914TIP3   OH227156   2.505   0.334   2.060  0.0140 -0.1742 -0.0730
 1914TIP3    H127157   2.547   0.411   2.023  0.6593 -0.6433 -0.3274
 1914TIP3    H227158   2.548   0.321   2.145  0.2445 -0.5389 -0.2453
 1915TIP3   OH227159   1.069   5.321  12.662  0.2993 -0.4276  0.0962
 1915TIP3    H127160   1.100   5.408  12.685  0.9325 -0.0241 -2.1057
 1915TIP3    H227161   1.069   5.273  12.745  0.3662  1.5068  1.2690
 1916TIP3   OH227162   5.058   0.746   5.195  0.1007 -0.4656 -0.0261
 1916TIP3    H127163   5.075   0.730   5.288 -1.0667  0.5011  0.3936
 1916TIP3    H227164   5.144   0.753   5.155  0.6973  1.5971  1.4614
 1917TIP3   OH227165   2.625   2.136   3.683  0.4256 -0.2189  0.2652
 1917TIP3    H127166   2.683   2.130   3.758 -0.4289 -2.4069  0.8287
 1917TIP3    H227167   2.559   2.068   3.697 -1.9158  1.6818 -0.6749
 1918TIP3   OH227168   2.980   1.366  15.798 -0.1781  0.0674 -0.6669
 1918TIP3    H127169   3.076   1.361  15.792 -0.1404  0.3886 -0.3571
 1918TIP3    H227170   2.954   1.282  15.835 -0.0856 -0.3426 -1.4987
 1919TIP3   OH227171   3.912   0.138  11.716 -0.3195  0.0308 -0.4860
 1919TIP3    H127172   3.934   0.201  11.785  1.6537 -0.0681 -0.9597
 1919TIP3    H227173   3.909   0.189  11.636 -2.3450  0.0996 -0.3943
 1920TIP3   OH227174   4.081   1.346  12.735  0.0588  0.0219  0.5769
 1920TIP3    H127175   4.092   1.306  12.649  2.2670 -0.2822  0.9257
 1920TIP3    H227176   3.993   1.320  12.762 -0.6624  0.0624 -1.5291
 1921TIP3   OH227177   4.279   4.198   4.218  0.3492  0.2140 -0.5770
 1921TIP3    H127178   4.219   4.270   4.236  2.3750  1.6262  1.0085
 1921TIP3    H227179   4.254   4.130   4.281 -1.1756 -0.2989 -1.6691
 1922TIP3   OH227180   6.353   3.489   4.157  0.1789  0.5912 -0.0109
 1922TIP3    H127181   6.348   3.394   4.169  1.4821 -0.0296 -3.2723
 1922TIP3    H227182   6.271   3.512   4.113  0.3279  0.7846 -0.1890
 1923TIP3   OH227183   0.898   1.594   0.763 -0.2349  0.1704  0.4668
 1923TIP3    H127184   0.819   1.550   0.795 -1.3785  1.3486 -0.6386
 1923TIP3    H227185   0.900   1.677   0.811 -0.7455  0.9771 -0.8640
 1924TIP3   OH227186   5.081   5.602   6.806  0.0205  0.6675 -0.3962
 1924TIP3    H127187   5.171   5.633   6.817  0.1564  0.1838 -0.1383
 1924TIP3    H227188   5.085   5.508   6.822 -0.9312  0.9752  2.1268
 1925TIP3   OH227189   1.227   2.853   0.424 -0.2668 -0.5398 -0.2600
 1925TIP3    H127190   1.289   2.916   0.388 -0.9574  1.4380  1.7616
 1925TIP3    H227191   1.162   2.907   0.470  0.1898 -2.7200  3.3051
 1926TIP3   OH227192   5.443   5.032   5.631 -0.7269  0.0720  0.0934
 1926TIP3    H127193   5.397   5.085   5.695  0.3423  2.6679 -1.1228
 1926TIP3    H227194   5.527   5.011   5.672 -0.4765  0.8199 -0.0119
 1927TIP3   OH227195   4.753   3.318  15.824 -0.2192 -0.1395 -0.5154
 1927TIP3    H127196   4.717   3.301  15.911  2.2616  1.0743  0.8488
 1927TIP3    H227197   4.770   3.412  15.823 -0.8071 -0.0051 -2.6034
 1928TIP3   OH227198   5.636   5.016  15.231  0.1286  0.1141 -0.3666
 1928TIP3    H127199   5.555   5.065  15.216  0.1659  0.0869 -0.6609
 1928TIP3    H227200   5.694   5.044  15.160  0.5027  0.4065  0.0477
 1929TIP3   OH227201   3.572   2.418  15.403 -0.7146 -0.0912  0.5064
 1929TIP3    H127202   3.538   2.359  15.335 -1.2541 -0.3746  1.0165
 1929TIP3    H227203   3.600   2.496  15.354  0.5065 -0.9625 -0.2366
 1930TIP3   OH227204   1.938   0.272   5.930 -0.1834  0.0097  0.4809
 1930TIP3    H127205   1.848   0.257   5.902  0.2736 -0.0493 -1.0371
 1930TIP3    H227206   1.930   0.314   6.016 -1.6491 -0.0169  0.3776
 1931TIP3   OH227207   1.878   6.103  14.110 -0.2293 -0.1545  0.5062
 1931TIP3    H127208   1.785   6.102  14.130 -0.5895 -0.8432 -1.0341
 1931TIP3    H227209   1.909   6.016  14.137  0.0192  0.1478  1.2075
 1932TIP3   OH227210   1.425   4.054  13.676 -0.4789 -0.7868 -0.5160
 1932TIP3    H127211   1.437   4.087  13.765  2.2583  0.1666 -1.1392
 1932TIP3    H227212   1.425   3.959  13.686 -1.9377 -0.7093  0.6252
 1933TIP3   OH227213   3.455   2.485   4.855 -0.0525  0.5404 -0.0697
 1933TIP3    H127214   3.379   2.527   4.814  0.0734 -0.6852 -1.6489
 1933TIP3    H227215   3.528   2.545   4.836 -0.1937  0.5190 -0.7242
 1934TIP3   OH227216   4.308   4.622  13.157  0.6503 -0.1218 -0.1859
 1934TIP3    H127217   4.262   4.621  13.073 -0.3922 -0.0864  0.3675
 1934TIP3    H227218   4.361   4.702  13.154  0.1267  0.2187 -0.5537
 1935TIP3   OH227219   1.818   5.001   0.337  0.1937  0.4079 -0.3682
 1935TIP3    H127220   1.780   4.915   0.317  0.3851  0.2959 -0.2523
 1935TIP3    H227221   1.758   5.063   0.295  1.2031  0.1483 -2.3345
 1936TIP3   OH227222   4.695   0.265   2.762 -0.8342 -0.5910  0.2987
 1936TIP3    H127223   4.727   0.181   2.793 -1.3071 -1.3301 -1.1212
 1936TIP3    H227224   4.672   0.250   2.670  2.0622  1.8400 -1.0288
 1937TIP3   OH227225   3.698   6.111  13.550 -0.1273  0.0585 -0.1298
 1937TIP3    H127226   3.663   6.124  13.638 -2.6829 -0.2305 -1.0337
 1937TIP3    H227227   3.643   6.166  13.494  1.0640 -0.2251 -1.6334
 1938TIP3   OH227228   3.783   5.199   3.606 -0.0084 -0.1346 -0.0482
 1938TIP3    H127229   3.753   5.151   3.684 -0.2259 -1.1833 -0.7514
 1938TIP3    H227230   3.858   5.148   3.574  0.4991  0.6597 -0.1553
 1939TIP3   OH227231   3.568   1.744   4.022 -0.4193 -0.6306 -0.4248
 1939TIP3    H127232   3.502   1.676   4.036 -0.5271 -0.5757 -0.6510
 1939TIP3    H227233   3.642   1.717   4.076 -1.2485  0.2206  1.2273
 1940TIP3   OH227234   2.526   5.747  16.977  0.0444  0.0332 -0.1822
 1940TIP3    H127235   2.459   5.683  16.999  1.2934 -0.7184  1.6700
 1940TIP3    H227236   2.493   5.830  17.012 -0.2394 -0.1847  0.0724
 1941TIP3   OH227237   6.512   1.032   2.919 -0.1835 -0.0541 -0.5730
 1941TIP3    H127238   6.522   1.101   2.985 -0.5288  1.0709 -1.6602
 1941TIP3    H227239   6.471   0.959   2.967 -1.4375  1.1245  0.2310
 1942TIP3   OH227240   1.042   1.716   4.929  0.2439 -0.2512 -0.4339
 1942TIP3    H127241   0.966   1.665   4.901 -1.4900  1.6892  0.4727
 1942TIP3    H227242   1.014   1.807   4.923  2.1589  0.5008  0.8879
 1943TIP3   OH227243   6.520   3.643  17.029 -0.3062 -0.0436  0.4584
 1943TIP3    H127244   6.516   3.563  16.978  0.3296 -0.2157  0.6716
 1943TIP3    H227245   6.430   3.678  17.028 -0.6741 -0.9654  0.7118
 1944TIP3   OH227246   0.566   0.330  14.303 -0.1964 -0.2031  0.0834
 1944TIP3    H127247   0.575   0.369  14.216  0.1315  1.2612  0.7414
 1944TIP3    H227248   0.550   0.405  14.361  4.1476 -0.4655  2.0222
 1945TIP3   OH227249   6.202   0.886   1.730 -0.0139 -0.0690  0.6004
 1945TIP3    H127250   6.256   0.919   1.802 -1.0607 -1.7242  2.2258
 1945TIP3    H227251   6.231   0.796   1.718 -0.6648 -0.1743 -0.2663
 1946TIP3   OH227252   2.016   3.531  14.742 -0.3488  0.1939 -0.7164
 1946TIP3    H127253   2.055   3.591  14.678  0.8845  1.0223  0.7191
 1946TIP3    H227254   2.067   3.450  14.733  0.5559  0.6748 -0.0695
 1947TIP3   OH227255   0.770   1.087  14.906  0.1667  0.2775 -0.3722
 1947TIP3    H127256   0.711   1.161  14.900  0.2022  0.3917  0.5590
 1947TIP3    H227257   0.766   1.046  14.820 -1.9271 -0.2292 -0.0844
 1948TIP3   OH227258   1.580   5.310  13.802 -0.2917  0.3466 -0.4078
 1948TIP3    H127259   1.563   5.254  13.726  1.8843  0.2090 -0.8825
 1948TIP3    H227260   1.674   5.298  13.818 -0.5976  0.7855  1.9837
 1949TIP3   OH227261   6.110   5.604   4.348 -0.0637  0.3307 -0.2793
 1949TIP3    H127262   6.044   5.664   4.313  0.3176  1.3634  0.7000
 1949TIP3    H227263   6.193   5.650   4.337  0.1735  0.2562  1.0257
 1950TIP3   OH227264   0.841   2.100  15.275 -0.1126 -0.9999 -0.0550
 1950TIP3    H127265   0.818   2.012  15.306  1.0996 -1.1687  0.4173
 1950TIP3    H227266   0.850   2.091  15.180 -2.7337 -0.7354 -0.3907
 1951TIP3   OH227267   3.929   1.062  11.075 -0.1553  0.0872  0.5873
 1951TIP3    H127268   3.884   0.979  11.093  0.5556 -0.6697 -0.9675
 1951TIP3    H227269   3.865   1.129  11.099 -0.9904 -0.9107  1.2577
 1952TIP3   OH227270   6.003   5.966  13.353 -0.1940  0.5234 -0.4401
 1952TIP3    H127271   5.933   5.917  13.310  0.1302  0.0427 -0.4299
 1952TIP3    H227272   6.050   6.010  13.282 -1.5136  2.2283 -0.3225
 1953TIP3   OH227273   1.888   2.093   5.269  0.1899 -0.2997 -0.5823
 1953TIP3    H127274   1.944   2.154   5.318 -0.1452 -0.5369  0.1034
 1953TIP3    H227275   1.863   2.141   5.190 -0.0816  0.4573 -0.0438
 1954TIP3   OH227276   2.159   2.927   2.034  0.2629  0.0302  0.1023
 1954TIP3    H127277   2.139   2.837   2.008  1.1678 -0.4740  1.0641
 1954TIP3    H227278   2.105   2.942   2.111 -1.1467  0.9310 -1.0072
 1955TIP3   OH227279   0.222   3.590   1.110  0.1835  0.2497  0.1640
 1955TIP3    H127280   0.139   3.633   1.127  0.1482 -0.1140  0.9897
 1955TIP3    H227281   0.199   3.498   1.094  0.3814  0.2445 -0.0975
 1956TIP3   OH227282   2.404   5.339   5.640 -0.0300  0.8499 -0.1765
 1956TIP3    H127283   2.433   5.358   5.550  0.1616 -0.0517 -0.3110
 1956TIP3    H227284   2.462   5.392   5.695 -0.6393  2.0013 -0.5957
 1957TIP3   OH227285   5.563   4.226   5.870 -0.1221  0.1397  0.5116
 1957TIP3    H127286   5.647   4.272   5.868 -0.4663  0.7826  0.6989
 1957TIP3    H227287   5.580   4.148   5.923 -0.0498  1.1050  1.9742
 1958TIP3   OH227288   0.301   4.099  13.622  0.0060  0.2186  0.0286
 1958TIP3    H127289   0.280   4.048  13.544 -0.5378  0.1963  0.1820
 1958TIP3    H227290   0.396   4.100  13.626  0.0317  0.0823 -0.5450
 1959TIP3   OH227291   1.805   3.899   6.437 -0.8584  0.1015  0.0080
 1959TIP3    H127292   1.886   3.849   6.448  1.6404  3.4660 -1.3323
 1959TIP3    H227293   1.765   3.864   6.358 -0.1040 -0.8641  0.0379
 1960TIP3   OH227294   0.978   6.021   0.743 -0.2532  0.1304 -0.5084
 1960TIP3    H127295   1.014   6.021   0.654  1.5894 -1.5998  0.1560
 1960TIP3    H227296   1.023   5.949   0.787 -1.6551  0.4690  1.6351
 1961TIP3   OH227297   2.473   4.264  11.862 -0.5359  0.4370  0.5274
 1961TIP3    H127298   2.463   4.185  11.809  1.9696  0.5719 -0.2749
 1961TIP3    H227299   2.460   4.234  11.952 -1.2736 -0.5349  0.1080
 1962TIP3   OH227300   4.055   3.851  16.738 -0.5395 -0.5368  0.0453
 1962TIP3    H127301   3.977   3.830  16.791 -0.7760  0.7185  0.2155
 1962TIP3    H227302   4.021   3.902  16.665  0.0431 -0.6169 -0.2836
 1963TIP3   OH227303   2.721   1.886  15.841 -0.0163 -0.1902 -0.4013
 1963TIP3    H127304   2.749   1.976  15.856  0.2159 -0.4709  0.9360
 1963TIP3    H227305   2.626   1.890  15.838  0.0186  0.2230 -1.2716
 1964TIP3   OH227306   3.497   0.315  17.208  0.4376 -0.2898  0.3506
 1964TIP3    H127307   3.424   0.294  17.150 -0.6928  2.1916  0.7844
 1964TIP3    H227308   3.522   0.231  17.246  0.2355 -1.7724 -2.5322
 1965TIP3   OH227309   4.905   3.036   5.708  0.3254  0.5946 -0.0542
 1965TIP3    H127310   4.843   2.992   5.651 -0.1226  2.7707 -1.3649
 1965TIP3    H227311   4.915   3.123   5.670  1.3794  1.5459  2.2167
 1966TIP3   OH227312   1.473   4.906  15.237 -0.1050 -0.2992  0.0430
 1966TIP3    H127313   1.451   4.813  15.237 -0.4526 -0.2204  0.4208
 1966TIP3    H227314   1.562   4.910  15.271 -0.5866 -0.3894  1.3495
 1967TIP3   OH227315   2.678   5.898   2.847 -0.1229 -0.0299  0.1803
 1967TIP3    H127316   2.719   5.979   2.877  0.2212  0.1219 -0.6709
 1967TIP3    H227317   2.589   5.924   2.821 -0.3794 -0.1381  0.9423
 1968TIP3   OH227318   5.662   2.692   3.616 -0.3455 -0.5134  0.3555
 1968TIP3    H127319   5.667   2.786   3.635 -0.2526 -0.7686  1.7389
 1968TIP3    H227320   5.619   2.687   3.531  1.3791  0.8345 -0.6649
 1969TIP3   OH227321   6.594   6.506   0.586 -0.0209  0.1970 -0.0329
 1969TIP3    H127322   6.537   6.568   0.541  0.7937  0.8140 -0.2428
 1969TIP3    H227323   6.582   6.424   0.538 -0.4417  0.4153 -0.3091
 1970TIP3   OH227324   0.065   5.039  12.978 -0.0861  0.1251 -0.3577
 1970TIP3    H127325  -0.026   5.032  13.009 -0.2348  1.0702 -0.5730
 1970TIP3    H227326   0.082   4.954  12.937 -0.4949 -0.4797  0.6717
 1971TIP3   OH227327   1.795   2.845   2.412 -0.2475  0.2678  0.6268
 1971TIP3    H127328   1.796   2.939   2.426  0.0422  0.4993 -0.7665
 1971TIP3    H227329   1.702   2.821   2.413 -0.4181  0.8227 -0.3906
 1972TIP3   OH227330   1.806   2.628  15.226 -0.0674  0.5177 -0.1329
 1972TIP3    H127331   1.868   2.564  15.191  1.0871  1.1542  0.6774
 1972TIP3    H227332   1.728   2.577  15.248  0.5687 -0.4919 -0.1529
 1973TIP3   OH227333   4.916   5.867  15.750 -0.1795  0.1326  0.1786
 1973TIP3    H127334   4.990   5.924  15.769 -0.1274  0.0399  0.2516
 1973TIP3    H227335   4.927   5.842  15.658 -0.2235  0.2703  0.1344
 1974TIP3   OH227336   4.753   5.278   2.490  0.4074 -0.1392 -0.1852
 1974TIP3    H127337   4.708   5.194   2.497 -1.2846  0.6788 -0.7811
 1974TIP3    H227338   4.836   5.264   2.536 -0.7217 -1.5157  1.5793
 1975TIP3   OH227339   0.404   4.734   0.428  0.1218  0.0281 -0.2926
 1975TIP3    H127340   0.333   4.712   0.488  0.1299 -0.1431 -0.3462
 1975TIP3    H227341   0.435   4.820   0.459  0.0770 -0.0243 -0.0980
 1976TIP3   OH227342   1.702   6.587  13.998  0.0094  0.4040  0.0325
 1976TIP3    H127343   1.757   6.604  13.921  0.0466  0.5014  0.0794
 1976TIP3    H227344   1.664   6.673  14.019 -2.9064 -0.2045 -2.0596
 1977TIP3   OH227345   1.764   2.625   2.652 -0.2979 -0.1749  0.1798
 1977TIP3    H127346   1.817   2.697   2.689  1.8846 -0.5972 -1.8960
 1977TIP3    H227347   1.690   2.670   2.611  0.5477  0.8377 -0.3016
 1978TIP3   OH227348   5.703   4.229   2.399 -0.4568 -0.9826 -0.5389
 1978TIP3    H127349   5.795   4.219   2.376 -0.4388 -2.9112  0.1766
 1978TIP3    H227350   5.660   4.249   2.316  0.7718  1.7029 -0.6186
 1979TIP3   OH227351   4.643   1.233  16.087  0.0489  0.3872  0.1539
 1979TIP3    H127352   4.710   1.188  16.137 -0.2036 -0.0163  0.1337
 1979TIP3    H227353   4.642   1.322  16.122 -2.3024 -0.6519  3.1004
 1980TIP3   OH227354   0.405   1.337  13.421 -0.4441  0.5437  0.3787
 1980TIP3    H127355   0.402   1.242  13.433  0.6011  0.2072 -1.6575
 1980TIP3    H227356   0.451   1.369  13.499 -1.0738 -0.5647  1.2412
 1981TIP3   OH227357   5.159   3.043   1.054 -0.0910  0.6153 -0.4687
 1981TIP3    H127358   5.096   3.041   0.982  0.5524  0.2243 -1.0335
 1981TIP3    H227359   5.241   3.071   1.013  0.4893 -0.4199 -0.0530
 1982TIP3   OH227360   4.706   6.714   5.175  0.4102 -0.1335  0.4552
 1982TIP3    H127361   4.744   6.751   5.254 -0.9694  0.5058  0.8616
 1982TIP3    H227362   4.644   6.648   5.207  1.2779 -1.3038 -0.1870
 1983TIP3   OH227363   1.311   6.300  15.880 -0.5696  0.4395 -0.0203
 1983TIP3    H127364   1.249   6.316  15.809  0.4242  2.4097 -0.5421
 1983TIP3    H227365   1.256   6.277  15.955 -1.6802 -1.1268 -1.2414
 1984TIP3   OH227366   0.321   3.201  16.646 -0.3991 -0.2150 -0.2012
 1984TIP3    H127367   0.363   3.242  16.722 -1.1130  1.0399 -0.4751
 1984TIP3    H227368   0.382   3.216  16.574 -0.8518  0.7677 -0.3927
 1985TIP3   OH227369   3.503   1.961   6.271 -0.0613 -0.0244  0.2449
 1985TIP3    H127370   3.515   1.906   6.348  0.7397 -0.5824 -0.2556
 1985TIP3    H227371   3.528   1.905   6.197  1.3801  1.1526 -0.2333
 1986TIP3   OH227372   0.653   6.667  10.709 -0.3004  0.0422 -0.1288
 1986TIP3    H127373   0.721   6.667  10.642 -0.0048  1.4243  0.1477
 1986TIP3    H227374   0.634   6.760  10.724 -2.7096 -0.3115 -0.6554
 1987TIP3   OH227375   2.512   0.468   1.407 -0.5839 -0.0171  0.0240
 1987TIP3    H127376   2.598   0.462   1.366 -1.3061 -0.9274 -1.4470
 1987TIP3    H227377   2.497   0.561   1.420 -0.1154  0.2702 -1.3720
 1988TIP3   OH227378   5.681   6.175  14.887 -0.5804 -0.1243  0.1461
 1988TIP3    H127379   5.599   6.218  14.909 -1.0322  0.6531 -2.6364
 1988TIP3    H227380   5.748   6.241  14.903 -0.9402  0.5710 -1.0439
 1989TIP3   OH227381   6.043   4.708   6.928  0.0944 -0.2713 -0.3156
 1989TIP3    H127382   6.063   4.643   6.995 -1.8454 -0.7608 -0.1662
 1989TIP3    H227383   6.110   4.695   6.862  0.6290 -1.4025  0.4133
 1990TIP3   OH227384   5.556   5.779  15.586 -0.0923  0.1236 -0.1883
 1990TIP3    H127385   5.484   5.739  15.539  0.8525 -1.9542  0.0102
 1990TIP3    H227386   5.629   5.717  15.575  0.9158  0.8879  1.7273
 1991TIP3   OH227387   4.884   1.410   1.666  0.0644 -0.3103 -0.4709
 1991TIP3    H127388   4.881   1.340   1.731  1.3734  0.2168  0.1785
 1991TIP3    H227389   4.885   1.364   1.582  1.4072 -1.1034 -0.0460
 1992TIP3   OH227390   5.804   2.003  10.863 -0.6621 -0.3912 -0.2827
 1992TIP3    H127391   5.882   2.037  10.907 -2.0683  2.8567 -0.0251
 1992TIP3    H227392   5.835   1.977  10.776  0.8054  0.3194 -0.0019
 1993TIP3   OH227393   0.899   1.300  11.484  0.3344  0.6519 -0.3140
 1993TIP3    H127394   0.893   1.292  11.579 -0.4832 -1.2199 -0.4784
 1993TIP3    H227395   0.812   1.273  11.452  0.3319  2.0064 -1.5714
 1994TIP3   OH227396   0.734   4.884   0.751 -0.3542  0.5019  0.3046
 1994TIP3    H127397   0.682   4.822   0.801 -0.0419  0.5595  0.7090
 1994TIP3    H227398   0.824   4.851   0.758 -0.4711 -0.3141 -1.4377
 1995TIP3   OH227399   2.580   0.856   5.723 -0.2583 -0.6533 -0.2142
 1995TIP3    H127400   2.608   0.769   5.752 -0.8762 -0.5428  0.7594
 1995TIP3    H227401   2.485   0.854   5.732 -0.1482  0.8869  2.1099
 1996TIP3   OH227402   2.098   6.330  16.972  0.0011  0.0709 -0.0517
 1996TIP3    H127403   2.011   6.359  16.945 -0.7991 -0.8435  1.3915
 1996TIP3    H227404   2.116   6.381  17.052 -0.7710 -2.1453  1.6494
 1997TIP3   OH227405   3.226   2.347   5.529 -0.4662 -0.0845  0.9414
 1997TIP3    H127406   3.310   2.305   5.549  0.8864  1.9569 -0.0745
 1997TIP3    H227407   3.251   2.430   5.488 -3.0140  0.5488  0.5563
 1998TIP3   OH227408   4.670   4.400   0.827 -0.5038 -0.5081 -0.2783
 1998TIP3    H127409   4.633   4.432   0.745 -2.3858 -0.8444  0.3871
 1998TIP3    H227410   4.710   4.477   0.867  1.9697 -0.6686 -2.2251
 1999TIP3   OH227411   1.314   3.491  16.889 -0.2240 -0.0462  0.2791
 1999TIP3    H127412   1.392   3.456  16.846  0.2679 -0.1117  1.1866
 1999TIP3    H227413   1.303   3.578  16.852  0.2679 -0.0476  0.1237
 2000TIP3   OH227414   2.622   5.543  15.650  0.2548  0.1470 -0.4311
 2000TIP3    H127415   2.709   5.546  15.610 -0.4882 -2.0928 -2.4882
 2000TIP3    H227416   2.627   5.470  15.712  0.6420  1.9502  1.7632
 2001TIP3   OH227417   2.972   4.303   1.793 -0.3887 -0.2282  0.2961
 2001TIP3    H127418   2.961   4.209   1.786 -1.2387 -0.0066 -2.2284
 2001TIP3    H227419   3.062   4.320   1.764 -0.5482 -0.1907 -0.1827
 2002TIP3   OH227420   1.025   6.483   0.753 -0.4811 -0.1807 -0.0638
 2002TIP3    H127421   1.027   6.422   0.680 -1.0552 -2.7204  1.9175
 2002TIP3    H227422   1.092   6.450   0.813 -1.0564  0.9395  1.2368
 2003TIP3   OH227423   6.591   1.399   2.978  0.2605  0.4239  0.1608
 2003TIP3    H127424   6.519   1.351   3.019 -1.3671  1.9651 -0.7880
 2003TIP3    H227425   6.563   1.413   2.888  2.9906 -1.3290 -1.0893
 2004TIP3   OH227426   2.976   3.584   0.307 -0.0842 -0.0703  0.3611
 2004TIP3    H127427   2.919   3.640   0.360 -1.4721 -0.9292 -0.1848
 2004TIP3    H227428   3.014   3.644   0.242 -2.1205  0.1572 -0.6856
 2005TIP3   OH227429   6.509   4.333   2.608  0.5252  0.2352 -0.3325
 2005TIP3    H127430   6.548   4.416   2.581  0.3374  0.0797 -1.1015
 2005TIP3    H227431   6.418   4.354   2.628  0.6093  0.3072 -0.0105
 2006TIP3   OH227432   2.660   5.623  10.767 -0.0293 -0.0737  0.2460
 2006TIP3    H127433   2.642   5.529  10.768 -2.3632  0.2157  3.8707
 2006TIP3    H227434   2.756   5.629  10.765  0.3080 -2.6817  2.5025
 2007TIP3   OH227435   3.072   1.118   4.348 -0.1359  0.1776  0.1623
 2007TIP3    H127436   3.054   1.074   4.264  0.1566  1.4216 -0.5852
 2007TIP3    H227437   3.079   1.211   4.325 -2.5233  0.9112  1.9339
 2008TIP3   OH227438   1.428   5.106   6.490  0.1318 -0.1555  0.1245
 2008TIP3    H127439   1.447   5.065   6.574  0.6006 -1.3187 -0.5159
 2008TIP3    H227440   1.388   5.190   6.512 -0.0964 -0.6017  1.4988
 2009TIP3   OH227441   0.807   5.359   1.091 -0.1346  0.2820  0.5575
 2009TIP3    H127442   0.896   5.325   1.104  0.2080  0.8481 -0.2734
 2009TIP3    H227443   0.763   5.292   1.040 -0.4631 -0.3923  1.6757
 2010TIP3   OH227444   3.757   4.111  11.773  0.0255 -0.5128 -0.2425
 2010TIP3    H127445   3.744   4.158  11.856 -1.5144 -1.8397  0.3048
 2010TIP3    H227446   3.849   4.086  11.774  0.7545  1.8775 -0.2604
 2011TIP3   OH227447   4.281   3.549  14.291  0.0359 -0.0921 -0.4458
 2011TIP3    H127448   4.212   3.570  14.354  0.0796  1.4044 -0.8490
 2011TIP3    H227449   4.355   3.604  14.316 -0.0303  0.7366 -1.9150
 2012TIP3   OH227450   2.823   6.394  15.636  0.4866 -0.2073  0.5549
 2012TIP3    H127451   2.763   6.439  15.696  0.9982  1.8846 -0.4143
 2012TIP3    H227452   2.775   6.391  15.553  0.6702 -1.0227  0.4720
 2013TIP3   OH227453   3.664   3.388  17.094  0.2679  0.0148  0.4433
 2013TIP3    H127454   3.711   3.452  17.041 -0.0712  0.3077  0.4960
 2013TIP3    H227455   3.688   3.303  17.056 -0.3946  0.2447 -0.5263
 2014TIP3   OH227456   2.768   6.539   5.241  0.7104  0.1920  0.3268
 2014TIP3    H127457   2.804   6.487   5.169  0.0687  1.2221 -0.8007
 2014TIP3    H227458   2.673   6.529   5.233  0.6274  0.4246  0.9459
 2015TIP3   OH227459   2.611   2.145   3.385  0.4297 -0.1152  0.6656
 2015TIP3    H127460   2.559   2.079   3.339  0.5571  0.6877 -0.7071
 2015TIP3    H227461   2.675   2.095   3.436  0.6988 -1.0633 -0.5572
 2016TIP3   OH227462   4.045   2.838  15.673 -0.5259  0.4611 -1.1262
 2016TIP3    H127463   3.960   2.799  15.695 -0.9534  1.2177 -1.4036
 2016TIP3    H227464   4.109   2.780  15.713 -1.2038  0.4088 -0.0774
 2017TIP3   OH227465   3.017   5.984   2.724  0.0036 -0.4462  0.4413
 2017TIP3    H127466   2.981   6.003   2.637  1.7360 -1.4661 -0.5499
 2017TIP3    H227467   3.029   5.889   2.725  1.5056 -0.2823  1.1756
 2018TIP3   OH227468   2.265   3.812   0.774 -0.4152  0.3716  0.3882
 2018TIP3    H127469   2.335   3.770   0.725 -1.1699 -0.4132 -0.0471
 2018TIP3    H227470   2.206   3.740   0.798 -0.6421  0.8930  1.4777
 2019TIP3   OH227471   0.830   4.191   1.680  0.1017 -0.1439 -0.4337
 2019TIP3    H127472   0.777   4.133   1.733 -0.3459  0.4868 -0.1780
 2019TIP3    H227473   0.917   4.150   1.678  0.6545  0.6838  2.2628
 2020TIP3   OH227474   2.603   0.586  14.117  0.3945  0.4893  0.0088
 2020TIP3    H127475   2.603   0.490  14.127  0.0615  0.6302  1.6360
 2020TIP3    H227476   2.529   0.604  14.060 -0.2282 -0.1647  0.5805
 2021TIP3   OH227477   2.420   3.160   5.838  0.0643  0.7997  0.0238
 2021TIP3    H127478   2.444   3.252   5.833  3.3362  0.0171 -2.4028
 2021TIP3    H227479   2.490   3.119   5.888  0.0600 -0.6547 -1.0758
 2022TIP3   OH227480   2.024   5.210  13.184 -0.1032 -0.3482  0.1589
 2022TIP3    H127481   2.000   5.249  13.100 -2.4304  1.1633  1.4263
 2022TIP3    H227482   2.067   5.280  13.232 -0.7722 -0.4913  1.0044
 2023TIP3   OH227483   4.745   3.235   1.851  0.4569 -0.0659 -0.4911
 2023TIP3    H127484   4.666   3.191   1.820 -1.1214  2.9983 -1.1517
 2023TIP3    H227485   4.771   3.293   1.779  2.2559  0.3524  0.4275
 2024TIP3   OH227486   2.507   0.581   2.387  0.1051 -0.7911 -0.5225
 2024TIP3    H127487   2.474   0.670   2.381  2.0503  0.2478  2.2952
 2024TIP3    H227488   2.561   0.571   2.309 -0.0901  0.5067 -0.8512
 2025TIP3   OH227489   0.153   5.720  10.962  0.0451 -0.1116 -0.0939
 2025TIP3    H127490   0.146   5.627  10.940  2.1768 -0.0742 -1.1647
 2025TIP3    H227491   0.158   5.765  10.878  1.6314  0.6948  0.3898
 2026TIP3   OH227492   2.598   2.582  15.107  0.4010  0.4032  0.1281
 2026TIP3    H127493   2.681   2.629  15.114  0.1824  0.8421 -0.1616
 2026TIP3    H227494   2.540   2.643  15.061 -0.3041  0.3973  0.9778
 2027TIP3   OH227495   3.689   5.278  15.793  0.4994 -0.4541  0.2422
 2027TIP3    H127496   3.613   5.249  15.844 -0.3254  0.2422 -0.5309
 2027TIP3    H227497   3.705   5.207  15.732  0.5589 -0.6744  0.5175
 2028TIP3   OH227498   0.877   4.231   5.459  0.5142  0.2366  1.0640
 2028TIP3    H127499   0.820   4.300   5.427  2.4469  0.1374 -3.2449
 2028TIP3    H227500   0.893   4.253   5.551 -3.4094  2.2133  1.4535
 2029TIP3   OH227501   1.048   4.526   5.941  0.0112  0.4568 -0.2829
 2029TIP3    H127502   1.037   4.604   5.887 -1.3419  0.2391 -0.3564
 2029TIP3    H227503   1.036   4.558   6.031  0.5884  0.5159 -0.2189
 2030TIP3   OH227504   4.136   2.933  12.493  0.0048 -0.1701 -0.9863
 2030TIP3    H127505   4.061   2.938  12.552  0.6651  0.4569 -0.1747
 2030TIP3    H227506   4.098   2.921  12.406 -1.2461  3.1833 -1.0655
 2031TIP3   OH227507   3.979   0.297  11.945 -0.2949  0.1560  0.2846
 2031TIP3    H127508   4.025   0.373  11.981 -1.9218  1.3745 -0.1196
 2031TIP3    H227509   3.948   0.249  12.022  0.5225  0.0223  0.5388
 2032TIP3   OH227510   2.698   1.519  16.194  0.0331 -0.3976 -0.6190
 2032TIP3    H127511   2.733   1.608  16.184  0.8274 -0.6494 -0.1309
 2032TIP3    H227512   2.625   1.516  16.132 -2.0234  1.6019  1.4839
 2033TIP3   OH227513   0.807   4.928  15.372 -0.3951  0.4890 -0.4354
 2033TIP3    H127514   0.803   4.887  15.458  3.3965  1.1846  0.2514
 2033TIP3    H227515   0.835   4.858  15.314  0.4717  0.7648 -0.3696
 2034TIP3   OH227516   3.428   5.271  14.690  0.2152 -0.4416  0.1567
 2034TIP3    H127517   3.456   5.182  14.711 -0.9706 -1.0027 -0.5306
 2034TIP3    H227518   3.413   5.270  14.596 -2.5330 -0.3580  0.5138
 2035TIP3   OH227519   4.672   2.551  15.319  0.8705 -0.5291  0.2128
 2035TIP3    H127520   4.624   2.486  15.268 -0.4306  1.6802 -1.5577
 2035TIP3    H227521   4.619   2.563  15.398  0.0336 -0.1696 -0.3957
 2036TIP3   OH227522   4.754   0.585   5.594 -0.7928  0.3107  0.1268
 2036TIP3    H127523   4.681   0.529   5.566 -1.2101  0.2406  1.2803
 2036TIP3    H227524   4.760   0.571   5.689  2.0386 -1.2233 -0.1711
 2037TIP3   OH227525   0.357   5.287   0.160 -0.5340  0.0827  0.6517
 2037TIP3    H127526   0.279   5.231   0.162  0.1822 -0.9096  2.5548
 2037TIP3    H227527   0.324   5.375   0.181 -1.2770 -0.1212  0.3768
 2038TIP3   OH227528   3.394   2.618   1.384 -1.2861 -0.2888 -0.3494
 2038TIP3    H127529   3.358   2.676   1.451  0.8450  0.4050  0.2815
 2038TIP3    H227530   3.353   2.647   1.303  0.1247  2.5866 -0.1522
 2039TIP3   OH227531   3.550   5.592   5.823 -0.1059  0.1961 -0.2022
 2039TIP3    H127532   3.513   5.646   5.893 -2.3621 -1.0705 -0.3216
 2039TIP3    H227533   3.610   5.533   5.869 -1.0239 -0.1472  0.5983
 2040TIP3   OH227534   2.090   0.282  15.280 -0.2020  0.1983  0.0746
 2040TIP3    H127535   2.107   0.188  15.292 -1.2667 -0.0760 -0.4471
 2040TIP3    H227536   2.140   0.306  15.202 -0.5043 -0.1079 -0.2170
 2041TIP3   OH227537   4.006   2.970   0.521  0.5051 -0.3620 -0.8206
 2041TIP3    H127538   3.961   2.913   0.458 -1.7452  0.7424 -0.3147
 2041TIP3    H227539   3.940   3.033   0.548  1.7441 -0.0060  1.7144
 2042TIP3   OH227540   5.300   1.725  16.782 -0.4032 -0.1433 -0.1738
 2042TIP3    H127541   5.315   1.659  16.715 -0.9728  0.0178 -0.4624
 2042TIP3    H227542   5.388   1.756  16.805 -0.1666 -0.6527 -0.3809
 2043TIP3   OH227543   6.293   3.850   1.493  0.5802 -0.3002 -0.2386
 2043TIP3    H127544   6.345   3.863   1.414 -0.7454 -0.4162 -1.1645
 2043TIP3    H227545   6.226   3.919   1.490 -0.8863 -1.6597 -0.4410
 2044TIP3   OH227546   6.086   0.490   5.948  0.1926  0.3772  0.3319
 2044TIP3    H127547   6.130   0.406   5.936 -1.1012 -0.7664  2.8227
 2044TIP3    H227548   6.137   0.552   5.896  0.9156 -1.9902 -1.9927
 2045TIP3   OH227549   1.000   4.104  12.486 -0.2954 -0.1005  0.1424
 2045TIP3    H127550   0.934   4.035  12.480 -0.2332 -0.1672  0.2388
 2045TIP3    H227551   1.005   4.139  12.397 -1.7490  1.1016  0.4944
 2046TIP3   OH227552   4.119   2.411  14.614 -0.1882 -0.2509 -0.1385
 2046TIP3    H127553   4.154   2.350  14.678  0.3237 -1.7215 -1.7710
 2046TIP3    H227554   4.187   2.477  14.603  0.8304 -1.4193 -1.0434
 2047TIP3   OH227555   2.861   5.264   5.619  0.4339 -0.5665  0.3629
 2047TIP3    H127556   2.782   5.213   5.634  0.4210 -0.8507 -0.5863
 2047TIP3    H227557   2.910   5.257   5.701 -0.7062 -0.0259  1.1155
 2048TIP3   OH227558   1.541   3.495  16.253 -0.5804  0.0570 -0.0394
 2048TIP3    H127559   1.586   3.546  16.186  1.3847  0.7795  1.7012
 2048TIP3    H227560   1.455   3.476  16.216  0.3002  0.6745 -2.5913
 2049TIP3   OH227561   1.004   4.442   0.572 -0.5446  0.1365  0.2125
 2049TIP3    H127562   1.091   4.417   0.605  0.2578  3.0322  0.5737
 2049TIP3    H227563   0.987   4.526   0.613 -2.9587  0.2651 -0.9410
 2050TIP3   OH227564   2.462   5.162   0.149 -0.1457 -0.2155  0.6194
 2050TIP3    H127565   2.541   5.170   0.097  1.7565  2.2683  3.5665
 2050TIP3    H227566   2.391   5.159   0.084  2.1008  0.9066 -2.1044
 2051TIP3   OH227567   1.958   5.778   2.027 -0.2884 -0.3590  0.1474
 2051TIP3    H127568   1.889   5.841   2.050 -0.6592 -0.3977 -0.8045
 2051TIP3    H227569   2.038   5.830   2.025 -0.5288  0.0010 -0.2208
 2052TIP3   OH227570   2.604   3.718  15.294 -0.3338  0.6151 -0.2905
 2052TIP3    H127571   2.668   3.746  15.359  0.2456  0.3949 -0.7621
 2052TIP3    H227572   2.519   3.744  15.331  0.1189  2.3708 -0.3874
 2053TIP3   OH227573   1.630   5.537   1.729 -0.7182  0.1299  0.1259
 2053TIP3    H127574   1.687   5.525   1.805 -0.2272  0.5740 -0.1618
 2053TIP3    H227575   1.605   5.629   1.731  0.5244  0.5348 -1.0669
 2054TIP3   OH227576   2.734   0.900  11.903  0.1046 -0.4184 -0.1303
 2054TIP3    H127577   2.735   0.957  11.980  0.5109 -1.1369  0.3997
 2054TIP3    H227578   2.822   0.908  11.866 -0.6130  1.4313 -1.6795
 2055TIP3   OH227579   2.394   3.007  14.553  0.1543 -0.1471  0.3952
 2055TIP3    H127580   2.472   2.976  14.508  1.2512  0.0081  2.0975
 2055TIP3    H227581   2.423   3.023  14.643 -1.6612  0.6540  0.8815
 2056TIP3   OH227582   5.756   3.577   3.389  0.5856 -0.8843 -1.0027
 2056TIP3    H127583   5.778   3.540   3.304  0.7653 -1.3936 -0.7380
 2056TIP3    H227584   5.669   3.542   3.408  0.5174 -0.7181 -1.0061
 2057TIP3   OH227585   5.914   6.623  15.347  0.3044 -0.5283  0.1227
 2057TIP3    H127586   5.849   6.555  15.367  0.4964  0.0234  3.0451
 2057TIP3    H227587   5.866   6.705  15.357  0.8451 -0.1757 -0.1779
 2058TIP3   OH227588   6.737   3.140   3.458  0.4694  0.0183 -0.1084
 2058TIP3    H127589   6.740   3.212   3.396 -1.0504 -0.2177 -0.4954
 2058TIP3    H227590   6.731   3.182   3.543  1.9611  0.3387 -0.1302
 2059TIP3   OH227591   0.289   1.598   3.480 -0.9360 -0.1158 -0.0503
 2059TIP3    H127592   0.221   1.551   3.529  0.2014  0.0009  1.6957
 2059TIP3    H227593   0.350   1.530   3.452 -0.1863  0.0995  1.0148
 2060TIP3   OH227594   5.401   4.659  12.127  0.1084 -0.1305  0.1961
 2060TIP3    H127595   5.360   4.574  12.111  2.5084 -1.1479 -0.8834
 2060TIP3    H227596   5.403   4.701  12.042  0.0787  0.4988  0.4990
 2061TIP3   OH227597   1.471   6.355  11.390 -0.7583  0.3865 -0.5120
 2061TIP3    H127598   1.418   6.422  11.433 -1.1290  2.6870 -4.0951
 2061TIP3    H227599   1.519   6.403  11.322  2.0976 -2.4373 -0.7338
 2062TIP3   OH227600   4.796   2.133   1.958  0.1438  0.3190  0.3778
 2062TIP3    H127601   4.869   2.169   2.006 -0.6495  2.2845  0.1854
 2062TIP3    H227602   4.835   2.068   1.899  1.5526  0.5038  1.0784
 2063TIP3   OH227603   0.020   3.254   0.838  0.6536  0.5725 -0.1985
 2063TIP3    H127604  -0.019   3.187   0.894  2.0959  0.0049  0.1689
 2063TIP3    H227605   0.047   3.207   0.760  0.4243  0.9930 -0.5330
 2064TIP3   OH227606   3.105   2.301   4.367 -0.1766 -0.7115  0.4886
 2064TIP3    H127607   3.045   2.288   4.440 -1.2067 -3.2993 -0.6921
 2064TIP3    H227608   3.162   2.224   4.369  3.2687  1.6382  1.5735
 2065TIP3   OH227609   4.680   3.206   4.115 -0.4350  0.0583  0.5522
 2065TIP3    H127610   4.756   3.192   4.059 -0.1745  0.6554  0.7461
 2065TIP3    H227611   4.653   3.118   4.142  0.0361 -0.1692  0.2854
 2066TIP3   OH227612   1.580   3.973  14.453  0.6912  0.3657 -0.0800
 2066TIP3    H127613   1.515   4.015  14.509  0.1383 -0.1368 -0.3211
 2066TIP3    H227614   1.649   3.944  14.513 -0.5287 -1.3761  0.5816
 2067TIP3   OH227615   2.171   5.193   5.593 -0.6248 -0.5230  0.6953
 2067TIP3    H127616   2.243   5.255   5.605  1.1482 -1.8570 -1.9628
 2067TIP3    H227617   2.093   5.248   5.587  0.4849  1.1974  1.2822
 2068TIP3   OH227618   3.001   0.988  12.864  0.4745  0.2352  0.4859
 2068TIP3    H127619   2.974   1.080  12.861  2.5065  0.9013  1.1859
 2068TIP3    H227620   3.002   0.967  12.958 -0.5977 -0.7296  0.3041
 2069TIP3   OH227621   1.698   3.212  13.794  0.2889 -0.3860 -0.2345
 2069TIP3    H127622   1.753   3.134  13.790  0.1379 -0.4503 -1.1825
 2069TIP3    H227623   1.697   3.246  13.704 -0.7220 -0.0442 -0.1034
 2070TIP3   OH227624   0.511   2.439   4.380  0.3764  0.6318  0.1888
 2070TIP3    H127625   0.551   2.497   4.316  0.1687  0.5229 -0.0430
 2070TIP3    H227626   0.456   2.496   4.434  1.8772  1.0236  1.3964
 2071TIP3   OH227627   1.156   4.229   1.266  0.2977  0.5266 -0.1469
 2071TIP3    H127628   1.167   4.301   1.328  2.0070 -1.4154  2.0053
 2071TIP3    H227629   1.104   4.164   1.314 -0.1709 -0.1886 -1.5670
 2072TIP3   OH227630   4.476   4.658   3.268  0.7072 -0.2809 -0.2312
 2072TIP3    H127631   4.554   4.626   3.315  1.2856  1.5753  0.1490
 2072TIP3    H227632   4.494   4.638   3.176  2.6791  1.9505 -0.4340
 2073TIP3   OH227633   4.864   5.019   3.943  0.1150  0.5982 -0.1264
 2073TIP3    H127634   4.918   5.027   4.022 -0.3262  1.8466  0.0767
 2073TIP3    H227635   4.797   4.955   3.967  0.2864  0.5814  0.3298
 2074TIP3   OH227636   4.432   6.349   3.252  0.3554  0.3256  0.0592
 2074TIP3    H127637   4.384   6.410   3.197 -1.7201 -0.5645  0.7849
 2074TIP3    H227638   4.371   6.276   3.266  2.3382 -1.4279  0.0936
 2075TIP3   OH227639   5.694   2.632   1.570 -0.3092  0.1297 -0.0092
 2075TIP3    H127640   5.689   2.631   1.474 -0.5972 -0.2972  0.0081
 2075TIP3    H227641   5.753   2.560   1.591  0.6828  0.9404  0.0917
 2076TIP3   OH227642   3.723   2.193   0.190 -0.0786 -0.0637  0.5292
 2076TIP3    H127643   3.728   2.145   0.273  1.1003  0.3600  0.7306
 2076TIP3    H227644   3.719   2.285   0.216 -1.7276  0.0041  0.1345
 2077TIP3   OH227645   1.235   5.437   4.931  0.5261  0.2732  0.0901
 2077TIP3    H127646   1.259   5.389   4.851  2.2233 -1.1317  1.3628
 2077TIP3    H227647   1.241   5.530   4.905 -0.7618 -0.1253 -1.8650
 2078TIP3   OH227648   2.356   4.607  16.125  0.4928 -0.5109  0.2323
 2078TIP3    H127649   2.268   4.625  16.091  0.9317  1.1518 -0.0972
 2078TIP3    H227650   2.405   4.686  16.107  1.7127 -0.9188  1.6037
 2079TIP3   OH227651   4.776   3.503  10.812 -0.0524 -0.4805 -0.4496
 2079TIP3    H127652   4.736   3.549  10.738 -1.1489 -0.0874  0.3544
 2079TIP3    H227653   4.812   3.573  10.867  1.1471 -0.7935 -0.8043
 2080TIP3   OH227654   3.515   4.421  11.113  0.3463 -0.4337 -0.7051
 2080TIP3    H127655   3.494   4.419  11.019  0.2249 -1.0117 -0.6686
 2080TIP3    H227656   3.433   4.398  11.156  1.0134 -2.7307 -0.5590
 2081TIP3   OH227657   0.930   1.992   5.148  0.3488 -0.2155  0.2177
 2081TIP3    H127658   1.014   1.945   5.151  0.9415  0.8377  0.7404
 2081TIP3    H227659   0.931   2.037   5.063  1.2856  1.4759  1.0794
 2082TIP3   OH227660   3.907   3.015  16.482 -0.2301  0.1069  0.3474
 2082TIP3    H127661   3.925   3.082  16.548  0.3702  0.5172 -0.2255
 2082TIP3    H227662   3.826   3.044  16.440 -0.2421  0.2041  0.4376
 2083TIP3   OH227663   6.646   4.580   3.545  0.4501  0.7777  0.3439
 2083TIP3    H127664   6.566   4.556   3.591  0.1887  0.2078 -0.4099
 2083TIP3    H227665   6.631   4.555   3.454  2.1604 -1.0964  0.5002
 2084TIP3   OH227666   1.213   4.102   0.252 -0.4416  0.4075 -0.1833
 2084TIP3    H127667   1.129   4.071   0.287  1.0820 -2.8119  1.0870
 2084TIP3    H227668   1.229   4.185   0.296 -0.7467 -1.3028  3.5686
 2085TIP3   OH227669   3.679   6.446  12.565 -0.3541  0.0132  0.1922
 2085TIP3    H127670   3.672   6.441  12.469  0.8027 -4.6157  0.1192
 2085TIP3    H227671   3.771   6.464  12.582 -0.4580  0.2936  0.4807
 2086TIP3   OH227672   5.325   0.478   1.743  0.2951 -0.9065 -0.5119
 2086TIP3    H127673   5.357   0.529   1.818  0.1004 -0.8368 -0.4749
 2086TIP3    H227674   5.395   0.415   1.724 -0.1211 -1.6720  0.4312
 2087TIP3   OH227675   1.495   1.894   6.058 -0.1435  0.0083 -0.9433
 2087TIP3    H127676   1.572   1.857   6.014 -0.2904 -0.3145 -0.9273
 2087TIP3    H227677   1.497   1.987   6.034  1.2094  0.3815  0.4054
 2088TIP3   OH227678   1.329   4.559   1.611  0.7397 -0.1115 -0.2578
 2088TIP3    H127679   1.382   4.500   1.557 -0.4227 -1.4961  0.0488
 2088TIP3    H227680   1.333   4.521   1.699 -0.1119  0.1870 -0.0785
 2089TIP3   OH227681   6.350   0.248   2.567  0.1215 -0.2611 -0.2765
 2089TIP3    H127682   6.320   0.166   2.526 -0.6557 -0.7030  1.0970
 2089TIP3    H227683   6.312   0.317   2.513 -0.2737 -0.8212 -0.7300
 2090TIP3   OH227684   6.057   3.166  12.820 -0.1119 -0.4786 -0.0701
 2090TIP3    H127685   5.987   3.153  12.755  1.2883 -1.1242 -1.5081
 2090TIP3    H227686   6.095   3.251  12.799  0.6892 -0.9208 -0.4637
 2091TIP3   OH227687   5.058   6.359  12.083  0.4430 -0.5753 -0.7618
 2091TIP3    H127688   5.104   6.432  12.124  0.5406 -0.3448 -1.2731
 2091TIP3    H227689   5.097   6.352  11.995 -0.1552 -0.6858 -1.0246
 2092TIP3   OH227690   5.199   4.310   6.581  0.1489 -0.1224  0.1966
 2092TIP3    H127691   5.224   4.250   6.651  1.8729  0.0121 -0.2760
 2092TIP3    H227692   5.144   4.375   6.624 -0.2319 -0.9942  1.0689
 2093TIP3   OH227693   2.909   0.906   0.582  0.2184 -0.6248  0.1525
 2093TIP3    H127694   2.822   0.929   0.613 -0.3915 -3.2659  0.5984
 2093TIP3    H227695   2.902   0.815   0.553  3.2523 -1.6238  2.0732
 2094TIP3   OH227696   1.784   5.812   5.776  1.0691 -0.2861 -0.2488
 2094TIP3    H127697   1.873   5.816   5.740  1.7799 -0.1914  1.4097
 2094TIP3    H227698   1.768   5.718   5.787  2.1843 -0.2911  2.1231
 2095TIP3   OH227699   6.149   3.437  12.486  0.6213 -0.6758  0.6617
 2095TIP3    H127700   6.138   3.432  12.581  1.9242 -1.5377  0.7959
 2095TIP3    H227701   6.242   3.419  12.472  0.8670  1.3221 -0.6633
 2096TIP3   OH227702   3.097   4.612  14.414 -0.3153 -0.5899 -0.6554
 2096TIP3    H127703   3.109   4.623  14.509  0.3048  1.2975 -0.9227
 2096TIP3    H227704   3.185   4.593  14.381 -0.3811 -0.3612 -0.9641
 2097TIP3   OH227705   2.656   2.012   0.795  0.6332  0.0390 -0.1327
 2097TIP3    H127706   2.678   1.931   0.840  0.3729 -0.6058 -1.1365
 2097TIP3    H227707   2.712   2.012   0.717 -1.9589 -1.0988 -2.1608
 2098TIP3   OH227708   3.895   2.472  16.691 -0.2446 -0.5975  0.2223
 2098TIP3    H127709   3.981   2.511  16.679 -0.7300  0.1190 -1.1967
 2098TIP3    H227710   3.835   2.546  16.697 -0.7476 -1.0788  1.5792
 2099TIP3   OH227711   1.466   0.664   6.552  0.2569  0.5995 -0.3540
 2099TIP3    H127712   1.488   0.736   6.492  0.7726  1.7001  1.0971
 2099TIP3    H227713   1.380   0.686   6.586  0.3706  0.4724  0.0187
 2100TIP3   OH227714   5.262   5.539  15.203 -0.1738  1.1327  0.0950
 2100TIP3    H127715   5.200   5.542  15.130  0.2167  1.5596 -0.2261
 2100TIP3    H227716   5.332   5.481  15.173  0.1495  1.5707 -0.0057
 2101TIP3   OH227717   2.298   5.208  15.320 -0.5570 -0.2481  0.4222
 2101TIP3    H127718   2.298   5.152  15.241  1.3492 -1.0781  0.9519
 2101TIP3    H227719   2.251   5.286  15.293  0.6231 -0.2059 -1.8096
 2102TIP3   OH227720   4.856   5.128  14.490 -1.0171 -0.6250 -0.6971
 2102TIP3    H127721   4.895   5.171  14.413  0.5025 -0.1138  0.3073
 2102TIP3    H227722   4.770   5.168  14.498 -0.3260  0.9807 -0.8481
 2103TIP3   OH227723   1.704   4.526   3.814  0.0573  0.0769  0.8215
 2103TIP3    H127724   1.666   4.593   3.870 -5.0003  0.4708 -2.4361
 2103TIP3    H227725   1.736   4.574   3.738 -1.6541 -0.8626 -0.5799
 2104TIP3   OH227726   0.331   6.222  10.554 -0.0237  0.2364 -0.6946
 2104TIP3    H127727   0.397   6.266  10.501  0.5723  1.1338  0.7614
 2104TIP3    H227728   0.380   6.157  10.605 -0.3973  0.2763 -0.2786
 2105TIP3   OH227729   1.899   4.716  16.161 -0.4742 -0.0126  0.6491
 2105TIP3    H127730   1.810   4.751  16.159  0.4820  2.5792 -0.4559
 2105TIP3    H227731   1.890   4.632  16.206 -3.2948  0.6626  1.5792
 2106TIP3   OH227732   1.013   4.506  14.635  0.1646 -0.2120  0.2436
 2106TIP3    H127733   1.018   4.595  14.600 -0.9868  0.1727  1.0091
 2106TIP3    H227734   1.009   4.450  14.557  2.5294  0.2375 -0.2837
 2107TIP3   OH227735   0.555   6.308  13.578  0.0014  0.4920  0.4686
 2107TIP3    H127736   0.605   6.227  13.573  1.4302  1.3183  1.0203
 2107TIP3    H227737   0.477   6.284  13.628  1.2728 -0.1298  2.2307
 2108TIP3   OH227738   2.984   4.921  17.144 -0.2625  0.1758 -0.4507
 2108TIP3    H127739   3.053   4.977  17.180 -0.0375 -0.7102  0.5588
 2108TIP3    H227740   3.006   4.913  17.051  2.1747 -1.6592  0.1888
 2109TIP3   OH227741   5.340   1.477  11.952 -0.8291  0.0902 -0.1942
 2109TIP3    H127742   5.333   1.390  11.912  0.8126 -0.5517  0.8291
 2109TIP3    H227743   5.409   1.521  11.902 -0.8368  0.3759  0.0471
 2110TIP3   OH227744   3.856   3.764  11.775 -0.5377 -0.1667  0.2421
 2110TIP3    H127745   3.801   3.686  11.781  1.2442 -1.4134  1.5707
 2110TIP3    H227746   3.931   3.745  11.831  1.0472  1.6372 -1.1192
 2111TIP3   OH227747   3.367   1.122   3.364  0.2019 -0.3356 -0.6343
 2111TIP3    H127748   3.330   1.176   3.294 -1.1598  2.8363  2.2342
 2111TIP3    H227749   3.451   1.163   3.384  1.1243 -1.9219 -1.0954
 2112TIP3   OH227750   5.177   5.501  16.993 -0.4642  0.4748  0.3288
 2112TIP3    H127751   5.196   5.540  16.908 -0.7041 -0.4659 -0.1673
 2112TIP3    H227752   5.136   5.571  17.043  0.3583  1.2560 -0.0650
 2113TIP3   OH227753   6.500   1.988  16.910  0.1371  0.5250  0.5719
 2113TIP3    H127754   6.593   2.005  16.897  0.2597 -1.3021 -1.8234
 2113TIP3    H227755   6.460   2.074  16.918  1.8072  1.4350 -0.3885
 2114TIP3   OH227756   3.637   3.728  15.719  0.6876 -0.3939  0.0344
 2114TIP3    H127757   3.703   3.657  15.721 -0.4675 -1.4973  0.2725
 2114TIP3    H227758   3.660   3.784  15.793  0.3948 -1.7054  1.1673
 2115TIP3   OH227759   4.714   3.474  13.244  0.1194  0.2035  0.3980
 2115TIP3    H127760   4.623   3.504  13.253 -0.8934 -2.1445 -1.1874
 2115TIP3    H227761   4.749   3.477  13.333 -1.5738  0.9091  1.0767
 2116TIP3   OH227762   0.302   5.977  16.867  0.0631  0.4193  0.1473
 2116TIP3    H127763   0.358   5.906  16.900 -0.0096 -0.0216 -0.6421
 2116TIP3    H227764   0.228   5.931  16.827  0.3161  0.9080 -0.9219
 2117TIP3   OH227765   3.398   1.782  14.298  0.3120  0.8387 -0.5372
 2117TIP3    H127766   3.397   1.699  14.251  0.9948  1.4789 -1.7189
 2117TIP3    H227767   3.363   1.761  14.385  0.8671 -0.7556 -0.6762
 2118TIP3   OH227768   5.794   5.311  13.381 -0.5758 -0.0193 -0.3274
 2118TIP3    H127769   5.783   5.333  13.473  2.3837 -0.3564  0.2098
 2118TIP3    H227770   5.756   5.384  13.333 -0.5986  1.0072  1.2009
 2119TIP3   OH227771   0.364   6.320   4.045  0.4587  0.0042  0.2114
 2119TIP3    H127772   0.313   6.293   4.121 -1.7112 -0.3686 -1.2715
 2119TIP3    H227773   0.312   6.391   4.005  1.4315  0.0740 -1.0102
 2120TIP3   OH227774   2.162   2.248  15.461 -0.5871 -0.0535  0.3130
 2120TIP3    H127775   2.166   2.163  15.505 -0.7554 -0.5502 -0.6060
 2120TIP3    H227776   2.197   2.232  15.373 -2.0130  0.4792 -0.3920
 2121TIP3   OH227777   5.883   0.936  14.210  0.3989  0.9049 -0.7057
 2121TIP3    H127778   5.856   0.879  14.139  1.4171  0.4461 -0.7381
 2121TIP3    H227779   5.801   0.960  14.254  0.0606 -3.8377  1.8316
 2122TIP3   OH227780   5.640   4.496   5.078  0.3865  0.6275  0.4898
 2122TIP3    H127781   5.641   4.562   5.009 -1.2584 -1.8660 -2.1240
 2122TIP3    H227782   5.731   4.491   5.108  0.5367  4.1474  1.0227
 2123TIP3   OH227783   5.359   6.491   3.563  0.0311 -0.3257  0.3269
 2123TIP3    H127784   5.384   6.583   3.573 -0.3860 -0.3694  1.9306
 2123TIP3    H227785   5.427   6.443   3.610 -0.3769 -0.7627  0.4658
 2124TIP3   OH227786   3.038   4.688   1.959 -0.2644 -0.4193  0.2782
 2124TIP3    H127787   3.001   4.650   2.039 -0.2143 -0.7026  0.1691
 2124TIP3    H227788   2.979   4.760   1.937  0.7597  0.8983  1.6222
 2125TIP3   OH227789   5.292   2.673  15.549  0.6750  0.4924 -0.7577
 2125TIP3    H127790   5.339   2.660  15.631  1.2117  1.1415 -0.9598
 2125TIP3    H227791   5.297   2.767  15.532 -0.4276  0.5331 -0.9422
 2126TIP3   OH227792   3.607   1.292   3.354  0.4491 -0.1804 -0.0270
 2126TIP3    H127793   3.667   1.356   3.391  1.4901 -1.9813  1.5731
 2126TIP3    H227794   3.648   1.207   3.371 -2.6961 -1.5543  1.5863
 2127TIP3   OH227795   4.329   1.610   0.758  0.1060 -0.1424 -0.1872
 2127TIP3    H127796   4.246   1.601   0.711 -1.5756  0.9143  2.3975
 2127TIP3    H227797   4.342   1.524   0.799  1.6396 -1.1072 -2.4673
 2128TIP3   OH227798   2.816   1.895  15.557 -0.3606  0.3262 -0.0600
 2128TIP3    H127799   2.904   1.893  15.594 -0.2981  2.0639 -0.0173
 2128TIP3    H227800   2.757   1.885  15.632 -0.2133 -1.1129 -0.1224
 2129TIP3   OH227801   2.438   3.738  16.082  0.8042  0.6197  0.6052
 2129TIP3    H127802   2.352   3.696  16.085 -0.8913  3.7603  1.9665
 2129TIP3    H227803   2.498   3.675  16.121 -1.1898 -1.0754  1.0705
 2130TIP3   OH227804   0.096   2.083   5.596  0.4047  0.4370  0.2434
 2130TIP3    H127805   0.128   2.058   5.509 -3.2937  1.5253 -1.6309
 2130TIP3    H227806   0.030   2.016   5.617  1.4547  0.0080  2.4496
 2131TIP3   OH227807   0.481   4.312  12.682  0.6085 -0.3218  0.0546
 2131TIP3    H127808   0.472   4.239  12.621 -0.1880  1.4187 -2.0653
 2131TIP3    H227809   0.525   4.381  12.631  0.1048  1.1604  1.5086
 2132TIP3   OH227810   5.277   5.487  15.666  0.3548 -0.1998  0.6404
 2132TIP3    H127811   5.214   5.545  15.623  0.9756  0.7370  0.9634
 2132TIP3    H227812   5.332   5.455  15.594  2.3027  2.4822  0.7649
 2133TIP3   OH227813   3.573   5.929  15.345  0.7486  0.2502  0.3421
 2133TIP3    H127814   3.575   5.841  15.382  0.6419  0.3593  0.6117
 2133TIP3    H227815   3.631   5.925  15.269 -1.2379 -0.7775 -1.2268
 2134TIP3   OH227816   6.555   6.260  11.218 -0.4819 -0.7727  0.3234
 2134TIP3    H127817   6.641   6.236  11.182 -0.1704 -0.7802  1.0599
 2134TIP3    H227818   6.505   6.290  11.142 -0.0634 -1.4376 -0.2267
 2135TIP3   OH227819   1.982   4.309   6.676 -0.2296  0.2882  0.4371
 2135TIP3    H127820   2.058   4.355   6.639  0.3044  0.0477  1.2035
 2135TIP3    H227821   1.924   4.295   6.602  1.4392 -1.4487 -0.6441
 2136TIP3   OH227822   1.142   4.090   5.902  0.0452  0.2837 -0.5502
 2136TIP3    H127823   1.156   3.998   5.928  1.2398  0.4631 -0.5022
 2136TIP3    H227824   1.139   4.138   5.985 -2.5922  0.0792 -0.4442
 2137TIP3   OH227825   3.912   6.572   4.912  0.4779 -0.2171 -0.2772
 2137TIP3    H127826   3.841   6.549   4.971 -0.3557 -0.3240 -1.2913
 2137TIP3    H227827   3.992   6.553   4.962 -0.1607  1.1637  1.3863
 2138TIP3   OH227828   5.226   4.988   3.036 -0.5293 -0.4283 -0.0408
 2138TIP3    H127829   5.226   5.071   2.988 -0.6696 -0.6943 -0.5040
 2138TIP3    H227830   5.296   4.999   3.101 -0.5603  0.0591 -0.0820
 2139TIP3   OH227831   4.616   1.728  14.536 -0.0441 -0.5869 -0.0281
 2139TIP3    H127832   4.703   1.692  14.555  0.0939 -0.8890 -1.1461
 2139TIP3    H227833   4.555   1.661  14.565  0.1139 -0.6222  0.2290
 2140TIP3   OH227834   3.148   0.069   2.765 -0.0186 -0.0901 -0.1558
 2140TIP3    H127835   3.147   0.164   2.750 -0.8833 -0.2531 -1.2794
 2140TIP3    H227836   3.228   0.039   2.723  0.5001  0.1908  0.6124
 2141TIP3   OH227837   1.699   5.365   4.034  0.0956  0.5230  0.4691
 2141TIP3    H127838   1.768   5.302   4.012  0.1616  0.1895  1.5439
 2141TIP3    H227839   1.695   5.424   3.959 -0.2284 -0.9857 -0.7315
 2142TIP3   OH227840   1.105   5.039   4.889 -0.0615 -0.7434 -0.0162
 2142TIP3    H127841   1.080   5.131   4.898 -0.3787 -0.5139 -2.5204
 2142TIP3    H227842   1.067   4.996   4.966 -2.3589  0.7292 -0.2439
 2143TIP3   OH227843   5.077   4.759  14.865  0.0853 -0.1343 -0.1541
 2143TIP3    H127844   5.142   4.812  14.911 -0.5808  0.2091  0.4119
 2143TIP3    H227845   5.058   4.809  14.785  1.3702 -0.8155 -0.9301
 2144TIP3   OH227846   2.757   3.747  13.283  0.3839 -0.1063 -0.6702
 2144TIP3    H127847   2.790   3.836  13.293 -0.2724  0.2481 -1.5428
 2144TIP3    H227848   2.669   3.750  13.320  0.6359 -0.5882 -0.0186
 2145TIP3   OH227849   2.697   5.377  14.908 -0.4618 -0.0473 -0.3230
 2145TIP3    H127850   2.679   5.449  14.847 -0.4602  0.5304  0.3510
 2145TIP3    H227851   2.791   5.361  14.900 -0.3225  0.5468  0.0886
 2146TIP3   OH227852   1.081   0.715  16.069  0.2303 -0.6242  0.3384
 2146TIP3    H127853   1.147   0.758  16.015 -0.1797  3.0112  2.4374
 2146TIP3    H227854   1.004   0.710  16.013  0.8608 -0.4433 -0.5770
 2147TIP3   OH227855   0.168   0.602  12.218 -0.5720  0.0414  0.1871
 2147TIP3    H127856   0.247   0.549  12.209 -1.0084 -0.3748 -1.6039
 2147TIP3    H227857   0.097   0.538  12.226 -0.9075  0.3837 -0.0369
 2148TIP3   OH227858   5.745   6.717   5.922 -0.4835  0.1305 -0.1289
 2148TIP3    H127859   5.661   6.683   5.891 -0.0397 -0.1220 -1.0956
 2148TIP3    H227860   5.752   6.685   6.012 -2.1152  1.4504  0.5431
 2149TIP3   OH227861   6.594   5.517   3.078  0.2872 -1.0165  0.5202
 2149TIP3    H127862   6.602   5.611   3.067  1.5244 -1.1854 -0.1421
 2149TIP3    H227863   6.609   5.502   3.172 -2.0624 -0.3787  1.0654
 2150TIP3   OH227864   0.706   1.520   0.988 -0.2285 -0.3826  0.3064
 2150TIP3    H127865   0.611   1.528   0.994 -0.2378 -0.9659  1.1746
 2150TIP3    H227866   0.727   1.440   1.037  0.7328 -0.0865  0.4140
 2151TIP3   OH227867   4.450   2.896  16.874 -0.5957 -0.5631  0.0302
 2151TIP3    H127868   4.420   2.967  16.931 -1.7704 -1.1082  0.1231
 2151TIP3    H227869   4.410   2.914  16.789 -1.3695 -1.3981  0.2015
 2152TIP3   OH227870   1.789   3.691  14.758  0.1073 -0.5102 -0.1489
 2152TIP3    H127871   1.742   3.757  14.707 -0.4913 -0.0217  1.0172
 2152TIP3    H227872   1.825   3.632  14.692 -0.2652  0.3660 -1.1610
 2153TIP3   OH227873   1.801   0.845   4.289 -0.0028 -0.1596 -0.2995
 2153TIP3    H127874   1.817   0.768   4.344 -0.8427  0.6054  1.0838
 2153TIP3    H227875   1.850   0.915   4.332  1.0510  0.0297 -1.7555
 2154TIP3   OH227876   4.348   3.803  12.567  0.0688 -0.7891  0.0149
 2154TIP3    H127877   4.339   3.816  12.472  1.2566 -2.8202 -0.4335
 2154TIP3    H227878   4.422   3.743  12.576 -0.7777 -1.5926  2.1925
 2155TIP3   OH227879   2.655   5.455   2.840  0.2298 -0.8999  0.1256
 2155TIP3    H127880   2.740   5.467   2.797 -0.0467  0.5381 -0.0845
 2155TIP3    H227881   2.610   5.389   2.786  0.5817 -0.4506 -0.7437
 2156TIP3   OH227882   6.559   1.939  14.788  0.4119  0.4172 -0.3421
 2156TIP3    H127883   6.465   1.931  14.805  0.7200 -1.0326  0.8045
 2156TIP3    H227884   6.595   1.980  14.866  0.9580 -0.5923 -0.0460
 2157TIP3   OH227885   4.856   3.873   1.125  0.3860  0.0413  0.2483
 2157TIP3    H127886   4.842   3.834   1.039  1.1153 -0.2569  0.2515
 2157TIP3    H227887   4.946   3.907   1.122  0.3174  0.2923  0.7907
 2158TIP3   OH227888   2.988   1.966  13.229 -0.3558 -0.3120  0.4512
 2158TIP3    H127889   3.069   2.017  13.235  0.7522 -1.8881 -0.2024
 2158TIP3    H227890   2.952   1.990  13.143 -2.1713  2.5038  1.8599
 2159TIP3   OH227891   6.654   5.939   2.572  0.2222  0.3208 -0.4518
 2159TIP3    H127892   6.730   5.921   2.627  1.2063 -0.8930 -2.1374
 2159TIP3    H227893   6.616   5.853   2.554 -1.8342  0.9199  0.6740
 2160TIP3   OH227894   0.484   1.003  16.482  0.0670 -0.4421 -0.3133
 2160TIP3    H127895   0.409   1.002  16.542 -0.9648 -0.3739 -1.5686
 2160TIP3    H227896   0.484   0.916  16.441  0.8606 -0.5443 -0.1175
 2161TIP3   OH227897   4.749   5.145  13.001  0.0396  0.1413  0.1193
 2161TIP3    H127898   4.820   5.111  13.055  0.0277  0.8239  0.5718
 2161TIP3    H227899   4.737   5.079  12.932  1.3218  0.1809 -0.1564
 2162TIP3   OH227900   5.951   4.222   2.297 -0.1509 -0.0302  0.6072
 2162TIP3    H127901   5.899   4.201   2.219  1.3958 -0.4483 -0.3620
 2162TIP3    H227902   6.035   4.180   2.281  1.1597  2.2075  1.1914
 2163TIP3   OH227903   3.453   0.909   3.013  0.2095 -0.0407  0.1656
 2163TIP3    H127904   3.400   0.986   2.995 -0.4268 -0.0372  1.9387
 2163TIP3    H227905   3.424   0.878   3.099  2.6393 -0.3887  0.9484
 2164TIP3   OH227906   2.234   2.075  11.977  0.1134 -0.4944  0.6196
 2164TIP3    H127907   2.206   2.109  12.062 -1.3131  1.0955 -0.4187
 2164TIP3    H227908   2.321   2.111  11.964 -0.4926  0.9833  0.5273
 2165TIP3   OH227909   5.559   2.361  17.080  0.3092  0.2492  0.4602
 2165TIP3    H127910   5.594   2.274  17.101 -2.1001 -0.7392  0.6842
 2165TIP3    H227911   5.609   2.389  17.004  0.6495 -1.6709 -0.0877
 2166TIP3   OH227912   3.846   1.466  11.263 -0.2225 -0.0605  0.6684
 2166TIP3    H127913   3.842   1.424  11.349 -0.7641  0.3185  0.8353
 2166TIP3    H227914   3.938   1.490  11.252 -0.1386 -0.1692  1.1159
 2167TIP3   OH227915   4.163   0.923   2.196 -0.3760 -0.2681  0.1666
 2167TIP3    H127916   4.124   0.977   2.265  0.1675 -0.6786  0.8010
 2167TIP3    H227917   4.257   0.936   2.206 -0.3052  0.0977 -0.8531
 2168TIP3   OH227918   3.041   3.224   5.106 -0.3980 -0.1454  0.8622
 2168TIP3    H127919   3.000   3.268   5.181 -0.8783 -0.1485  0.6072
 2168TIP3    H227920   2.986   3.248   5.032 -1.4574 -2.2309  0.9067
 2169TIP3   OH227921   2.084   5.151   0.803 -0.2011  0.4008 -0.1253
 2169TIP3    H127922   2.069   5.219   0.869  0.7259 -0.3166  0.8480
 2169TIP3    H227923   2.038   5.184   0.725 -1.1773  1.3463  0.8049
 2170TIP3   OH227924   0.255   2.813   1.102  0.3814 -0.4860  0.6405
 2170TIP3    H127925   0.206   2.740   1.141  0.4159  0.5547  2.7522
 2170TIP3    H227926   0.192   2.885   1.099  0.9573  0.0256  0.6219
 2171TIP3   OH227927   1.530   5.521  15.016  0.5763 -0.3939 -0.6646
 2171TIP3    H127928   1.565   5.546  14.930 -0.7336  1.7541 -0.6531
 2171TIP3    H227929   1.444   5.482  14.996  1.3552 -2.3234 -0.4570
 2172TIP3   OH227930   5.264   1.823   0.136  0.0749 -0.5028 -0.0968
 2172TIP3    H127931   5.335   1.875   0.174  1.4206 -0.4710 -2.4489
 2172TIP3    H227932   5.184   1.864   0.169  1.1296  1.4296  0.2003
 2173TIP3   OH227933   0.079   0.771  14.519 -0.5843 -0.0921  0.7549
 2173TIP3    H127934   0.087   0.679  14.543 -1.8039 -0.5994 -0.6057
 2173TIP3    H227935  -0.014   0.792  14.534 -0.7532  0.3504 -0.7342
 2174TIP3   OH227936   1.598   6.379  15.019 -0.0300  0.0886 -0.6937
 2174TIP3    H127937   1.518   6.327  15.027 -0.4390  0.7940 -0.0997
 2174TIP3    H227938   1.587   6.428  14.938 -0.7873  1.1544  0.0366
 2175TIP3   OH227939   1.723   4.898   2.364 -0.1163 -0.0083 -0.0427
 2175TIP3    H127940   1.678   4.983   2.365 -0.5961 -0.1721 -2.2010
 2175TIP3    H227941   1.653   4.834   2.359  0.2858 -0.4901  0.3579
 2176TIP3   OH227942   4.308   3.798   6.350  0.5067 -0.0340 -0.0982
 2176TIP3    H127943   4.332   3.891   6.346  1.2817 -0.2124  0.2286
 2176TIP3    H227944   4.214   3.797   6.330 -0.2228  1.1229  2.8088
 2177TIP3   OH227945   4.171   1.228  15.469 -0.5350  0.3107 -0.1545
 2177TIP3    H127946   4.233   1.173  15.517 -0.1596  0.3169 -0.6257
 2177TIP3    H227947   4.089   1.218  15.516 -0.4470 -0.5866 -0.1868
 2178TIP3   OH227948   4.018   4.780   1.560  0.7112 -0.1365  0.9765
 2178TIP3    H127949   4.102   4.822   1.578  0.1322  0.5846  2.0608
 2178TIP3    H227950   3.978   4.768   1.646 -0.4447 -0.1592  0.4455
 2179TIP3   OH227951   4.585   4.069  14.492 -0.4485  0.1221  0.0326
 2179TIP3    H127952   4.597   4.111  14.578 -1.2549  0.7641 -0.1478
 2179TIP3    H227953   4.542   4.136  14.439  2.3552  0.6847 -1.7208
 2180TIP3   OH227954   1.506   1.853  13.693 -0.1553  0.0272 -0.2063
 2180TIP3    H127955   1.590   1.845  13.738  0.3002 -0.0478 -1.0649
 2180TIP3    H227956   1.443   1.813  13.754  0.2489  1.0558  0.9209
 2181TIP3   OH227957   5.561   4.096  13.483 -0.2207 -0.3324  0.6315
 2181TIP3    H127958   5.593   4.021  13.533 -1.0201 -1.2230 -0.1413
 2181TIP3    H227959   5.486   4.061  13.434 -0.4391  0.9119  0.0510
 2182TIP3   OH227960   3.137   6.484  13.866  0.1112 -0.4999  0.4693
 2182TIP3    H127961   3.137   6.467  13.772  0.3693 -1.5247  0.6346
 2182TIP3    H227962   3.105   6.402  13.905 -0.8652  0.2207  1.2298
 2183TIP3   OH227963   6.128   2.880  11.332 -0.1720  0.4278 -0.0066
 2183TIP3    H127964   6.164   2.877  11.421  1.9846  2.7084 -0.6749
 2183TIP3    H227965   6.058   2.944  11.337  1.2717  2.1180 -0.2575
 2184TIP3   OH227966   2.209   6.642   5.386 -0.0200  0.0577  0.2570
 2184TIP3    H127967   2.176   6.665   5.300 -0.0022  0.1108  0.2641
 2184TIP3    H227968   2.282   6.703   5.401 -0.6825  0.7528  0.7464
 2185TIP3   OH227969   4.685   2.023   3.793 -0.0927  0.0690 -0.0056
 2185TIP3    H127970   4.708   2.095   3.851 -0.3759  1.0945 -1.1457
 2185TIP3    H227971   4.736   1.949   3.826 -0.2699  0.6144  1.5588
 2186TIP3   OH227972   4.109   0.144   3.350  0.3055 -0.7498  0.5480
 2186TIP3    H127973   4.020   0.152   3.316  0.6654 -0.6951 -0.3976
 2186TIP3    H227974   4.127   0.229   3.391  0.8948  0.2721 -1.6663
 2187TIP3   OH227975   0.356   1.087  15.813 -0.5923 -0.7112  0.0034
 2187TIP3    H127976   0.396   1.054  15.733  1.2294 -0.8591  0.9258
 2187TIP3    H227977   0.271   1.044  15.817 -0.2941 -1.4726 -1.3350
 2188TIP3   OH227978   3.902   5.747   2.782  0.4043  0.2384 -0.7594
 2188TIP3    H127979   3.882   5.770   2.873  0.9197 -0.3494 -0.4905
 2188TIP3    H227980   3.894   5.652   2.779 -1.1929  0.3639 -1.7336
 2189TIP3   OH227981   1.292   2.198  14.044 -0.1437  0.2627  0.2204
 2189TIP3    H127982   1.364   2.149  14.004 -0.9392  1.0701 -2.3595
 2189TIP3    H227983   1.275   2.152  14.126  0.9603 -2.0954 -0.7764
 2190TIP3   OH227984   1.933   4.721  15.495  0.1485 -0.4413  0.0114
 2190TIP3    H127985   1.889   4.752  15.416 -0.7577  1.3333  1.1494
 2190TIP3    H227986   2.009   4.778  15.504 -0.0016 -0.3344  0.6463
 2191TIP3   OH227987   4.723   2.189   3.560  0.0378  0.1138  0.3591
 2191TIP3    H127988   4.714   2.126   3.631 -3.2797  0.2096  0.1529
 2191TIP3    H227989   4.705   2.274   3.600 -1.2156  0.2421 -0.4241
 2192TIP3   OH227990   1.506   6.482  17.057  0.1288  0.0135  0.2724
 2192TIP3    H127991   1.422   6.447  17.027  0.5397 -0.6870 -0.0839
 2192TIP3    H227992   1.567   6.408  17.051  0.8605  0.6059  0.1630
 2193TIP3   OH227993   3.144   4.586  16.088  0.6101 -0.1757  0.0421
 2193TIP3    H127994   3.148   4.514  16.150  2.0789 -1.5660 -1.5540
 2193TIP3    H227995   3.220   4.573  16.031  0.9185  2.6339 -0.3404
 2194TIP3   OH227996   6.169   4.177   0.755 -0.7329 -0.0860  0.5013
 2194TIP3    H127997   6.138   4.265   0.733 -1.4074 -0.3594  0.3189
 2194TIP3    H227998   6.241   4.190   0.817 -1.4481  0.5585  1.2072
 2195TIP3   OH227999   2.439   4.895   5.277 -0.3150 -0.1612  0.2125
 2195TIP3    H128000   2.361   4.949   5.290 -0.6853 -0.2697 -1.3942
 2195TIP3    H228001   2.495   4.947   5.220 -0.5806 -1.3300 -1.1829
 2196TIP3   OH228002   3.577   6.530  14.107 -0.1677  0.1216 -0.4565
 2196TIP3    H128003   3.548   6.621  14.115  0.6045  0.2968  0.4875
 2196TIP3    H228004   3.519   6.481  14.166 -0.4867  0.0140 -0.8534
 2197TIP3   OH228005   6.424   4.125   1.550 -0.3477 -0.3852 -0.4307
 2197TIP3    H128006   6.496   4.183   1.574 -0.0882 -0.3845 -1.1949
 2197TIP3    H228007   6.379   4.107   1.633  0.7508 -0.6897  0.1120
 2198TIP3   OH228008   5.960   3.023  13.532 -0.4301 -0.8532  0.0329
 2198TIP3    H128009   5.966   3.118  13.519 -0.0368 -0.8585  0.1787
 2198TIP3    H228010   6.027   3.003  13.597 -1.8504 -0.9432  1.5181
 2199TIP3   OH228011   3.094   2.559   3.896 -0.2975  0.0926 -0.1861
 2199TIP3    H128012   3.118   2.623   3.963  0.3966 -0.9328  0.5837
 2199TIP3    H228013   3.178   2.522   3.867 -0.7013 -0.8039 -0.2564
 2200TIP3   OH228014   3.993   1.924   5.722 -0.6570  0.5515 -0.7807
 2200TIP3    H128015   3.922   1.971   5.678 -1.3725  0.3864  0.1623
 2200TIP3    H228016   3.973   1.832   5.706  0.6814  0.5214 -2.5314
 2201TIP3   OH228017   4.841   2.318  15.931 -0.0736  0.1172  0.3392
 2201TIP3    H128018   4.787   2.325  16.010 -1.4790  0.3184 -0.5924
 2201TIP3    H228019   4.779   2.292  15.862  0.5949  2.3379 -1.2147
 2202TIP3   OH228020   5.468   2.476  13.939  0.2694  0.4527 -0.7136
 2202TIP3    H128021   5.435   2.519  14.018  0.7436 -0.1971 -0.1481
 2202TIP3    H228022   5.563   2.486  13.945  0.6055 -2.5561  0.5999
 2203TIP3   OH228023   4.710   6.163  16.512  0.1729  0.2624 -0.4851
 2203TIP3    H128024   4.655   6.166  16.433 -0.2524 -1.8400 -0.3107
 2203TIP3    H228025   4.769   6.090  16.497 -1.1981 -1.4512  1.9335
 2204TIP3   OH228026   4.250   6.135  12.838 -0.4977 -0.4528  0.2847
 2204TIP3    H128027   4.169   6.184  12.849  0.0435  1.3956 -2.7525
 2204TIP3    H228028   4.228   6.064  12.778  0.0324 -0.1121 -0.3327
 2205TIP3   OH228029   3.076   6.369  13.598 -0.1804  0.0040  0.0137
 2205TIP3    H128030   3.147   6.418  13.556  0.4669  1.4564  2.6162
 2205TIP3    H228031   3.004   6.433  13.604 -0.6597 -0.5342  0.0918
 2206TIP3   OH228032   1.083   5.469  13.953 -0.7015 -0.3498  0.0534
 2206TIP3    H128033   1.005   5.414  13.942 -0.1410 -0.8713 -1.5482
 2206TIP3    H228034   1.071   5.541  13.891  1.2182 -1.8176 -2.2278
 2207TIP3   OH228035   3.117   4.547  11.888  0.2118  0.4010  0.4104
 2207TIP3    H128036   3.037   4.498  11.909 -0.5664  0.4259 -2.1911
 2207TIP3    H228037   3.091   4.638  11.895  0.6490  0.4550  1.6340
 2208TIP3   OH228038   5.008   5.629   4.198 -0.1044  0.3764  0.0965
 2208TIP3    H128039   5.094   5.589   4.188 -0.0736  0.3035  0.5981
 2208TIP3    H228040   4.966   5.577   4.267 -0.4045  0.6509  0.1233
 2209TIP3   OH228041   4.978   0.601   1.327 -0.0183 -0.1447 -0.1783
 2209TIP3    H128042   5.017   0.516   1.344  0.4978  0.4983  2.2872
 2209TIP3    H228043   5.051   0.663   1.333 -0.5373  0.5739 -0.9718
 2210TIP3   OH228044   3.300   3.873   1.286 -0.3316  0.1376 -0.0864
 2210TIP3    H128045   3.248   3.837   1.214 -1.9595  2.7672 -0.3769
 2210TIP3    H228046   3.324   3.961   1.257  2.8644 -0.2990  0.8132
 2211TIP3   OH228047   1.851   5.752  14.297 -0.1128 -0.2086  0.4347
 2211TIP3    H128048   1.941   5.728  14.276  0.4500  2.7362 -1.0819
 2211TIP3    H228049   1.857   5.801  14.379 -0.5900 -1.2444  1.1125
 2212TIP3   OH228050   1.432   3.719  13.139  0.6394  0.0389 -0.6552
 2212TIP3    H128051   1.375   3.789  13.109  0.5973  0.3639  0.1479
 2212TIP3    H228052   1.447   3.664  13.062  2.9434  2.4502 -2.0927
 2213TIP3   OH228053   2.733   6.558  14.172  0.5598 -0.4108 -0.3711
 2213TIP3    H128054   2.769   6.596  14.092  0.5022 -0.7181 -0.5444
 2213TIP3    H228055   2.808   6.517  14.216  1.2759  2.3806  1.3189
 2214TIP3   OH228056   2.081   5.500   0.751  0.2132 -0.0287  0.2354
 2214TIP3    H128057   2.122   5.545   0.677 -2.8789 -1.9211 -2.8925
 2214TIP3    H228058   2.008   5.557   0.776 -0.2297 -0.5578  0.1537
 2215TIP3   OH228059   0.159   6.717   5.265 -0.1375  0.1050  0.0356
 2215TIP3    H128060   0.229   6.760   5.216 -0.0313  0.7115  0.6973
 2215TIP3    H228061   0.177   6.623   5.256  1.1657  0.2579  0.7484
 2216TIP3   OH228062   5.570   5.090  13.503  0.1959 -0.1143 -0.7578
 2216TIP3    H128063   5.511   5.100  13.429 -0.1117 -0.9487 -0.6364
 2216TIP3    H228064   5.610   5.004  13.491  1.8709  0.6812 -1.1730
 2217TIP3   OH228065   5.002   3.208   3.891  0.5173 -0.3297 -1.0341
 2217TIP3    H128066   5.055   3.284   3.914  1.0417 -1.0765  0.3495
 2217TIP3    H228067   4.913   3.241   3.883  0.3155  0.0973  1.8918
 2218TIP3   OH228068   1.003   4.648  12.098  0.6305  0.0859 -0.2215
 2218TIP3    H128069   0.998   4.625  12.190 -1.2724 -0.1492 -0.3538
 2218TIP3    H228070   1.049   4.732  12.096 -2.9975  2.3661  1.4074
 2219TIP3   OH228071   6.208   2.248  13.623 -0.0466  0.3134 -0.8876
 2219TIP3    H128072   6.150   2.312  13.665 -0.5822  0.1474 -1.3576
 2219TIP3    H228073   6.223   2.182  13.690  0.5114  0.9270 -0.3964
 2220TIP3   OH228074   1.704   6.729   5.277 -0.2670  0.3376 -0.3345
 2220TIP3    H128075   1.630   6.737   5.336 -0.4790  1.6959 -0.7553
 2220TIP3    H228076   1.748   6.814   5.281  0.7640 -0.1597 -0.7500
 2221TIP3   OH228077   6.653   2.102   6.357 -0.3654  0.0142 -0.5056
 2221TIP3    H128078   6.610   2.062   6.432  0.1319 -0.5264 -0.5052
 2221TIP3    H228079   6.665   2.031   6.295  1.5797 -0.1362 -0.0357
 2222TIP3   OH228080   3.037   4.710   3.276  0.4921  0.1602  0.0841
 2222TIP3    H128081   2.958   4.717   3.329  0.3890 -0.9735  0.1054
 2222TIP3    H228082   3.070   4.621   3.292 -0.2934 -0.7531 -2.7178
 2223TIP3   OH228083   5.486   4.970  15.695 -1.0838 -0.4920 -0.2734
 2223TIP3    H128084   5.571   4.972  15.651 -0.7446 -1.9671  0.2674
 2223TIP3    H228085   5.433   5.035  15.648 -0.2941 -0.9897 -1.9320
 2224TIP3   OH228086   4.631   3.953  15.595 -0.3109 -1.0795 -0.3838
 2224TIP3    H128087   4.538   3.942  15.576 -0.9378  0.0688  1.6804
 2224TIP3    H228088   4.636   3.959  15.690  1.7102  0.3195 -0.5001
 2225TIP3   OH228089   5.587   1.799   5.243 -0.2318  0.3146 -0.1132
 2225TIP3    H128090   5.540   1.732   5.292  1.1171 -2.1345 -1.9643
 2225TIP3    H228091   5.564   1.783   5.151  1.9588  0.8204 -0.8244
 2226TIP3   OH228092   3.266   3.188  15.899 -0.3310 -0.4981 -0.0753
 2226TIP3    H128093   3.318   3.266  15.921  0.7784 -1.5198  1.0261
 2226TIP3    H228094   3.180   3.206  15.937  0.3991 -0.4867  1.6715
 2227TIP3   OH228095   3.408   0.685  16.006  0.5970  0.2934  0.9238
 2227TIP3    H128096   3.399   0.738  15.927  0.7295 -2.0063 -0.7326
 2227TIP3    H228097   3.380   0.743  16.077 -0.8282  2.0222 -0.9250
 2228TIP3   OH228098   3.343   1.807   1.931  0.1620  0.4094 -0.0771
 2228TIP3    H128099   3.278   1.739   1.912 -0.3240  0.6857  0.5997
 2228TIP3    H228100   3.331   1.872   1.861  2.1299 -1.2106 -2.0903
 2229TIP3   OH228101   0.340   4.014  15.281  0.6086 -0.1072 -0.5023
 2229TIP3    H128102   0.345   3.958  15.359 -2.3608 -0.1404 -0.2380
 2229TIP3    H228103   0.354   4.102  15.315  0.6113 -0.2461 -0.1331
 2230TIP3   OH228104   3.661   0.801  16.092 -0.3651  0.3168 -0.3038
 2230TIP3    H128105   3.653   0.874  16.031 -1.7058  1.4807  1.1710
 2230TIP3    H228106   3.595   0.738  16.063  1.3897 -0.8111 -2.1151
 2231TIP3   OH228107   3.928   2.425   5.349 -0.3113 -0.0720  0.1302
 2231TIP3    H128108   3.855   2.364   5.349 -0.6209  0.2937 -0.3720
 2231TIP3    H228109   3.924   2.469   5.264 -0.8939  1.5872  0.9650
 2232TIP3   OH228110   0.327   1.566   2.145 -0.5369  0.6930  0.6559
 2232TIP3    H128111   0.418   1.586   2.122 -0.3664 -0.8128 -0.1041
 2232TIP3    H228112   0.334   1.504   2.217 -0.9048 -0.6654 -0.4480
 2233TIP3   OH228113   0.123   4.231   0.557 -0.1180 -0.4008 -0.4039
 2233TIP3    H128114   0.153   4.283   0.632 -0.4721  0.2609 -0.7154
 2233TIP3    H228115   0.123   4.292   0.484  0.9720 -1.2326 -1.1345
 2234TIP3   OH228116   4.945   3.058   1.870  0.3295  0.0956  0.1704
 2234TIP3    H128117   5.012   3.086   1.932  0.7658  1.7861 -1.0064
 2234TIP3    H228118   4.873   3.119   1.883 -0.7471 -1.2592  0.9097
 2235TIP3   OH228119   5.761   2.487   3.839  0.6098 -0.0919  0.0451
 2235TIP3    H128120   5.733   2.518   3.925  0.2420 -0.5015  0.0747
 2235TIP3    H228121   5.845   2.532   3.824  0.3431  0.5100  0.3113
 2236TIP3   OH228122   3.327   5.853  17.112 -0.3751  0.5088 -0.3792
 2236TIP3    H128123   3.257   5.873  17.050  0.8295  3.1823 -0.9974
 2236TIP3    H228124   3.396   5.814  17.058 -0.8566 -0.9517  0.0192
 2237TIP3   OH228125   0.031   5.258   4.605  0.1352 -0.2424  0.3809
 2237TIP3    H128126  -0.053   5.283   4.565  0.4279  0.6187  0.2837
 2237TIP3    H228127   0.097   5.294   4.546  0.6144 -2.5046 -0.5450
 2238TIP3   OH228128   5.476   4.032   3.307  0.1643  0.2184 -0.7257
 2238TIP3    H128129   5.551   4.068   3.356 -0.5733  0.9881 -0.1284
 2238TIP3    H228130   5.486   3.937   3.314  0.1836  0.3089  0.7780
 2239TIP3   OH228131   4.627   0.465   2.351 -0.5967 -0.7385  0.2706
 2239TIP3    H128132   4.631   0.417   2.268 -1.4400  0.5412 -0.5422
 2239TIP3    H228133   4.717   0.468   2.382  0.1904  1.0393 -1.9597
 2240TIP3   OH228134   1.945   3.895  15.143 -0.1799  0.0699  0.4591
 2240TIP3    H128135   1.931   3.988  15.123 -1.0325  0.1568  1.4225
 2240TIP3    H228136   1.946   3.890  15.238 -0.2709 -0.9411  0.4190
 2241TIP3   OH228137   1.538   2.359   0.907 -0.3152 -0.1138 -0.3273
 2241TIP3    H128138   1.526   2.449   0.937  0.9656  0.3375 -1.0928
 2241TIP3    H228139   1.603   2.323   0.966 -0.5173 -0.4178 -0.2861
 2242TIP3   OH228140   1.164   0.262  12.738  0.9458 -0.1743  0.0366
 2242TIP3    H128141   1.205   0.330  12.685 -0.3201 -0.1298 -0.9486
 2242TIP3    H228142   1.083   0.302  12.769 -0.0281 -1.3238 -0.9114
 2243TIP3   OH228143   1.317   5.053   1.558 -0.4874 -0.3122 -0.2941
 2243TIP3    H128144   1.325   5.143   1.526 -0.3070 -0.5935 -1.0629
 2243TIP3    H228145   1.222   5.038   1.563 -0.5551 -0.7979 -2.2947
 2244TIP3   OH228146   2.764   4.215  11.743  0.6605 -0.4307 -0.3145
 2244TIP3    H128147   2.695   4.278  11.718  0.9511 -0.4875 -1.2995
 2244TIP3    H228148   2.723   4.130  11.734  1.2653 -0.5586 -2.4120
 2245TIP3   OH228149   3.600   1.090   3.802  0.0018  0.1358 -0.2178
 2245TIP3    H128150   3.594   0.996   3.817 -0.6594 -0.0372 -1.4152
 2245TIP3    H228151   3.679   1.118   3.848 -0.9321 -0.6167  1.9688
 2246TIP3   OH228152   4.769   5.498   5.081 -0.2875 -0.2465 -0.2637
 2246TIP3    H128153   4.856   5.527   5.107 -1.1865  1.0987  1.4488
 2246TIP3    H228154   4.765   5.406   5.109  0.1507  0.0465  0.7992
 2247TIP3   OH228155   1.976   4.896   5.046 -0.3679 -0.3027  0.4151
 2247TIP3    H128156   1.980   4.832   5.117 -0.3656 -1.1612 -0.3322
 2247TIP3    H228157   1.885   4.895   5.018 -0.2403 -0.4476 -0.0045
 2248TIP3   OH228158   2.843   4.079   2.212  0.2683 -0.4288 -0.2551
 2248TIP3    H128159   2.907   4.132   2.260 -0.9814  0.1971  0.7911
 2248TIP3    H228160   2.764   4.082   2.266 -0.2043 -2.4187 -0.7542
 2249TIP3   OH228161   5.940   4.961   6.867 -0.0993 -0.5066 -0.5853
 2249TIP3    H128162   6.005   5.014   6.820  0.5726 -0.2767  0.5667
 2249TIP3    H228163   5.985   4.878   6.883 -0.0446 -0.3098  0.3090
 2250TIP3   OH228164   1.514   3.831  11.258  0.3846  0.3599 -0.6875
 2250TIP3    H128165   1.548   3.917  11.285 -0.5938  1.1934 -1.9509
 2250TIP3    H228166   1.543   3.821  11.167 -1.3904  0.4213 -1.2967
 2251TIP3   OH228167   4.235   1.436   6.182 -0.3138  0.4456  0.0020
 2251TIP3    H128168   4.269   1.490   6.253  1.4073  0.4392 -0.7600
 2251TIP3    H228169   4.300   1.366   6.171 -2.2704 -1.5680  0.6673
 2252TIP3   OH228170   2.809   4.852  12.238  0.0594 -0.0174  0.1564
 2252TIP3    H128171   2.839   4.821  12.152  1.6757 -1.6165  1.2154
 2252TIP3    H228172   2.831   4.945  12.239 -0.0805  0.0503 -1.1783
 2253TIP3   OH228173   0.361   0.719  11.872 -0.1056 -0.0427 -0.1433
 2253TIP3    H128174   0.277   0.678  11.854  0.4301 -1.4400  0.3398
 2253TIP3    H228175   0.407   0.719  11.788 -0.6864  0.9895 -0.4683
 2254TIP3   OH228176   1.353   3.875  13.982  0.3312  0.0543  0.4849
 2254TIP3    H128177   1.384   3.962  14.007 -0.1835 -0.2874  2.5790
 2254TIP3    H228178   1.392   3.859  13.897  3.4844  0.8762  1.6240
 2255TIP3   OH228179   5.615   4.474   0.216 -0.5725  0.4167 -0.1470
 2255TIP3    H128180   5.688   4.506   0.163  0.0936 -1.5265 -0.4684
 2255TIP3    H228181   5.652   4.400   0.265 -2.5381 -1.2476 -1.0384
 2256TIP3   OH228182   4.175   1.983  12.591 -0.0937  0.1033  0.1248
 2256TIP3    H128183   4.194   2.061  12.539  2.4182 -0.5229 -0.0565
 2256TIP3    H228184   4.140   1.920  12.527 -2.4043  1.1035  0.3244
 2257TIP3   OH228185   4.509   2.182  14.903  0.0155  0.2277 -0.2522
 2257TIP3    H128186   4.537   2.230  14.825  0.3189 -0.8113 -0.7986
 2257TIP3    H228187   4.471   2.101  14.869  1.0957 -0.7133  0.7194
 2258TIP3   OH228188   3.586   0.909  13.578 -0.6057  0.2131  0.2127
 2258TIP3    H128189   3.579   0.959  13.496  2.6407 -0.3095 -0.5065
 2258TIP3    H228190   3.512   0.848  13.575 -1.6605  1.4810 -1.3681
 2259TIP3   OH228191   0.628   2.309  12.821  0.6182 -0.1875  0.0807
 2259TIP3    H128192   0.615   2.379  12.885 -0.4532  0.9065 -1.2884
 2259TIP3    H228193   0.618   2.351  12.736  1.1042 -1.7881 -0.8153
 2260TIP3   OH228194   5.983   5.840   4.523  0.2982 -0.1401  0.2481
 2260TIP3    H128195   5.912   5.881   4.573  1.9016  0.3575  2.2670
 2260TIP3    H228196   6.056   5.902   4.530  1.1236 -0.8666 -1.3192
 2261TIP3   OH228197   6.373   3.653  11.273  0.1568  0.1911 -0.4105
 2261TIP3    H128198   6.366   3.747  11.255 -0.2002  0.3071  0.2894
 2261TIP3    H228199   6.429   3.619  11.203 -0.5144  0.7478 -1.2310
 2262TIP3   OH228200   4.563   1.306  10.494  0.1801 -0.8966  0.2698
 2262TIP3    H128201   4.569   1.229  10.551  0.3902 -1.2845 -0.2679
 2262TIP3    H228202   4.528   1.375  10.551  1.4080 -0.9791  1.1644
 2263TIP3   OH228203   6.635   2.887   0.566  0.0224 -0.4544 -0.0095
 2263TIP3    H128204   6.672   2.933   0.490  0.5312 -1.0647 -0.1350
 2263TIP3    H228205   6.549   2.857   0.536  1.0367 -2.4894 -1.0676
 2264TIP3   OH228206   3.110   6.199   5.903 -0.1711 -0.2337 -0.0736
 2264TIP3    H128207   3.181   6.259   5.928  0.8962 -1.1955 -0.7211
 2264TIP3    H228208   3.043   6.213   5.970  1.8138 -1.4023  2.3507
 2265TIP3   OH228209   3.062   3.716  13.977  0.2775  0.0934 -0.2962
 2265TIP3    H128210   3.108   3.763  13.907 -0.4025 -0.3269 -1.0348
 2265TIP3    H228211   2.970   3.718  13.951 -0.1983  1.1689  1.3024
 2266TIP3   OH228212   4.127   5.030   2.675  0.1806  0.4927  0.2505
 2266TIP3    H128213   4.143   4.939   2.649  0.9728  1.3567 -2.5826
 2266TIP3    H228214   4.209   5.058   2.715  0.4310  0.3524 -0.1582
 2267TIP3   OH228215   4.565   5.746   0.798 -0.2880  0.3693 -0.3193
 2267TIP3    H128216   4.512   5.824   0.814  0.2300  0.3878  1.6587
 2267TIP3    H228217   4.501   5.676   0.786 -0.7485  0.9665 -1.5004
 2268TIP3   OH228218   2.318   1.504  10.496  0.2361 -0.3397  0.5609
 2268TIP3    H128219   2.387   1.496  10.562 -0.5468 -1.3950  1.2912
 2268TIP3    H228220   2.276   1.418  10.496 -1.8697  0.6338  1.0369
 2269TIP3   OH228221   6.737   3.359  15.479 -0.1758  0.1261 -0.1723
 2269TIP3    H128222   6.688   3.283  15.450  0.7155 -0.0977 -1.1354
 2269TIP3    H228223   6.669   3.424  15.500 -0.8949 -0.0292 -1.8587
 2270TIP3   OH228224   0.541   6.614   1.909  0.0068 -0.6507 -0.1445
 2270TIP3    H128225   0.602   6.675   1.868  1.6073 -1.4719  0.9203
 2270TIP3    H228226   0.468   6.669   1.939  0.5524  0.4577 -0.7954
 2271TIP3   OH228227   2.499   3.943   0.606  0.4930  0.5775  0.2587
 2271TIP3    H128228   2.435   3.991   0.657 -0.4015 -1.7879  1.5431
 2271TIP3    H228229   2.584   3.972   0.641  0.0524  1.8500  0.3269
 2272TIP3   OH228230   4.760   0.884  13.815 -0.1311  0.1008  0.9413
 2272TIP3    H128231   4.851   0.858  13.833 -0.0849 -0.2609  0.2119
 2272TIP3    H228232   4.747   0.863  13.722 -0.9512  0.1825  1.0323
 2273TIP3   OH228233   3.351   0.728  13.949  0.1119  0.1230 -0.1995
 2273TIP3    H128234   3.419   0.795  13.960 -1.6741  1.7259  2.1725
 2273TIP3    H228235   3.399   0.645  13.952  1.9776  1.1582  1.9912
 2274TIP3   OH228236   5.737   2.967  15.877 -0.0915 -0.4845  0.2612
 2274TIP3    H128237   5.661   2.953  15.821 -0.4152 -0.9516  0.8085
 2274TIP3    H228238   5.805   2.910  15.840  0.3793  0.7807 -0.9216
 2275TIP3   OH228239   0.634   6.688  13.483 -0.1427  0.0044 -0.0279
 2275TIP3    H128240   0.668   6.620  13.425 -0.0777  0.1276 -0.1339
 2275TIP3    H228241   0.548   6.657  13.509  0.8374 -1.3004  1.8750
 2276TIP3   OH228242   1.465   4.321   5.366 -0.2576 -0.1810  0.3968
 2276TIP3    H128243   1.504   4.408   5.377 -1.0047  0.0051  1.8138
 2276TIP3    H228244   1.371   4.337   5.365 -0.6830 -1.1942  4.5465
 2277TIP3   OH228245   1.098   1.432   0.179 -0.2298  0.7722  0.6225
 2277TIP3    H128246   1.027   1.492   0.155 -0.0544  0.8825  0.3677
 2277TIP3    H228247   1.090   1.359   0.117 -0.1871  0.7339  0.6624
 2278TIP3   OH228248   0.281   5.456  13.760 -0.1112 -0.4935  0.3979
 2278TIP3    H128249   0.251   5.540  13.796  0.3348  0.0154 -0.3815
 2278TIP3    H228250   0.214   5.433  13.695  0.5640  0.0649 -0.5172
 2279TIP3   OH228251   5.259   3.457   5.284  0.5522  0.2033 -0.0398
 2279TIP3    H128252   5.294   3.508   5.211 -1.8159  0.8270 -0.8496
 2279TIP3    H228253   5.301   3.493   5.362  2.3218  0.2649 -0.9636
 2280TIP3   OH228254   5.039   1.318   2.609 -0.2888  0.3411  0.0591
 2280TIP3    H128255   5.059   1.239   2.558 -2.0663 -0.8062  1.0300
 2280TIP3    H228256   5.088   1.387   2.566  3.4836 -1.6931  0.7124
 2281TIP3   OH228257   4.487   1.204   5.107 -0.4526  0.4268 -0.3062
 2281TIP3    H128258   4.568   1.251   5.090  0.3293 -0.6307  0.3994
 2281TIP3    H228259   4.449   1.190   5.020  0.5174  0.2573 -0.7162
 2282TIP3   OH228260   2.780   4.441   0.148 -0.3069  0.0972  0.0848
 2282TIP3    H128261   2.737   4.526   0.152  1.0273  0.9640 -2.0024
 2282TIP3    H228262   2.754   4.404   0.063 -0.2049 -1.2225  0.5956
 2283TIP3   OH228263   3.064   3.029  11.505 -1.3207  0.2592  0.2680
 2283TIP3    H128264   3.074   3.069  11.592  0.0949  0.9059 -0.1703
 2283TIP3    H228265   3.129   3.073  11.451 -2.1766 -0.1576 -1.1323
 2284TIP3   OH228266   2.043   0.936   1.948  0.8953  0.0041 -0.0880
 2284TIP3    H128267   2.107   0.976   2.006  0.2660  0.8784  0.0307
 2284TIP3    H228268   2.056   0.842   1.958  0.8700  0.1288  1.4001
 2285TIP3   OH228269   0.635   4.004  16.931  0.5137 -0.0504  0.5695
 2285TIP3    H128270   0.624   3.986  16.838 -0.6436 -0.0160  0.6862
 2285TIP3    H228271   0.612   4.097  16.940  1.5566  0.2036  0.7493
 2286TIP3   OH228272   4.162   5.937  12.689 -0.5623  0.0977 -0.0587
 2286TIP3    H128273   4.174   5.899  12.602  2.2278 -0.8326  0.6257
 2286TIP3    H228274   4.067   5.941  12.701 -1.0356 -3.0940 -1.7007
 2287TIP3   OH228275   2.160   4.330   0.071  0.1644 -0.0655  1.1563
 2287TIP3    H128276   2.142   4.418   0.103  1.4659  0.0160  1.7201
 2287TIP3    H228277   2.139   4.333  -0.022 -0.2617  0.7008  1.2699
 2288TIP3   OH228278   2.322   1.255  15.490 -0.1121  0.1666 -0.5159
 2288TIP3    H128279   2.339   1.348  15.505  0.4587 -0.1638  1.1751
 2288TIP3    H228280   2.400   1.223  15.446  0.6228  0.1096  0.7617
 2289TIP3   OH228281   1.594   0.020  12.817  0.5259 -0.2033  0.1464
 2289TIP3    H128282   1.599  -0.006  12.909  0.8365 -0.7427 -0.0131
 2289TIP3    H228283   1.638  -0.052  12.770 -0.1877 -0.2444 -0.4790
 2290TIP3   OH228284   5.842   1.396   3.990  0.6483  0.2095 -0.0939
 2290TIP3    H128285   5.906   1.371   3.924  2.1579 -0.3485  1.4980
 2290TIP3    H228286   5.799   1.314   4.014  1.2715  0.1095  0.7481
 2291TIP3   OH228287   1.072   5.472   5.630 -0.0941 -0.1710  0.6247
 2291TIP3    H128288   0.989   5.514   5.608 -0.1563  0.8583  2.6236
 2291TIP3    H228289   1.136   5.544   5.630  0.3062 -0.5182  1.5558
 2292TIP3   OH228290   3.764   3.815   6.438 -0.7737 -0.2822  0.3428
 2292TIP3    H128291   3.818   3.866   6.499  0.7886 -0.3208 -0.9606
 2292TIP3    H228292   3.703   3.879   6.401 -0.8626  0.0077  0.9760
 2293TIP3   OH228293   5.199   6.352   0.602  0.0434 -0.2156 -0.2474
 2293TIP3    H128294   5.275   6.296   0.616  0.5479 -0.0452 -2.0834
 2293TIP3    H228295   5.221   6.434   0.648 -0.3028 -1.1281  1.6507
 2294TIP3   OH228296   4.302   2.419   4.379 -0.3966  0.2217 -0.0157
 2294TIP3    H128297   4.287   2.513   4.391 -3.0249  0.3084 -2.7286
 2294TIP3    H228298   4.268   2.378   4.458 -0.0259  1.4841  0.8203
 2295TIP3   OH228299   3.071   5.217  13.249 -0.2340 -0.1691 -0.1117
 2295TIP3    H128300   3.129   5.141  13.248  0.4977  0.3868 -0.9992
 2295TIP3    H228301   3.042   5.227  13.158 -1.0584  0.0674  0.1644
 2296TIP3   OH228302   0.986   0.692  13.890  0.0360  0.1903 -0.2974
 2296TIP3    H128303   0.907   0.737  13.921  0.6306  0.5224  0.7941
 2296TIP3    H228304   0.975   0.688  13.795 -1.6567 -0.4747 -0.1227
 2297TIP3   OH228305   6.172   6.240  12.475 -0.0877  0.2480  0.5685
 2297TIP3    H128306   6.233   6.291  12.422 -0.8103  0.4489 -0.0868
 2297TIP3    H228307   6.107   6.208  12.412 -0.8939  0.3888  1.3135
 2298TIP3   OH228308   1.036   0.934  15.632 -0.4209  0.1075 -0.5207
 2298TIP3    H128309   1.066   0.978  15.552  0.9355 -2.0323 -1.2644
 2298TIP3    H228310   1.076   0.847  15.628 -1.7094 -0.6542  1.6666
 2299TIP3   OH228311   0.631   4.598  16.829  0.2891  0.3121  0.0890
 2299TIP3    H128312   0.543   4.636  16.823  0.5899  1.1019  0.4617
 2299TIP3    H228313   0.670   4.640  16.906  1.8825  1.9079 -1.4837
 2300TIP3   OH228314   1.424   2.123   5.003 -0.0968 -0.3138  0.9370
 2300TIP3    H128315   1.499   2.123   5.063  0.0420 -0.9849  0.7753
 2300TIP3    H228316   1.347   2.123   5.060  0.0329 -1.3689  1.1453
 2301TIP3   OH228317   4.570   5.054  14.203  0.6631 -0.6414  0.6594
 2301TIP3    H128318   4.631   5.105  14.149 -0.5666 -1.8985 -2.1347
 2301TIP3    H228319   4.598   4.963  14.192 -0.8946 -1.1239  0.3927
 2302TIP3   OH228320   1.428   4.176   3.047 -0.0775 -0.1647 -0.3037
 2302TIP3    H128321   1.513   4.134   3.036 -0.3172 -0.8224  0.2858
 2302TIP3    H228322   1.412   4.172   3.141 -0.4240  0.6278 -0.3255
 2303TIP3   OH228323   6.383   0.724  11.268  0.9172  0.0029 -0.0560
 2303TIP3    H128324   6.443   0.651  11.250  0.9253 -0.7047  2.5243
 2303TIP3    H228325   6.297   0.683  11.277  0.9490  0.2514  1.6018
 2304TIP3   OH228326   4.536   5.405   2.353  0.6230 -0.3944  0.0681
 2304TIP3    H128327   4.618   5.368   2.385  0.6363 -0.6514 -0.2577
 2304TIP3    H228328   4.468   5.363   2.405  0.7024 -0.0605  0.4522
 2305TIP3   OH228329   2.694   2.785  11.189 -0.0193  0.0888  0.3439
 2305TIP3    H128330   2.623   2.811  11.248 -0.3349  1.1578 -0.4672
 2305TIP3    H228331   2.682   2.840  11.112  1.1035 -0.4302 -0.2240
 2306TIP3   OH228332   3.624   1.926  16.930 -0.1733  0.0372  0.1316
 2306TIP3    H128333   3.664   1.867  16.993 -0.3584  2.9526  3.2757
 2306TIP3    H228334   3.694   1.948  16.869  0.7415 -0.9006  0.8135
 2307TIP3   OH228335   3.593   4.924   6.023  0.2365  0.9991  0.3236
 2307TIP3    H128336   3.630   4.952   6.107  0.4910 -1.1527  1.0028
 2307TIP3    H228337   3.503   4.957   6.024  0.1305  0.7211  1.6252
 2308TIP3   OH228338   2.925   5.490  11.219  0.5582  0.2971  0.1126
 2308TIP3    H128339   2.999   5.446  11.261  0.4736 -1.7307 -1.7072
 2308TIP3    H228340   2.962   5.569  11.180  2.0345 -1.1891 -1.6261
 2309TIP3   OH228341   6.750   3.542   5.090 -0.1034 -0.1720 -0.2712
 2309TIP3    H128342   6.731   3.617   5.034 -1.6819 -1.3058 -1.3176
 2309TIP3    H228343   6.703   3.469   5.050  0.6294 -1.5394  1.2407
 2310TIP3   OH228344   4.831   0.127  16.274  0.0758  0.4016 -0.3676
 2310TIP3    H128345   4.772   0.148  16.202  0.1567  0.6377 -0.3645
 2310TIP3    H228346   4.777   0.136  16.353 -0.0379  0.0510 -0.4021
 2311TIP3   OH228347   2.484   1.884  14.294  0.5244 -0.3941 -0.3246
 2311TIP3    H128348   2.420   1.933  14.345  1.4607  0.2410  0.2818
 2311TIP3    H228349   2.567   1.928  14.311  0.6793  0.8953 -3.6816
 2312TIP3   OH228350   2.917   1.590   0.828  0.9836 -0.1866 -0.2367
 2312TIP3    H128351   2.989   1.633   0.874  2.0368 -2.4173  0.3335
 2312TIP3    H228352   2.960   1.530   0.767 -0.3335 -1.9947  0.5276
 2313TIP3   OH228353   4.912   0.568   6.098 -0.6540  0.5024 -0.3072
 2313TIP3    H128354   4.988   0.627   6.089 -0.5573  1.1714  3.1890
 2313TIP3    H228355   4.947   0.491   6.143 -1.7278  0.0550 -0.2141
 2314TIP3   OH228356   4.940   4.374   1.655 -0.2430 -0.4635  0.3014
 2314TIP3    H128357   4.969   4.301   1.709  0.2406 -0.7216 -0.2856
 2314TIP3    H228358   4.949   4.342   1.565 -2.4167 -0.5703  0.0670
 2315TIP3   OH228359   3.672   6.783  12.809  0.2146  0.3815 -0.5498
 2315TIP3    H128360   3.591   6.754  12.849  0.0176  0.5081 -0.8536
 2315TIP3    H228361   3.655   6.781  12.715  0.2675  1.2696 -0.5903
 2316TIP3   OH228362   0.510   2.856   0.251 -0.1191 -0.0494 -0.5737
 2316TIP3    H128363   0.594   2.857   0.205 -0.3269  0.8734 -0.9499
 2316TIP3    H228364   0.533   2.854   0.344  0.3265  0.7423 -0.6622
 2317TIP3   OH228365   0.542   2.860   1.467  0.8202  0.2767 -0.3249
 2317TIP3    H128366   0.518   2.772   1.497 -1.6855  0.7848 -0.5706
 2317TIP3    H228367   0.543   2.913   1.546  0.1413  0.4382 -0.4172
 2318TIP3   OH228368   5.719   4.859  14.874  0.9181 -0.2272 -0.0935
 2318TIP3    H128369   5.753   4.784  14.825  0.0928 -0.3270 -0.5358
 2318TIP3    H228370   5.635   4.829  14.908  0.9644  0.2272  0.4388
 2319TIP3   OH228371   1.408   2.689  11.890 -0.1025 -0.7756  0.4667
 2319TIP3    H128372   1.316   2.707  11.909 -0.2855 -0.1340 -0.9520
 2319TIP3    H228373   1.455   2.722  11.967 -0.5836  4.1469 -0.9658
 2320TIP3   OH228374   1.606   1.445   5.565  0.3298 -0.2050  0.0115
 2320TIP3    H128375   1.576   1.486   5.484  0.4816 -1.3492 -0.6492
 2320TIP3    H228376   1.646   1.363   5.537  0.5437 -0.5458  1.2384
 2321TIP3   OH228377   2.387   5.850   2.787  0.6430 -0.2640  0.2783
 2321TIP3    H128378   2.350   5.781   2.843  0.2904  0.1301  0.5376
 2321TIP3    H228379   2.405   5.922   2.847 -1.9667  1.0841 -0.4173
 2322TIP3   OH228380   3.324   0.943   3.842 -0.7160  0.1909  0.9722
 2322TIP3    H128381   3.342   1.024   3.889 -0.7365  0.2391  0.8952
 2322TIP3    H228382   3.381   0.878   3.884  1.5727  0.8451 -0.9305
 2323TIP3   OH228383   3.434   6.061   0.020 -0.0358  0.5669 -0.1992
 2323TIP3    H128384   3.405   5.999  -0.047 -0.5227  0.3159  0.2446
 2323TIP3    H228385   3.415   6.018   0.103 -0.2647  1.2610  0.1090
 2324TIP3   OH228386   5.646   4.732  12.587 -0.2453  0.7137 -0.3178
 2324TIP3    H128387   5.591   4.662  12.623 -0.8268  0.6849 -1.2026
 2324TIP3    H228388   5.639   4.719  12.492  1.7619  0.3573 -0.4471
 2325TIP3   OH228389   3.795   2.331   2.882  0.0959  0.0339  0.3069
 2325TIP3    H128390   3.873   2.330   2.826  0.1450  1.7839  0.2828
 2325TIP3    H228391   3.723   2.351   2.822  0.2830  2.9978  0.9029
 2326TIP3   OH228392   0.351   0.102   2.058 -0.2477  0.4589  0.1202
 2326TIP3    H128393   0.293   0.027   2.052  0.7445 -0.3300  0.0985
 2326TIP3    H228394   0.434   0.066   2.091 -0.1091  1.7392  1.2409
 2327TIP3   OH228395   5.804   0.414  16.806  0.2584 -0.0743 -0.4241
 2327TIP3    H128396   5.755   0.429  16.887  1.7458 -1.4697  0.7855
 2327TIP3    H228397   5.739   0.428  16.737 -1.5178 -0.5341  1.0511
 2328TIP3   OH228398   3.718   3.899   6.114  0.0477 -0.1265  0.2946
 2328TIP3    H128399   3.788   3.961   6.136 -0.3102  0.5957 -0.5457
 2328TIP3    H228400   3.637   3.948   6.127 -0.2108  0.0397 -1.6334
 2329TIP3   OH228401   1.809   3.976  14.618 -0.3962  0.2294 -0.1550
 2329TIP3    H128402   1.779   4.049  14.673  1.6047  2.2808 -1.5615
 2329TIP3    H228403   1.904   3.988  14.614  0.0730 -2.8315 -0.0449
 2330TIP3   OH228404   2.057   0.609  16.801 -0.1252 -0.1820 -0.1343
 2330TIP3    H128405   1.987   0.616  16.866  0.1445 -0.6960  0.2218
 2330TIP3    H228406   2.137   0.594  16.853  0.1197 -0.4281 -0.5742
 2331TIP3   OH228407   5.508   1.380  13.777 -0.7670  0.1049  0.3260
 2331TIP3    H128408   5.476   1.467  13.804  1.8292  0.5730  2.2995
 2331TIP3    H228409   5.581   1.362  13.837  1.1123 -1.8625 -2.3270
 2332TIP3   OH228410   1.089   2.275  15.253  0.2843 -0.5889  0.0211
 2332TIP3    H128411   1.022   2.208  15.243  1.8547 -2.3192  0.4821
 2332TIP3    H228412   1.146   2.242  15.323  1.1741  1.1892  0.1909
 2333TIP3   OH228413   5.075   2.169   1.449  0.3265  0.0571 -0.2910
 2333TIP3    H128414   5.081   2.133   1.538 -0.8807  2.6933  0.9774
 2333TIP3    H228415   4.982   2.161   1.427  0.7603 -1.3571 -1.7190
 2334TIP3   OH228416   3.081   1.746  15.609 -0.1727  0.2051 -0.7507
 2334TIP3    H128417   3.150   1.713  15.667 -0.3916 -1.1273 -1.2246
 2334TIP3    H228418   3.120   1.745  15.522 -0.2263  1.1146 -0.7920
 2335TIP3   OH228419   3.360   6.449   1.622 -0.5276 -0.2271  0.4148
 2335TIP3    H128420   3.349   6.356   1.604  1.6314 -0.2948 -0.8706
 2335TIP3    H228421   3.285   6.491   1.579  0.0917 -1.1488 -1.6672
 2336TIP3   OH228422   6.294   3.773  12.436  0.1200 -0.5517  0.2809
 2336TIP3    H128423   6.331   3.765  12.348  0.4580  0.3385  0.3351
 2336TIP3    H228424   6.229   3.843  12.428  0.0575 -0.5600  0.7099
 2337TIP3   OH228425   0.522   2.643   3.953 -0.6505  0.0753  0.7171
 2337TIP3    H128426   0.430   2.619   3.942  0.1448 -2.8226 -0.6232
 2337TIP3    H228427   0.570   2.577   3.903  2.0704  3.7658 -2.2250
 2338TIP3   OH228428   4.112   5.543  15.556  0.8981  0.1073  0.0473
 2338TIP3    H128429   4.142   5.586  15.636  1.2047 -2.6313  1.5043
 2338TIP3    H228430   4.035   5.493  15.582 -0.3321  0.8805 -1.9105
 2339TIP3   OH228431   2.772   4.199  14.575  0.2709  0.0544  0.0618
 2339TIP3    H128432   2.766   4.294  14.589 -5.1300  0.1407 -0.7458
 2339TIP3    H228433   2.802   4.190  14.485 -2.3090  1.3493 -1.0494
 2340TIP3   OH228434   0.696   4.937   1.596  0.5728  0.8139 -0.0174
 2340TIP3    H128435   0.615   4.947   1.546 -0.3326 -0.1839  1.1748
 2340TIP3    H228436   0.743   4.866   1.552  0.3360  0.7295 -0.1348
 2341TIP3   OH228437   0.999   4.953  15.921  0.1826 -0.9707 -0.8894
 2341TIP3    H128438   0.971   4.921  16.007  1.1600  0.6678  0.0926
 2341TIP3    H228439   0.977   5.046  15.921  1.2075 -0.6966 -1.9687
 2342TIP3   OH228440   4.750   1.534   5.282 -0.5045 -0.3755 -0.1750
 2342TIP3    H128441   4.718   1.498   5.365  0.9049  0.0112  0.5752
 2342TIP3    H228442   4.767   1.626   5.301 -0.3954 -0.2269 -0.9671
 2343TIP3   OH228443   0.221   5.137  16.368  0.3314 -0.2716 -0.4795
 2343TIP3    H128444   0.150   5.177  16.418  0.4269  0.4823 -0.9356
 2343TIP3    H228445   0.280   5.100  16.434 -1.2790 -2.3555 -0.1007
 2344TIP3   OH228446   5.891   4.753   1.626 -0.3554  0.3282 -0.0857
 2344TIP3    H128447   5.873   4.846   1.640 -0.4859  0.3322 -0.2721
 2344TIP3    H228448   5.861   4.736   1.536  0.7436  0.3757 -0.4698
 2345TIP3   OH228449   3.404   2.968   3.316 -0.6115 -0.1091 -0.2278
 2345TIP3    H128450   3.425   2.964   3.223 -0.5573  0.3331 -0.2364
 2345TIP3    H228451   3.308   2.968   3.320 -0.6111 -0.5909 -0.2623
 2346TIP3   OH228452   0.755   3.007  15.998 -0.0153 -0.3528 -0.7306
 2346TIP3    H128453   0.731   2.951  16.072  0.2151  0.9783  0.3945
 2346TIP3    H228454   0.717   2.963  15.922  0.0507 -1.9608  0.1102
 2347TIP3   OH228455   0.146   5.581  13.308 -0.4625 -0.3742 -0.6682
 2347TIP3    H128456   0.066   5.565  13.357 -0.3357 -0.0039 -0.3391
 2347TIP3    H228457   0.128   5.544  13.221 -0.9275 -0.4425 -0.5481
 2348TIP3   OH228458   3.446   2.710   4.308  0.1848 -0.3691  0.1161
 2348TIP3    H128459   3.411   2.753   4.387  1.3743  0.8105  0.0341
 2348TIP3    H228460   3.396   2.629   4.302 -2.1257  0.9175  0.3387
 2349TIP3   OH228461   0.347   4.488  15.028  0.4250  0.3222  0.1737
 2349TIP3    H128462   0.381   4.404  15.056  1.3750  0.6640  0.0952
 2349TIP3    H228463   0.420   4.549  15.041 -0.5336  1.3130  1.1104
 2350TIP3   OH228464   2.116   6.537   3.748  0.7136  0.4498 -0.0496
 2350TIP3    H128465   2.074   6.618   3.776 -2.2139 -0.2496 -1.8639
 2350TIP3    H228466   2.061   6.468   3.785  1.4942 -0.6144 -0.8062
 2351TIP3   OH228467   0.266   3.330   4.079  0.2861  0.3038  0.1780
 2351TIP3    H128468   0.317   3.279   4.017 -1.2310  1.2767 -1.9736
 2351TIP3    H228469   0.177   3.298   4.069 -0.0127  0.5019  1.8770
 2352TIP3   OH228470   0.418   0.894   1.252  0.2671 -0.5465  0.3620
 2352TIP3    H128471   0.466   0.957   1.199  0.5163 -0.6729  0.4320
 2352TIP3    H228472   0.326   0.918   1.242  0.3978  0.2151  0.8790
 2353TIP3   OH228473   2.299   5.269  12.852  0.2482  0.1566  0.8847
 2353TIP3    H128474   2.381   5.318  12.846  1.0216 -1.1446  0.5614
 2353TIP3    H228475   2.322   5.188  12.897 -0.5807 -0.7692 -0.2852
 2354TIP3   OH228476   4.284   4.973  13.342 -0.3964  0.6295 -0.0489
 2354TIP3    H128477   4.344   4.942  13.274 -0.6568 -0.6733  0.2712
 2354TIP3    H228478   4.235   4.894  13.368 -2.9947  1.8051 -1.0148
 2355TIP3   OH228479   0.154   2.895  12.964 -0.5603  0.0070 -0.3750
 2355TIP3    H128480   0.074   2.936  12.997 -0.6418  0.5951 -1.2697
 2355TIP3    H228481   0.218   2.908  13.034 -0.9569  0.4778 -0.0900
 2356TIP3   OH228482   3.465   0.859   0.707  0.2111  0.5677  0.6545
 2356TIP3    H128483   3.426   0.901   0.630  0.0166  2.0271  1.5189
 2356TIP3    H228484   3.394   0.807   0.744 -0.0062  0.7207  0.4576
 2357TIP3   OH228485   1.710   1.125  15.284  0.2669  0.4210 -0.1080
 2357TIP3    H128486   1.662   1.061  15.232  0.1833  0.5760 -0.2231
 2357TIP3    H228487   1.648   1.196  15.299 -0.9697 -1.1991  3.3799
 2358TIP3   OH228488   2.579   1.990   1.890 -0.3128  0.3409 -0.0808
 2358TIP3    H128489   2.544   1.975   1.802 -0.3637  0.6169 -0.1102
 2358TIP3    H228490   2.674   1.995   1.877 -0.4120  2.3124 -0.4381
 2359TIP3   OH228491   4.406   3.223  15.195 -0.2288  0.3649 -0.0076
 2359TIP3    H128492   4.318   3.259  15.184 -0.4234 -0.0607  0.1189
 2359TIP3    H228493   4.464   3.299  15.193 -0.5480  0.5994 -0.6584
 2360TIP3   OH228494   3.224   2.561  16.962 -0.0418 -0.1564 -0.6601
 2360TIP3    H128495   3.274   2.619  17.019 -2.1067  1.9945 -0.8840
 2360TIP3    H228496   3.138   2.556  17.002 -0.0441 -2.8713 -0.8562
 2361TIP3   OH228497   5.527   0.872   1.248 -0.0364  0.2294 -0.3698
 2361TIP3    H128498   5.599   0.815   1.220 -0.9754 -2.0692  1.5603
 2361TIP3    H228499   5.562   0.920   1.323  0.4191  1.4770 -1.3504
 2362TIP3   OH228500   2.577   1.384   0.536 -0.2669 -0.3256 -0.8446
 2362TIP3    H128501   2.633   1.460   0.517 -0.0405 -0.1654  0.3814
 2362TIP3    H228502   2.633   1.308   0.517  0.8489 -0.1829  1.4609
 2363TIP3   OH228503   1.239   1.605  16.018 -0.4801  0.2117  0.9677
 2363TIP3    H128504   1.149   1.574  16.027 -0.7898  0.8253  0.0989
 2363TIP3    H228505   1.242   1.688  16.065 -0.5592  0.5354  0.4096
 2364TIP3   OH228506   0.913   3.163  11.100 -0.4550  0.1511 -0.2204
 2364TIP3    H128507   0.857   3.111  11.157 -0.3230  0.7722  0.4872
 2364TIP3    H228508   0.907   3.120  11.015 -3.6863  1.3693 -0.7515
 2365TIP3   OH228509   1.492   2.751  16.220  0.0413 -0.2791 -0.6822
 2365TIP3    H128510   1.446   2.782  16.298  0.0957 -0.7002 -0.4762
 2365TIP3    H228511   1.514   2.660  16.241  0.6306 -0.1962 -0.9283
 2366TIP3   OH228512   2.636   1.451  13.080 -0.2631  0.0355  0.0182
 2366TIP3    H128513   2.600   1.503  13.008 -0.5240  0.1421  0.2224
 2366TIP3    H228514   2.569   1.385  13.098 -0.2166  0.0347  0.1913
 2367TIP3   OH228515   4.154   0.187   0.372 -0.3355 -0.3174  0.7821
 2367TIP3    H128516   4.111   0.134   0.304 -3.3732  2.0327  0.6714
 2367TIP3    H228517   4.169   0.272   0.330  1.4073 -0.0337  1.9071
 2368TIP3   OH228518   2.670   2.209  13.106 -0.1254  0.7996  0.2126
 2368TIP3    H128519   2.596   2.163  13.069  0.4286 -0.8562  1.0648
 2368TIP3    H228520   2.631   2.278  13.161 -1.1792 -1.5079  2.5485
 2369TIP3   OH228521   0.278   1.438   3.066  0.3914 -0.5229 -0.4820
 2369TIP3    H128522   0.223   1.503   3.110  0.9677  0.5826 -1.3629
 2369TIP3    H228523   0.215   1.380   3.022 -0.1017  0.3777 -0.9870
 2370TIP3   OH228524   0.334   0.769  13.377 -0.2857  0.3363  0.1068
 2370TIP3    H128525   0.342   0.730  13.464 -1.4858  0.1097  0.1314
 2370TIP3    H228526   0.399   0.839  13.376  0.6170 -0.4633  0.7261
 2371TIP3   OH228527   3.799   2.189  14.010  0.7149  0.5496 -0.1521
 2371TIP3    H128528   3.856   2.262  13.986  0.5042  0.4086 -1.1214
 2371TIP3    H228529   3.792   2.137  13.930  2.8311 -1.9183  1.0814
 2372TIP3   OH228530   5.098   3.399   2.093  0.0923  0.5086 -0.4272
 2372TIP3    H128531   5.023   3.454   2.069  1.0303  2.2673  0.4900
 2372TIP3    H228532   5.161   3.411   2.022  0.0930  0.1861 -0.4832
 2373TIP3   OH228533   5.134   6.525  14.726  0.3696  0.4954 -0.1246
 2373TIP3    H128534   5.100   6.490  14.808 -0.0503 -2.1302 -1.3119
 2373TIP3    H228535   5.057   6.553  14.677  0.2347 -1.2852 -1.0071
 2374TIP3   OH228536   2.953   2.978   5.412  0.4656  0.2329 -0.0627
 2374TIP3    H128537   2.940   2.917   5.340 -1.0783 -1.1088  1.2535
 2374TIP3    H228538   2.905   3.057   5.386  2.0954  0.7642 -1.5794
 2375TIP3   OH228539   2.196   0.660  16.407 -0.3409 -0.2445  0.3375
 2375TIP3    H128540   2.257   0.642  16.335 -1.0125 -1.0028 -0.0630
 2375TIP3    H228541   2.185   0.575  16.450 -0.7254 -0.0076  0.7058
 2376TIP3   OH228542   2.685   4.130   0.263 -0.6299 -0.0418 -0.2619
 2376TIP3    H128543   2.717   4.143   0.353 -1.2521  2.5762 -0.3361
 2376TIP3    H228544   2.663   4.218   0.233 -3.7602 -1.1711 -1.7496
 2377TIP3   OH228545   2.347   5.856   1.554 -0.2446 -0.5046 -0.4163
 2377TIP3    H128546   2.303   5.835   1.636  0.9223 -1.1161  0.0904
 2377TIP3    H228547   2.432   5.811   1.560  0.3755  0.4632 -1.4224
 2378TIP3   OH228548   2.933   3.943  14.935 -0.3944 -0.2645  0.1703
 2378TIP3    H128549   2.850   3.930  14.981 -0.0651  0.0487  0.8622
 2378TIP3    H228550   2.946   3.863  14.884 -1.2512 -0.2041 -0.1539
 2379TIP3   OH228551   2.798   1.137   2.588 -0.2453  0.3520 -0.2234
 2379TIP3    H128552   2.720   1.153   2.642 -0.1191 -1.3781  0.5177
 2379TIP3    H228553   2.798   1.210   2.526 -2.5249  0.3498 -0.3380
 2380TIP3   OH228554   4.756   1.147  13.654 -0.1999 -0.2535 -1.1437
 2380TIP3    H128555   4.814   1.182  13.722 -0.5590  0.3814 -1.1509
 2380TIP3    H228556   4.671   1.187  13.673 -0.9117 -1.9731 -0.4986
 2381TIP3   OH228557   4.252   5.445   2.505  0.0265 -0.0590  0.1476
 2381TIP3    H128558   4.256   5.442   2.410 -0.0153 -2.3454  0.1675
 2381TIP3    H228559   4.273   5.536   2.527  0.1100  0.4975 -2.0133
 2382TIP3   OH228560   4.064   2.391  12.538  0.1224  0.1062  0.3918
 2382TIP3    H128561   4.085   2.333  12.465  1.1699  0.1343  0.6586
 2382TIP3    H228562   3.988   2.350  12.580  2.0508 -2.2955  1.8446
 2383TIP3   OH228563   5.417   3.934  15.350 -0.0884  0.3580  0.7865
 2383TIP3    H128564   5.476   4.002  15.315 -0.8266  0.6261  0.0271
 2383TIP3    H228565   5.470   3.888  15.415  1.1253  0.2925 -0.2055
 2384TIP3   OH228566   2.286   3.971   3.953 -0.0858  0.1493 -0.1570
 2384TIP3    H128567   2.344   3.981   3.877 -0.3477  0.7540 -0.2788
 2384TIP3    H228568   2.346   3.946   4.024  0.4269  1.3222 -0.1470
 2385TIP3   OH228569   4.626   2.294   4.492 -0.0917 -0.5316 -0.4569
 2385TIP3    H128570   4.651   2.384   4.473 -0.5947  0.5716  3.4100
 2385TIP3    H228571   4.560   2.273   4.425 -0.3298  2.1159 -1.1589
 2386TIP3   OH228572   6.380   4.425  12.615  0.1680 -0.1775  0.1381
 2386TIP3    H128573   6.338   4.465  12.692 -2.2191  0.9591 -1.6227
 2386TIP3    H228574   6.451   4.486  12.593 -1.3122  1.4135 -0.5105
 2387TIP3   OH228575   1.875   4.184  13.664  0.0583  0.1931  0.3105
 2387TIP3    H128576   1.794   4.173  13.615  0.1475 -0.5846  0.3240
 2387TIP3    H228577   1.925   4.104  13.645  1.1946  1.0481 -0.3852
 2388TIP3   OH228578   3.220   3.465  13.770 -0.2671  0.0228  0.0958
 2388TIP3    H128579   3.188   3.508  13.850 -0.2884 -0.4592  0.3542
 2388TIP3    H228580   3.144   3.460  13.713 -0.6198 -0.9085  0.6168
 2389TIP3   OH228581   2.583   3.896   6.240  0.0102  0.4642  0.3319
 2389TIP3    H128582   2.595   3.947   6.320  0.6549  2.3148 -0.8805
 2389TIP3    H228583   2.563   3.808   6.270 -0.5678  1.2955  2.5204
 2390TIP3   OH228584   1.741   0.785   3.857 -0.2568 -0.5109  0.1547
 2390TIP3    H128585   1.786   0.869   3.847 -0.9427 -0.2020 -0.4335
 2390TIP3    H228586   1.648   0.807   3.863 -0.3092 -1.0990  1.9881
 2391TIP3   OH228587   2.836   2.555   5.409  0.4605 -0.1517 -0.3575
 2391TIP3    H128588   2.847   2.620   5.479  1.3677 -0.2489 -0.4113
 2391TIP3    H228589   2.883   2.478   5.440 -1.4808 -1.2006  0.1962
 2392TIP3   OH228590   1.311   3.004   5.034 -0.1571  0.2332  0.2964
 2392TIP3    H128591   1.241   2.960   4.987 -0.1863  1.2333 -0.6451
 2392TIP3    H228592   1.390   2.954   5.014  0.0333  1.2852 -1.7971
 2393TIP3   OH228593   6.471   4.715  14.138 -0.5949 -0.2313 -0.0030
 2393TIP3    H128594   6.383   4.675  14.136  0.0200 -1.7076 -2.4856
 2393TIP3    H228595   6.527   4.647  14.175 -0.2634  0.1897  0.2791
 2394TIP3   OH228596   1.929   0.401   3.332 -0.5492  0.6124 -0.5107
 2394TIP3    H128597   1.968   0.446   3.257 -1.5457  0.9524 -0.8273
 2394TIP3    H228598   1.835   0.411   3.321 -0.7262  0.2592  0.5408
 2395TIP3   OH228599   2.920   1.533  11.501  0.1786 -0.1513 -0.0507
 2395TIP3    H128600   2.880   1.559  11.584 -1.0844  0.2676 -0.7660
 2395TIP3    H228601   2.862   1.466  11.466  1.7077 -1.7212  0.2574
 2396TIP3   OH228602   2.333   4.285   1.247 -0.2851  0.4085  0.0980
 2396TIP3    H128603   2.346   4.202   1.294 -2.1339  1.6419  3.0647
 2396TIP3    H228604   2.327   4.351   1.315  0.8100  3.0380 -2.1510
 2397TIP3   OH228605   0.482   5.386   5.431  0.6237  0.5305  0.0594
 2397TIP3    H128606   0.403   5.366   5.481  0.7496  0.1034  0.0928
 2397TIP3    H228607   0.453   5.449   5.364 -0.3064 -1.4277 -1.4889
 2398TIP3   OH228608   5.171   4.094  12.203  0.1599 -0.2009  0.5485
 2398TIP3    H128609   5.205   4.111  12.115 -0.4662 -1.9025 -0.0673
 2398TIP3    H228610   5.093   4.150  12.210 -1.4038 -2.0001 -1.1049
 2399TIP3   OH228611   5.889   3.263  10.519 -0.2057  0.4579 -0.4705
 2399TIP3    H128612   5.933   3.346  10.535  0.2088  0.0825  0.4708
 2399TIP3    H228613   5.800   3.276  10.549 -0.2059  0.6382 -0.5525
 2400TIP3   OH228614   5.377   3.257  16.092  0.5667 -0.1987 -0.1249
 2400TIP3    H128615   5.325   3.249  16.172 -0.0923  0.1140 -0.5084
 2400TIP3    H228616   5.467   3.241  16.119  0.2600 -0.8556  0.5407
 2401TIP3   OH228617   3.518   4.237   4.250 -0.1389  0.4011  0.2606
 2401TIP3    H128618   3.597   4.286   4.228 -0.4169  1.1779  0.9575
 2401TIP3    H228619   3.520   4.228   4.345 -0.1860 -0.7941  0.1624
 2402TIP3   OH228620   2.301   0.497  16.881 -0.4350 -0.2671  0.0215
 2402TIP3    H128621   2.324   0.574  16.934  0.8366 -1.4589  1.2837
 2402TIP3    H228622   2.358   0.503  16.804  0.8156 -0.7519  0.8846
 2403TIP3   OH228623   4.318   2.919  11.671  0.2989 -0.4065  0.2778
 2403TIP3    H128624   4.283   2.835  11.644  0.4029 -0.7741  1.2327
 2403TIP3    H228625   4.398   2.931  11.619 -0.5519 -0.1493 -0.9962
 2404TIP3   OH228626   6.294   2.738  10.870  0.4036 -0.3799 -0.0119
 2404TIP3    H128627   6.247   2.764  10.949 -0.1220 -0.2822 -0.3450
 2404TIP3    H228628   6.224   2.710  10.810  0.7804 -0.2696 -0.5047
 2405TIP3   OH228629   2.484   1.886  12.307 -0.0867 -0.1755 -0.4696
 2405TIP3    H128630   2.495   1.980  12.317  1.9537 -0.4515  0.4131
 2405TIP3    H228631   2.511   1.868  12.216  0.4779 -0.0116 -0.3397
 2406TIP3   OH228632   6.148   3.790   0.009  0.3262 -0.4309  0.1094
 2406TIP3    H128633   6.186   3.751   0.088 -0.1964 -1.7296 -0.2576
 2406TIP3    H228634   6.070   3.835   0.041  0.4159 -0.4859  0.4153
 2407TIP3   OH228635   1.881   6.756   1.160 -0.6982 -0.6170 -0.5426
 2407TIP3    H128636   1.885   6.713   1.246  1.7582 -0.7398 -0.6460
 2407TIP3    H228637   1.859   6.847   1.180  0.8987 -0.3955  0.3717
 2408TIP3   OH228638   4.443   6.420   5.107 -0.1271  0.2401  0.2873
 2408TIP3    H128639   4.374   6.368   5.149 -0.6459  2.7967  2.9489
 2408TIP3    H228640   4.500   6.447   5.179  0.8936  2.1418 -1.1285
 2409TIP3   OH228641   3.739   1.200  16.599  0.5357  0.0347 -0.1640
 2409TIP3    H128642   3.682   1.277  16.590 -1.6422 -1.3762  0.7434
 2409TIP3    H228643   3.811   1.230  16.655  2.2143  2.5769 -3.3182
 2410TIP3   OH228644   5.879   3.217  14.608  0.1831 -0.2348 -0.5050
 2410TIP3    H128645   5.897   3.274  14.683  0.6218 -1.0600  0.0348
 2410TIP3    H228646   5.872   3.276  14.533  0.6045  0.5195  0.0441
 2411TIP3   OH228647   1.528   3.043  12.075  1.3979 -0.0114 -0.2059
 2411TIP3    H128648   1.534   2.951  12.050  1.0427  0.2387 -1.2897
 2411TIP3    H228649   1.508   3.089  11.993 -4.9494  0.4237  1.0855
 2412TIP3   OH228650   3.574   0.826   3.892 -0.4217 -0.0272 -0.0880
 2412TIP3    H128651   3.612   0.750   3.846  0.1519  1.1597 -1.6710
 2412TIP3    H228652   3.639   0.848   3.959 -1.6631 -2.3180  2.0512
 2413TIP3   OH228653   0.006   4.524   1.148 -0.4598 -0.7453  0.7573
 2413TIP3    H128654   0.099   4.544   1.158  0.1264 -2.4910 -0.6078
 2413TIP3    H228655  -0.035   4.558   1.227  1.8443 -2.8979  3.0600
 2414TIP3   OH228656   5.042   1.501   2.870 -0.0061 -0.4612  0.1506
 2414TIP3    H128657   5.076   1.422   2.827  0.2302  0.1958 -0.8971
 2414TIP3    H228658   5.115   1.532   2.923  0.2418 -0.3838 -0.2327
 2415TIP3   OH228659   3.811   2.886  13.644 -0.4613  0.2867 -0.0186
 2415TIP3    H128660   3.805   2.967  13.594  0.5612 -0.1351 -0.8758
 2415TIP3    H228661   3.797   2.913  13.735  0.6891  1.5736 -0.1890
 2416TIP3   OH228662   6.554   4.956   2.109  0.3246 -0.1411 -0.5688
 2416TIP3    H128663   6.520   4.923   2.026  0.2097  0.2087 -0.6612
 2416TIP3    H228664   6.631   4.903   2.126  0.2413 -0.3399 -0.8065
 2417TIP3   OH228665   1.936   1.753  13.097 -0.3592 -0.2197 -0.0184
 2417TIP3    H128666   2.029   1.730  13.099 -0.6173 -1.3519 -0.0675
 2417TIP3    H228667   1.920   1.781  13.007  0.0583  0.5841  0.1466
 2418TIP3   OH228668   2.973   4.696   0.721 -0.4675  0.2073 -0.0371
 2418TIP3    H128669   2.878   4.697   0.730 -0.6469 -0.6983 -1.4389
 2418TIP3    H228670   2.997   4.604   0.724  0.3682  0.4156  0.1809
 2419TIP3   OH228671   3.392   2.756  16.274 -0.4462  0.3177 -0.3410
 2419TIP3    H128672   3.305   2.787  16.298 -0.4985 -0.8453  1.0917
 2419TIP3    H228673   3.415   2.693  16.342  0.6810 -0.9289 -1.8074
 2420TIP3   OH228674   2.089   5.819  14.456  0.8383  0.1004 -0.2800
 2420TIP3    H128675   2.143   5.897  14.439  0.5812  0.5712  0.9388
 2420TIP3    H228676   2.098   5.804  14.550 -0.2897 -0.4596 -0.2446
 2421TIP3   OH228677   5.087   1.645  14.652 -0.0675 -0.4705  0.2593
 2421TIP3    H128678   5.180   1.633  14.633 -0.1328  0.0938 -0.5019
 2421TIP3    H228679   5.084   1.677  14.742  0.5363  0.2379  0.0376
 2422TIP3   OH228680   1.490   2.509  14.756 -0.0214 -0.9079  0.1597
 2422TIP3    H128681   1.563   2.531  14.698  0.1260  1.5749  1.1443
 2422TIP3    H228682   1.530   2.499  14.843 -0.7060 -0.4858  0.5371
 2423TIP3   OH228683   2.067   3.074   2.685 -0.1501  0.0479  0.0793
 2423TIP3    H128684   2.064   3.148   2.747  0.6577 -0.0980  0.3031
 2423TIP3    H228685   2.160   3.067   2.662 -0.2798 -0.6742 -0.2176
 2424TIP3   OH228686   2.302   0.889   5.775  0.0193  0.3467 -0.1890
 2424TIP3    H128687   2.257   0.946   5.713 -0.0047  2.0362  1.2970
 2424TIP3    H228688   2.233   0.856   5.832 -0.1043 -2.0194 -1.5854
 2425TIP3   OH228689   2.534   5.512  15.401 -0.3640 -0.1275 -0.2099
 2425TIP3    H128690   2.442   5.492  15.421 -0.6994  2.2983  1.1208
 2425TIP3    H228691   2.569   5.547  15.482  1.9714 -1.5318 -0.5361
 2426TIP3   OH228692   3.251   0.332  16.271 -0.0250 -0.0771 -0.0905
 2426TIP3    H128693   3.187   0.262  16.284  1.2703 -1.4362 -0.6165
 2426TIP3    H228694   3.321   0.311  16.333  0.2972  0.8774 -0.1195
 2427TIP3   OH228695   5.032   4.646   0.194 -0.0479  0.0378  0.4561
 2427TIP3    H128696   5.031   4.741   0.186  0.7666  0.0413  0.2340
 2427TIP3    H228697   5.030   4.614   0.103  1.6866 -0.0988  0.4355
 2428TIP3   OH228698   3.037   4.866  13.925 -0.0359  0.4155 -0.1309
 2428TIP3    H128699   3.014   4.954  13.897  3.1183  1.0269 -1.2139
 2428TIP3    H228700   3.105   4.879  13.991  0.2015 -1.2263 -0.0169
 2429TIP3   OH228701   0.123   2.983   3.231  0.1949  0.2698 -0.0899
 2429TIP3    H128702   0.065   2.913   3.261  0.2083  0.3055  0.0185
 2429TIP3    H228703   0.100   3.058   3.285 -1.6743  1.1321 -1.9395
 2430TIP3   OH228704   2.803   4.694   3.662  0.1573  0.0414  0.1922
 2430TIP3    H128705   2.811   4.726   3.573  0.0191  0.0173  0.1709
 2430TIP3    H228706   2.833   4.603   3.658 -1.1270 -0.3940 -0.1061
 2431TIP3   OH228707   2.022   1.547   6.157 -0.1309  0.0755 -0.2739
 2431TIP3    H128708   1.978   1.543   6.072  1.8616  2.1688 -1.5284
 2431TIP3    H228709   2.111   1.576   6.137  0.9543 -1.0537  2.4066
 2432TIP3   OH228710   0.570   3.019   1.706 -0.3035 -0.4856 -0.3806
 2432TIP3    H128711   0.646   2.990   1.755 -0.0591 -2.4941 -1.8218
 2432TIP3    H228712   0.593   3.107   1.675  0.3881 -0.0711  1.2284
 2433TIP3   OH228713   3.314   1.847   5.578  0.0269 -0.5026  0.0567
 2433TIP3    H128714   3.319   1.875   5.670  0.8313 -0.4531  0.0073
 2433TIP3    H228715   3.344   1.756   5.579  0.2053 -0.4480 -0.1737
 2434TIP3   OH228716   3.878   4.861   0.976  0.1409 -0.1320  0.3268
 2434TIP3    H128717   3.789   4.861   1.009  0.0501 -2.1899  0.2207
 2434TIP3    H228718   3.870   4.839   0.883  0.7426 -0.1179  0.2632
 2435TIP3   OH228719   1.936   3.913  15.443 -0.6870 -0.1003  0.7006
 2435TIP3    H128720   1.895   3.891  15.527 -0.1879  1.0760  1.2818
 2435TIP3    H228721   2.027   3.933  15.466  0.1099 -2.0235 -0.4685
 2436TIP3   OH228722   1.587   0.730  11.172  0.6193 -0.9620 -0.1195
 2436TIP3    H128723   1.609   0.638  11.183 -1.0718 -1.6694 -1.8647
 2436TIP3    H228724   1.492   0.734  11.186  0.3000  0.0625 -2.0700
 2437TIP3   OH228725   3.788   6.668  14.405  0.1117 -0.0305  0.2820
 2437TIP3    H128726   3.824   6.656  14.493  1.1706 -1.2426 -0.2884
 2437TIP3    H228727   3.836   6.606  14.351 -2.6280 -1.5378 -0.6052
 2438TIP3   OH228728   0.802   5.995   6.796 -0.5441 -0.1330  0.5934
 2438TIP3    H128729   0.780   5.902   6.800  0.5605 -0.4186  0.2908
 2438TIP3    H228730   0.721   6.040   6.822 -1.0368 -1.1726  0.9045
 2439TIP3   OH228731   2.615   0.270   2.972 -0.2319  0.0642 -0.1167
 2439TIP3    H128732   2.696   0.232   2.938 -1.0395 -1.3125 -0.5856
 2439TIP3    H228733   2.547   0.240   2.911 -1.0857  1.2666  0.2154
 2440TIP3   OH228734   5.278   1.702   1.935  0.0973  0.0354  0.0694
 2440TIP3    H128735   5.278   1.763   2.009 -1.9707  1.1945 -0.8076
 2440TIP3    H228736   5.257   1.617   1.974  1.9662  0.0258  1.1628
 2441TIP3   OH228737   3.528   3.711  13.698  0.1897  0.4534  0.4355
 2441TIP3    H128738   3.448   3.733  13.651  0.9464 -0.7148 -1.4968
 2441TIP3    H228739   3.580   3.791  13.699 -0.1130  0.6577 -0.1799
 2442TIP3   OH228740   3.248   0.510   5.186  0.0720  0.7263 -0.1172
 2442TIP3    H128741   3.162   0.526   5.147 -0.0488  0.2361 -0.0668
 2442TIP3    H228742   3.267   0.588   5.238 -1.1400  0.1108  1.3124
 2443TIP3   OH228743   2.458   4.132  15.489  0.0686  0.2822 -0.4342
 2443TIP3    H128744   2.438   4.162  15.578 -0.2266  1.2325 -0.8040
 2443TIP3    H228745   2.525   4.193  15.458  0.7687 -0.5390 -0.5846
 2444TIP3   OH228746   4.244   5.442   3.874  0.3399  0.0927  0.7202
 2444TIP3    H128747   4.251   5.347   3.871  1.0446  0.1548 -0.4968
 2444TIP3    H228748   4.208   5.466   3.789  3.4359  1.0937 -0.4378
 2445TIP3   OH228749   0.236   1.205   0.724  0.5369 -0.1804  0.1907
 2445TIP3    H128750   0.160   1.242   0.768 -0.9974 -1.3685 -1.3288
 2445TIP3    H228751   0.201   1.135   0.669  3.0027 -2.2063  1.0167
 2446TIP3   OH228752   6.472   3.864   3.377 -0.3111 -0.3580 -0.1096
 2446TIP3    H128753   6.430   3.913   3.306 -0.2490 -0.0966  0.0306
 2446TIP3    H228754   6.401   3.816   3.419 -0.1608 -1.4989 -1.1243
 2447TIP3   OH228755   4.623   3.898  16.417  0.6178 -0.0711  0.5026
 2447TIP3    H128756   4.705   3.864  16.452  0.9414  1.2310  1.0829
 2447TIP3    H228757   4.563   3.896  16.491  0.5067  0.1938  0.4190
 2448TIP3   OH228758   3.498   4.410   1.456 -0.5513 -0.0974  0.2796
 2448TIP3    H128759   3.539   4.466   1.390  1.0817 -0.4237  0.9492
 2448TIP3    H228760   3.438   4.354   1.407 -0.8939  1.0333 -0.6315
 2449TIP3   OH228761   2.773   5.481   2.139 -0.2626  0.0719  0.0037
 2449TIP3    H128762   2.865   5.463   2.119 -0.0468 -0.9800  1.7093
 2449TIP3    H228763   2.736   5.510   2.056  1.4860  0.0237 -0.8467
 2450TIP3   OH228764   6.142   3.454  12.757  0.3594  0.7438  0.6153
 2450TIP3    H128765   6.073   3.508  12.796 -1.4902 -2.7977  2.7082
 2450TIP3    H228766   6.222   3.481  12.803  0.5230  4.4832 -1.4139
 2451TIP3   OH228767   5.417   2.200   1.228  0.0518  0.1685 -0.2275
 2451TIP3    H128768   5.458   2.285   1.237 -1.3199  0.9458 -0.8779
 2451TIP3    H228769   5.361   2.191   1.305  0.5392 -0.3550  0.0706
 2452TIP3   OH228770   5.329   2.445  14.754  0.4902 -0.4020 -0.5595
 2452TIP3    H128771   5.287   2.530  14.736  1.9167  0.3984 -0.2975
 2452TIP3    H228772   5.264   2.380  14.729 -1.2161  0.7721  0.5962
 2453TIP3   OH228773   6.198   5.130   1.957  0.3788  0.0920 -0.1592
 2453TIP3    H128774   6.135   5.154   1.889  0.3104  2.2400  0.5852
 2453TIP3    H228775   6.190   5.035   1.964  0.3259 -0.2302 -3.0593
 2454TIP3   OH228776   2.015   3.157   3.140 -0.2363 -0.2350 -0.3266
 2454TIP3    H128777   1.971   3.217   3.079  1.4317  0.2434 -1.0978
 2454TIP3    H228778   2.101   3.141   3.101  1.0177  0.3124  2.0404
 2455TIP3   OH228779   4.181   3.659  15.437  0.1190  0.7978 -0.4823
 2455TIP3    H128780   4.139   3.592  15.492  2.4648 -0.4775 -0.0764
 2455TIP3    H228781   4.115   3.683  15.372 -1.2516 -0.9357  0.1953
 2456TIP3   OH228782   1.921   2.595  10.788 -0.8643  0.6481 -0.4555
 2456TIP3    H128783   1.910   2.506  10.754 -0.2189  1.1608 -2.0964
 2456TIP3    H228784   1.979   2.585  10.864 -1.3441 -0.3947 -0.2097
 2457TIP3   OH228785   2.480   3.572  17.251 -0.3823 -0.5915  0.1262
 2457TIP3    H128786   2.413   3.586  17.318 -0.5182 -0.5434 -0.0196
 2457TIP3    H228787   2.559   3.614  17.286 -0.5036 -0.4010  0.1700
 2458TIP3   OH228788   1.234   5.330   0.646  0.4286  0.0084  0.0469
 2458TIP3    H128789   1.281   5.263   0.695 -0.1955  0.5803  1.4897
 2458TIP3    H228790   1.147   5.332   0.686 -0.2089  0.3088 -1.2940
 2459TIP3   OH228791   6.724   1.204  11.189  0.6757 -0.4056 -0.2354
 2459TIP3    H128792   6.673   1.258  11.128 -1.2547 -0.9630  0.7960
 2459TIP3    H228793   6.723   1.116  11.151  0.5313 -0.4942 -0.0323
 2460TIP3   OH228794   4.336   3.936   3.969 -0.1359  0.5846  0.2793
 2460TIP3    H128795   4.268   3.950   3.903  1.5072 -1.1006 -1.9609
 2460TIP3    H228796   4.332   3.843   3.988  1.7270  0.3551 -0.2279
 2461TIP3   OH228797   1.241   4.310  12.437 -0.3217 -0.5508 -0.4935
 2461TIP3    H128798   1.269   4.376  12.373  1.2221 -2.8669 -2.4006
 2461TIP3    H228799   1.154   4.283  12.408 -0.8676  0.4459  0.1696
 2462TIP3   OH228800   2.702   6.420  15.904  0.5027 -0.1739  0.2062
 2462TIP3    H128801   2.692   6.347  15.965 -0.0061  0.9935  1.5762
 2462TIP3    H228802   2.759   6.482  15.950  0.8058  0.3735 -0.8651
 2463TIP3   OH228803   1.269   2.522   0.630 -0.3983 -0.2029  0.4792
 2463TIP3    H128804   1.284   2.435   0.666  0.6984  0.6077  2.1379
 2463TIP3    H228805   1.350   2.570   0.649 -0.0058  0.5370 -2.5213
 2464TIP3   OH228806   5.508   3.694   3.823  0.0683 -0.0924  0.1405
 2464TIP3    H128807   5.485   3.725   3.911 -2.3267  2.3504 -1.2011
 2464TIP3    H228808   5.544   3.771   3.779  1.3866 -1.3125 -1.0076
 2465TIP3   OH228809   3.567   3.217   6.095  0.7063 -0.7662 -0.6203
 2465TIP3    H128810   3.523   3.145   6.139 -1.3660  0.3777 -0.6989
 2465TIP3    H228811   3.511   3.239   6.021  1.0921  1.1259 -0.4151
 2466TIP3   OH228812   6.310   0.826   4.811 -0.1532 -0.6973 -0.5309
 2466TIP3    H128813   6.357   0.896   4.766  1.5874 -1.1605  0.5121
 2466TIP3    H228814   6.229   0.816   4.760  0.4645  0.6962 -1.8725
 2467TIP3   OH228815   0.810   3.045   1.803  0.3975  0.2870  0.3599
 2467TIP3    H128816   0.888   3.040   1.748  1.4268  1.8873  1.5536
 2467TIP3    H228817   0.844   3.050   1.893 -1.2037 -2.0169  1.1957
 2468TIP3   OH228818   6.437   6.539   1.082  0.3364 -0.4379 -0.0102
 2468TIP3    H128819   6.426   6.566   0.990  0.5559 -1.2271 -0.2786
 2468TIP3    H228820   6.529   6.514   1.088 -0.0706 -2.0542 -0.0494
 2469TIP3   OH228821   6.613   4.033   5.628  0.2642 -0.1766 -0.1571
 2469TIP3    H128822   6.596   4.081   5.547 -0.9946  1.3431  0.9404
 2469TIP3    H228823   6.708   4.036   5.638  0.4239 -0.1909 -1.4406
 2470TIP3   OH228824   1.444   2.330  16.639 -0.2049  0.3974  0.3778
 2470TIP3    H128825   1.536   2.355  16.638 -0.0514 -0.0915 -1.4012
 2470TIP3    H228826   1.396   2.411  16.626  0.1753  0.2822 -2.4593
 2471TIP3   OH228827   1.192   5.061  14.446  0.3401  0.3328 -0.2533
 2471TIP3    H128828   1.234   5.043  14.530 -0.5437  0.8204  0.3060
 2471TIP3    H228829   1.205   4.981  14.395 -0.0008 -0.3553  0.7175
 2472TIP3   OH228830   0.554   4.520  13.796 -0.2000 -0.5233 -0.0853
 2472TIP3    H128831   0.525   4.478  13.714 -0.6676  1.8711 -1.2546
 2472TIP3    H228832   0.649   4.517  13.791 -0.2074  0.2270 -1.1130
 2473TIP3   OH228833   0.086   3.229   0.568  0.6889 -0.0622 -0.2302
 2473TIP3    H128834   0.046   3.312   0.594  0.4611 -0.2556  0.0435
 2473TIP3    H228835   0.120   3.246   0.480 -1.5216 -0.3967 -1.2061
 2474TIP3   OH228836   4.991   4.131   1.144 -0.3965  0.3847 -0.2207
 2474TIP3    H128837   4.949   4.215   1.127 -2.3270 -0.1849  1.3037
 2474TIP3    H228838   4.918   4.073   1.167  1.1852 -0.8067  2.1084
 2475TIP3   OH228839   2.067   6.649   5.121  0.1275  0.3483 -0.3735
 2475TIP3    H128840   1.993   6.709   5.117  0.4110  0.6286 -1.6537
 2475TIP3    H228841   2.037   6.570   5.076  0.9797  0.8955 -1.9661
 2476TIP3   OH228842   3.385   2.090   2.510  0.5429 -0.0962 -0.0768
 2476TIP3    H128843   3.301   2.081   2.466  0.9236 -0.9073 -0.6798
 2476TIP3    H228844   3.432   2.156   2.458 -0.0826  1.1292  0.8688
 2477TIP3   OH228845   6.442   2.000   0.963 -0.1727  1.0003  0.5749
 2477TIP3    H128846   6.384   2.050   1.022 -2.0341 -0.7636  0.3393
 2477TIP3    H228847   6.482   1.934   1.020  0.4829  1.2909  0.4520
 2478TIP3   OH228848   5.695   2.980  10.678 -0.2885 -0.4408  0.2861
 2478TIP3    H128849   5.656   2.970  10.764 -0.8318 -1.0353 -0.0229
 2478TIP3    H228850   5.632   3.033  10.629  0.1873  0.2019  0.3585
 2479TIP3   OH228851   4.720   6.508   2.820  0.5696 -0.2660  0.2952
 2479TIP3    H128852   4.768   6.499   2.902  0.2597  1.6292  0.7353
 2479TIP3    H228853   4.634   6.469   2.839  0.3045  0.6567  1.0828
 2480TIP3   OH228854   5.560   6.551   0.667  0.2273  0.2544  0.0780
 2480TIP3    H128855   5.604   6.587   0.744 -0.9388  0.4399  0.6774
 2480TIP3    H228856   5.628   6.499   0.623  0.5640 -0.9999  1.9678
 2481TIP3   OH228857   6.347   3.957  13.052  0.4576  0.0764  1.2175
 2481TIP3    H128858   6.435   3.919  13.057  0.2826 -0.5164  0.1362
 2481TIP3    H228859   6.361   4.041  13.007  0.4426 -0.1518  0.7777
 2482TIP3   OH228860   0.460   5.770   3.761  0.4637  0.2436  0.3077
 2482TIP3    H128861   0.447   5.677   3.780 -0.6337  0.0446 -1.2279
 2482TIP3    H228862   0.550   5.787   3.787  0.7846 -1.3355  0.3558
 2483TIP3   OH228863   3.321   6.536   2.009  0.1606 -0.0105  0.1834
 2483TIP3    H128864   3.298   6.443   2.006  1.7753 -0.4332 -0.1127
 2483TIP3    H228865   3.237   6.581   2.016 -1.0221 -1.2797 -3.4025
 2484TIP3   OH228866   6.104   0.084  16.721  0.3255 -0.2264 -0.0659
 2484TIP3    H128867   6.052   0.043  16.652 -1.6240 -1.7012  2.1218
 2484TIP3    H228868   6.082   0.177  16.716  0.5050 -0.2558 -1.6265
 2485TIP3   OH228869   2.169   5.960   2.073  0.4992 -0.4026 -0.1288
 2485TIP3    H128870   2.208   5.918   2.149 -0.4679 -1.2667 -0.0924
 2485TIP3    H228871   2.138   6.045   2.105  2.1480  0.2343 -0.1196
 2486TIP3   OH228872   5.539   6.543  16.821 -0.6934  0.1593 -0.9065
 2486TIP3    H128873   5.563   6.595  16.744 -1.3276  3.7001  1.0688
 2486TIP3    H228874   5.444   6.534  16.816 -0.7959  0.8341 -0.3365
 2487TIP3   OH228875   2.276   4.299   4.344 -0.3895 -0.3977  0.8533
 2487TIP3    H128876   2.224   4.311   4.423 -0.6641 -0.5104  0.6906
 2487TIP3    H228877   2.366   4.317   4.371 -0.0133 -3.3324  1.9018
 2488TIP3   OH228878   6.159   4.696  16.058  0.3105 -0.2916 -0.0066
 2488TIP3    H128879   6.156   4.600  16.053 -2.1723 -0.3231  0.6494
 2488TIP3    H228880   6.073   4.724  16.026  1.0358  1.7400 -0.3059
 2489TIP3   OH228881   1.844   1.756   3.991 -0.1512 -0.2513  0.7009
 2489TIP3    H128882   1.912   1.694   4.017 -0.3310 -0.3935  0.8329
 2489TIP3    H228883   1.798   1.777   4.072 -0.7102 -0.6892  0.5076
 2490TIP3   OH228884   0.210   5.717  16.833  0.1344  0.0223 -0.2280
 2490TIP3    H128885   0.280   5.687  16.774  1.3986  2.0194  0.1518
 2490TIP3    H228886   0.130   5.709  16.781  0.9179 -0.3590 -1.4281
 2491TIP3   OH228887   1.280   1.702   3.454 -0.1358  0.1370 -0.0241
 2491TIP3    H128888   1.267   1.776   3.395 -1.1465  0.0216  0.0449
 2491TIP3    H228889   1.301   1.743   3.539  1.2642  0.3026 -0.4210
 2492TIP3   OH228890   4.933   1.427  14.756  0.3087 -0.4376 -0.7635
 2492TIP3    H128891   4.883   1.488  14.702 -0.5954  0.0422  0.5590
 2492TIP3    H228892   4.892   1.342  14.741 -0.2870 -0.2118 -0.4303
 2493TIP3   OH228893   1.130   3.664   2.397  0.2676  0.3263 -0.0187
 2493TIP3    H128894   1.163   3.635   2.311  2.0942  0.9379  0.4199
 2493TIP3    H228895   1.208   3.665   2.452 -0.8934 -0.1630  1.7003
 2494TIP3   OH228896   2.341   1.622  16.238 -0.5965  0.2180  0.1273
 2494TIP3    H128897   2.321   1.537  16.277 -1.4581  1.1818  1.9096
 2494TIP3    H228898   2.384   1.601  16.155 -1.2568 -1.9378  0.2769
 2495TIP3   OH228899   0.139   4.675  16.323  0.0186 -0.0072 -0.3554
 2495TIP3    H128900   0.095   4.757  16.344  2.2077  0.8977  1.0893
 2495TIP3    H228901   0.223   4.702  16.286  2.1087 -1.4037  2.9160
 2496TIP3   OH228902   0.094   2.684  16.990 -0.1856 -0.0188 -0.2674
 2496TIP3    H128903   0.093   2.750  16.921  1.8894  1.4858  0.9860
 2496TIP3    H228904   0.182   2.647  16.987  0.2663  0.6890  2.0070
 2497TIP3   OH228905   2.930   2.301  11.278  0.0904  0.1338 -0.3394
 2497TIP3    H128906   2.914   2.213  11.245  0.1808  0.0033 -0.0355
 2497TIP3    H228907   2.984   2.342  11.211 -0.2083  0.0630 -0.6294
 2498TIP3   OH228908   4.014   1.744   4.889 -0.2941 -0.1858 -0.3987
 2498TIP3    H128909   4.032   1.767   4.980 -0.7584  1.3604 -0.6815
 2498TIP3    H228910   3.969   1.659   4.894 -0.1604 -0.1972  0.7837
 2499TIP3   OH228911   5.920   4.075   6.861 -0.2424 -0.4585  0.2030
 2499TIP3    H128912   5.847   4.025   6.823 -0.2844 -0.5827  0.4481
 2499TIP3    H228913   5.990   4.067   6.797 -1.1274  1.4857 -1.1254
 2500TIP3   OH228914   2.700   1.861  13.042 -0.0660 -0.3028 -0.1399
 2500TIP3    H128915   2.693   1.883  13.135 -0.0497 -2.2315  0.3679
 2500TIP3    H228916   2.761   1.926  13.006  1.2305 -0.4893  1.5787
 2501TIP3   OH228917   4.665   6.540   1.131 -0.0193 -0.0764  0.2981
 2501TIP3    H128918   4.593   6.603   1.133  0.1060  0.0851 -0.1792
 2501TIP3    H228919   4.703   6.549   1.044  0.8923  0.1897  0.7056
 2502TIP3   OH228920   0.181   5.102  16.896  0.0201  0.1808  0.1333
 2502TIP3    H128921   0.113   5.161  16.928 -0.1782 -0.1885  0.4051
 2502TIP3    H228922   0.146   5.014  16.912  1.4062 -0.0573  2.1832
 2503TIP3   OH228923   5.051   3.394  15.916 -0.1635 -0.1965  0.1144
 2503TIP3    H128924   4.988   3.439  15.859  0.9305 -0.2911 -1.2462
 2503TIP3    H228925   5.136   3.422  15.883  0.5370  0.1040  2.0464
 2504TIP3   OH228926   1.686   1.794   3.126  0.3649 -0.2970 -0.4248
 2504TIP3    H128927   1.726   1.711   3.153  0.8250 -0.3221 -1.1568
 2504TIP3    H228928   1.648   1.775   3.040  1.2468  0.4707 -1.0046
 2505TIP3   OH228929   0.074   0.433  15.289 -0.6397 -0.3299 -0.3224
 2505TIP3    H128930   0.019   0.427  15.211 -0.9884  2.2706 -0.3396
 2505TIP3    H228931   0.155   0.388  15.265 -0.7970  0.3027 -2.1543
 2506TIP3   OH228932   3.549   5.131   2.182 -0.2135  0.0655 -0.2129
 2506TIP3    H128933   3.516   5.208   2.136  2.4518  0.9948 -0.7525
 2506TIP3    H228934   3.534   5.149   2.274 -0.3656  0.8687 -0.3875
 2507TIP3   OH228935   3.204   6.641   6.401 -0.4381  0.3703 -0.5239
 2507TIP3    H128936   3.239   6.710   6.344  1.6126  1.0809  1.4708
 2507TIP3    H228937   3.279   6.588   6.425 -1.1148  0.3140  1.7575
 2508TIP3   OH228938   5.977   1.851  15.483 -0.2879 -0.5117 -0.2069
 2508TIP3    H128939   6.013   1.763  15.473 -0.8172 -0.7076 -0.4203
 2508TIP3    H228940   5.899   1.851  15.428 -1.0979 -0.3702  0.9116
 2509TIP3   OH228941   0.163   5.443  15.054  0.0823  0.2051  0.5819
 2509TIP3    H128942   0.138   5.359  15.093  0.0552 -0.0929 -0.0659
 2509TIP3    H228943   0.192   5.421  14.966 -1.1185  1.0184 -0.0411
 2510TIP3   OH228944   5.626   1.669   2.595  0.1599 -0.1464  0.3009
 2510TIP3    H128945   5.691   1.713   2.649  1.0592  0.4518 -1.2060
 2510TIP3    H228946   5.674   1.599   2.551 -0.8343 -1.4632  1.1940
 2511TIP3   OH228947   2.178   2.130   5.076  0.5476  0.6980 -0.0113
 2511TIP3    H128948   2.181   2.070   5.150  1.6902  0.8571  0.0870
 2511TIP3    H228949   2.091   2.116   5.037  0.2504  0.0326  0.8601
 2512TIP3   OH228950   3.062   5.708  11.437 -0.1630 -0.0406 -0.1883
 2512TIP3    H128951   3.156   5.703  11.457 -0.3259  0.4996  0.7735
 2512TIP3    H228952   3.058   5.699  11.342  0.8117 -0.7376 -0.1809
 2513TIP3   OH228953   4.454   4.463  15.851 -0.0538 -0.2732 -0.2561
 2513TIP3    H128954   4.525   4.523  15.873 -1.2470  0.4862  1.7797
 2513TIP3    H228955   4.399   4.513  15.790  1.4019 -1.0851 -2.3267
 2514TIP3   OH228956   3.563   2.296   3.686  0.4083 -0.5054  0.2454
 2514TIP3    H128957   3.640   2.307   3.741  2.8778 -1.1300 -2.7858
 2514TIP3    H228958   3.571   2.207   3.651 -1.8830 -0.6922  0.0803
 2515TIP3   OH228959   2.358   6.058   4.775 -0.2089  0.2797 -0.0547
 2515TIP3    H128960   2.445   6.053   4.814 -1.1679  0.3714  2.2453
 2515TIP3    H228961   2.339   5.968   4.747  0.0467 -0.0353  0.7675
 2516TIP3   OH228962   3.137   4.536  14.106  0.3384  0.0821  0.0363
 2516TIP3    H128963   3.061   4.510  14.158 -0.3660  1.2249 -0.3648
 2516TIP3    H228964   3.144   4.631  14.120  0.9430  0.1838 -0.8834
 2517TIP3   OH228965   2.716   3.018  16.664  0.3428 -0.2041  0.0202
 2517TIP3    H128966   2.715   2.934  16.618  1.2521 -0.9395  1.2916
 2517TIP3    H228967   2.716   2.995  16.757 -0.5881  1.2327  0.4186
 2518TIP3   OH228968   4.606   4.068  15.018 -0.7454 -0.2286  0.1552
 2518TIP3    H128969   4.619   3.989  15.069 -1.6511 -0.2764  0.3341
 2518TIP3    H228970   4.588   4.136  15.084  0.4013  0.2131  0.0285
 2519TIP3   OH228971   1.651   3.271  14.348  0.1506  0.6631 -0.1583
 2519TIP3    H128972   1.579   3.236  14.295  0.6220 -2.0182  0.8093
 2519TIP3    H228973   1.701   3.194  14.374  3.3805  2.4191 -0.7016
 2520TIP3   OH228974   3.197   0.733   2.957 -0.6173 -0.0130  0.3557
 2520TIP3    H128975   3.103   0.749   2.945 -0.5528  1.2435  1.3771
 2520TIP3    H228976   3.231   0.815   2.993  0.6638 -0.8534  1.1130
 2521TIP3   OH228977   5.964   2.550  12.788  1.2178  0.2912 -0.6192
 2521TIP3    H128978   5.972   2.505  12.704 -1.2218 -1.0858 -0.1911
 2521TIP3    H228979   5.970   2.643  12.765 -1.3385  0.0737 -2.7014
 2522TIP3   OH228980   4.130   0.444  16.717  0.0087  0.5737 -0.2931
 2522TIP3    H128981   4.222   0.473  16.722  0.5954 -1.3224  1.0969
 2522TIP3    H228982   4.080   0.526  16.710  1.7609  1.6976 -0.3826
 2523TIP3   OH228983   0.233   4.877   3.695 -0.3185 -0.6196 -0.0505
 2523TIP3    H128984   0.140   4.851   3.695 -0.9067  1.2543  1.6843
 2523TIP3    H228985   0.263   4.860   3.784  0.9646 -0.9817 -0.5292
 2524TIP3   OH228986   3.294   4.852   5.865  0.0951 -0.0697 -0.0263
 2524TIP3    H128987   3.279   4.910   5.940 -2.2799 -0.6814  0.0678
 2524TIP3    H228988   3.215   4.863   5.811  0.0134 -2.4857 -0.4795
 2525TIP3   OH228989   5.861   3.332   2.519 -0.2806 -0.6120  0.3664
 2525TIP3    H128990   5.897   3.267   2.579  1.6373 -0.1606 -0.2549
 2525TIP3    H228991   5.844   3.283   2.438  2.6298 -0.1228 -0.6320
 2526TIP3   OH228992   4.043   3.371   3.465 -0.2440  0.2731  0.0223
 2526TIP3    H128993   3.949   3.359   3.458  0.1423 -2.6574 -3.9441
 2526TIP3    H228994   4.077   3.286   3.496  1.1473  1.4401  1.9451
 2527TIP3   OH228995   1.641   3.036   6.193  0.2255 -0.0970  0.2210
 2527TIP3    H128996   1.706   3.099   6.163  0.1775  0.1121  0.5483
 2527TIP3    H228997   1.639   3.047   6.288 -0.8571  0.4647  0.1431
 2528TIP3   OH228998   6.349   0.052  14.623  0.2180 -0.2370 -0.1054
 2528TIP3    H128999   6.285  -0.019  14.628 -0.1388  0.1090  0.2308
 2528TIP3    H229000   6.433   0.009  14.635 -0.0383 -0.5253  0.7073
 2529TIP3   OH229001   2.779   2.965   1.253  0.3292 -0.0088  0.2387
 2529TIP3    H129002   2.702   3.009   1.287  0.0502 -0.7100  0.5208
 2529TIP3    H229003   2.746   2.883   1.216  1.0669 -0.8190  1.3330
 2530TIP3   OH229004   6.342   4.782  11.433  0.3355 -0.0519  0.2664
 2530TIP3    H129005   6.271   4.736  11.388 -1.1602  1.3894  1.0250
 2530TIP3    H229006   6.344   4.742  11.521  1.2736 -0.8651 -0.1037
 2531TIP3   OH229007   1.784   0.147  16.918 -0.1197  0.8967  0.5652
 2531TIP3    H129008   1.741   0.211  16.861 -2.5763  0.1950  1.5094
 2531TIP3    H229009   1.765   0.176  17.007 -0.1772 -0.4325  1.0119
 2532TIP3   OH229010   4.881   1.118  13.410  0.1105  0.0842  0.6781
 2532TIP3    H129011   4.823   1.187  13.379 -0.6234 -0.4934  0.7270
 2532TIP3    H229012   4.856   1.104  13.501 -1.1399 -1.5851  0.1391
 2533TIP3   OH229013   3.051   0.869   4.147 -0.3113 -0.6071 -0.0214
 2533TIP3    H129014   3.011   0.947   4.108  0.2997  0.2205  0.9470
 2533TIP3    H229015   2.977   0.820   4.183 -0.5214  0.7773  1.5288
 2534TIP3   OH229016   2.324   3.702   2.459 -0.4469  0.0645  0.2027
 2534TIP3    H129017   2.358   3.646   2.528 -0.1172  1.5472  1.3024
 2534TIP3    H229018   2.276   3.643   2.401  0.9797 -1.5342  0.5674
 2535TIP3   OH229019   6.539   5.586  11.037  0.0568  0.8524 -0.0719
 2535TIP3    H129020   6.479   5.539  10.979  0.8395  1.9714 -1.8584
 2535TIP3    H229021   6.620   5.535  11.034  0.0715  0.8594  0.1402
 2536TIP3   OH229022   5.242   1.524   4.822  0.7398 -0.0162 -0.2950
 2536TIP3    H129023   5.168   1.579   4.850  0.5448 -1.0540  1.3717
 2536TIP3    H229024   5.247   1.538   4.727 -2.8336 -1.3508 -0.8429
 2537TIP3   OH229025   5.878   2.076  11.768  0.5047 -0.1036  0.1505
 2537TIP3    H129026   5.895   2.074  11.862  1.6267  0.3680 -0.0357
 2537TIP3    H229027   5.891   2.167  11.742 -3.1126  0.5771  0.0838
 2538TIP3   OH229028   2.544   3.553  11.119  0.1321  0.1250 -0.4790
 2538TIP3    H129029   2.534   3.645  11.096 -1.4092  0.4859  1.3372
 2538TIP3    H229030   2.594   3.554  11.201  1.1894 -0.7647 -1.0839
 2539TIP3   OH229031   2.015   6.100   2.723  0.0788 -0.1856 -0.3400
 2539TIP3    H129032   2.076   6.115   2.650  0.4771 -0.3463 -0.0458
 2539TIP3    H229033   1.930   6.127   2.689  0.3046 -0.0117 -0.7790
 2540TIP3   OH229034   5.375   1.054   1.093 -0.1714  0.2331 -0.4509
 2540TIP3    H129035   5.426   1.042   1.013  0.2302 -0.5361 -0.0965
 2540TIP3    H229036   5.423   1.004   1.159 -1.7993 -1.2070 -0.2888
 2541TIP3   OH229037   6.307   0.166  11.223  0.3231  0.0208  0.2194
 2541TIP3    H129038   6.301   0.085  11.173 -0.5269  0.2865 -0.1323
 2541TIP3    H229039   6.216   0.191  11.239  0.5565 -0.2513  2.2491
 2542TIP3   OH229040   0.032   3.367  15.197 -0.0082 -0.2849  0.0493
 2542TIP3    H129041   0.034   3.349  15.291 -0.9127  1.6508  0.4854
 2542TIP3    H229042  -0.024   3.298  15.161 -2.3214  0.7254  1.4407
 2543TIP3   OH229043   3.482   4.704  17.090 -0.2882 -0.1756  0.4573
 2543TIP3    H129044   3.497   4.656  17.008 -0.3271  1.2268 -0.4072
 2543TIP3    H229045   3.388   4.700  17.104 -0.1843 -1.2219  0.9686
 2544TIP3   OH229046   5.234   6.246  12.487  0.2673 -0.1496 -0.3759
 2544TIP3    H129047   5.193   6.290  12.561  1.3026  0.8714 -0.3934
 2544TIP3    H229048   5.163   6.195  12.447 -0.3301 -0.6635  1.2486
 2545TIP3   OH229049   0.725   0.930   4.332  0.1144  0.0367 -0.4119
 2545TIP3    H129050   0.757   0.973   4.253  0.6369  1.0440  0.3248
 2545TIP3    H229051   0.683   0.999   4.382 -0.7810 -0.7185 -0.0933
 2546TIP3   OH229052   5.521   1.605  10.979 -0.4753  0.1947 -0.3767
 2546TIP3    H129053   5.554   1.689  11.010 -0.4408  0.7606 -1.8619
 2546TIP3    H229054   5.426   1.615  10.979 -0.5820 -0.4779  1.2883
 2547TIP3   OH229055   0.435   2.292   2.740 -0.4522 -0.2021 -0.4029
 2547TIP3    H129056   0.500   2.247   2.794 -1.3049 -0.0222  0.8125
 2547TIP3    H229057   0.477   2.373   2.713 -0.1207 -0.1567  0.2465
 2548TIP3   OH229058   0.273   5.953   2.317  0.4053 -0.1832 -0.6136
 2548TIP3    H129059   0.344   5.896   2.286  0.5883 -0.7206  0.7139
 2548TIP3    H229060   0.198   5.894   2.326  0.4042 -0.0913  0.0855
 2549TIP3   OH229061   0.194   3.487  12.702  0.6829  0.3251 -0.0393
 2549TIP3    H129062   0.229   3.458  12.618 -0.1546 -0.1894 -0.2231
 2549TIP3    H229063   0.167   3.577  12.687  2.7359  1.0592  0.3627
 2550TIP3   OH229064   2.750   0.727   1.706 -0.1609  0.6175  0.1612
 2550TIP3    H129065   2.655   0.719   1.699 -0.2693  1.2787  0.7118
 2550TIP3    H229066   2.765   0.746   1.799  0.5075  0.4912  0.0815
 2551TIP3   OH229067   5.778   1.775   2.810  0.0933  0.4526 -0.3516
 2551TIP3    H129068   5.820   1.849   2.766  2.1393 -1.5458 -1.9657
 2551TIP3    H229069   5.848   1.735   2.862 -1.4649  0.7317  2.1381
 2552TIP3   OH229070   4.719   3.142  15.080 -0.0926  0.4385  0.5008
 2552TIP3    H129071   4.697   3.053  15.106 -1.8089  0.2610 -1.2916
 2552TIP3    H229072   4.670   3.198  15.141 -0.7660  0.1057  0.2784
 2553TIP3   OH229073   0.040   3.907  15.798 -0.1362  0.1126 -0.6905
 2553TIP3    H129074   0.062   3.863  15.880  0.7186 -0.1146 -1.0261
 2553TIP3    H229075  -0.043   3.951  15.815  0.5765  1.0020  0.6452
 2554TIP3   OH229076   5.905   4.867   6.465  0.1414  0.1808 -0.1326
 2554TIP3    H129077   5.941   4.954   6.449 -0.0852 -0.0185 -1.8852
 2554TIP3    H229078   5.931   4.816   6.388  1.4560 -1.7046  1.4781
 2555TIP3   OH229079   5.353   3.977  16.286  0.0413  0.3121 -0.0560
 2555TIP3    H129080   5.312   3.984  16.372 -1.0707  1.3562 -0.6444
 2555TIP3    H229081   5.400   3.893  16.288 -0.4753  0.0448  1.3411
 2556TIP3   OH229082   6.470   3.923  14.412 -0.3507 -0.8509  0.1358
 2556TIP3    H129083   6.466   3.949  14.320  0.0718 -1.0925  0.0447
 2556TIP3    H229084   6.387   3.879  14.429 -0.2058 -1.2937 -0.2851
 2557TIP3   OH229085   5.783   2.403   4.658  0.1915  0.3072  0.1564
 2557TIP3    H129086   5.861   2.449   4.627  2.0160 -1.1354  2.3386
 2557TIP3    H229087   5.785   2.319   4.613  0.5970 -0.2077  1.1160
 2558TIP3   OH229088   1.886   5.711   2.661 -0.4930 -0.0938 -0.1268
 2558TIP3    H129089   1.974   5.675   2.649 -0.2376  0.6809 -0.7056
 2558TIP3    H229090   1.868   5.757   2.579 -2.0637 -1.5063 -0.6166
 2559TIP3   OH229091   6.012   4.831  14.764 -0.1104  0.4335 -0.0578
 2559TIP3    H129092   5.987   4.741  14.786 -0.3769  0.5195 -0.0013
 2559TIP3    H229093   6.045   4.867  14.846 -1.5436  0.9027  0.3553
 2560TIP3   OH229094   2.857   0.248   4.128 -0.2429  0.4190 -0.1685
 2560TIP3    H129095   2.765   0.220   4.137  0.0446 -1.4433 -2.0924
 2560TIP3    H229096   2.873   0.246   4.033  1.6386  1.2980  0.0923
 2561TIP3   OH229097   5.042   3.766  11.191  0.5590  0.1154 -0.0577
 2561TIP3    H129098   4.956   3.728  11.179  0.8608 -0.5754 -0.1027
 2561TIP3    H229099   5.062   3.752  11.284  1.4802 -1.6408 -0.4657
 2562TIP3   OH229100   4.740   0.794  16.494 -0.0707  0.2437  0.0272
 2562TIP3    H129101   4.800   0.767  16.425  1.1465 -1.4690  1.6431
 2562TIP3    H229102   4.737   0.890  16.487  0.4723  0.1583 -1.9771
 2563TIP3   OH229103   6.547   1.529   6.097 -0.1726 -0.0095 -0.3029
 2563TIP3    H129104   6.633   1.508   6.133 -0.6936 -0.3284  0.8221
 2563TIP3    H229105   6.548   1.494   6.008  1.2536  1.0147 -0.7245
 2564TIP3   OH229106   4.676   1.052   3.958  0.2019  0.3206 -0.2557
 2564TIP3    H129107   4.674   1.066   3.863  0.2711  0.0535 -0.2963
 2564TIP3    H229108   4.762   1.084   3.985  0.6163 -0.6136 -0.4430
 2565TIP3   OH229109   0.043   2.183   2.796  0.2277 -0.5903  0.5862
 2565TIP3    H129110   0.100   2.109   2.773  1.8621  0.8890 -0.3670
 2565TIP3    H229111   0.100   2.243   2.843 -0.3105  1.2516 -0.9651
 2566TIP3   OH229112   1.551   1.053   3.300  0.1579  0.2563 -0.3858
 2566TIP3    H129113   1.579   1.139   3.333 -1.1221  0.0050  1.4822
 2566TIP3    H229114   1.547   0.997   3.377  0.9003 -1.5229 -1.5544
 2567TIP3   OH229115   1.800   4.237  14.128 -0.0687 -0.4449  0.4067
 2567TIP3    H129116   1.867   4.205  14.188  0.5205  0.3439  0.1855
 2567TIP3    H229117   1.848   4.258  14.048 -0.6390 -0.2348  0.1123
 2568TIP3   OH229118   6.215   1.263  16.046 -0.2998 -0.3225 -0.3108
 2568TIP3    H129119   6.142   1.218  16.004 -1.1933  0.8670 -0.0984
 2568TIP3    H229120   6.256   1.197  16.103 -1.4127 -0.9216 -0.1949
 2569TIP3   OH229121   0.563   0.002   4.549  0.3481 -0.1151 -0.5412
 2569TIP3    H129122   0.581   0.062   4.621  0.1474  1.0675 -1.4373
 2569TIP3    H229123   0.604  -0.081   4.575  0.4528  0.3464  0.8152
 2570TIP3   OH229124   5.067   0.700  13.025 -0.4757  0.1674  0.1740
 2570TIP3    H129125   5.037   0.651  12.949 -1.3876  0.5451  0.2852
 2570TIP3    H229126   5.015   0.780  13.025 -0.5148  0.1532  1.2224
 2571TIP3   OH229127   5.348   5.886  15.063 -0.9205 -0.0032  0.3410
 2571TIP3    H129128   5.352   5.885  14.967 -1.7270  2.2910  0.2203
 2571TIP3    H229129   5.264   5.846  15.084 -1.2315  0.4680  0.0160
 2572TIP3   OH229130   6.415   0.274   1.728  0.1208 -0.0826 -0.0240
 2572TIP3    H129131   6.437   0.193   1.775  0.1082  1.0611  2.1048
 2572TIP3    H229132   6.432   0.343   1.792 -0.1571  1.5919 -1.6829
 2573TIP3   OH229133   2.676   0.868   4.716 -0.2453  0.5890 -0.0523
 2573TIP3    H129134   2.710   0.779   4.723  0.2428  0.6441 -1.3943
 2573TIP3    H229135   2.581   0.858   4.714 -0.1809 -0.1498 -2.5188
 2574TIP3   OH229136   6.554   0.779  15.200 -0.1861  0.3251  0.5844
 2574TIP3    H129137   6.514   0.696  15.227 -0.6668  0.7171  1.1058
 2574TIP3    H229138   6.533   0.840  15.271  0.3442  0.8412  0.3091
 2575TIP3   OH229139   3.054   6.100  13.152  0.1108 -0.4397  0.6645
 2575TIP3    H129140   3.071   6.043  13.227 -1.6328 -2.2015 -0.1775
 2575TIP3    H229141   3.044   6.188  13.190 -0.8790 -1.3027  2.5288
 2576TIP3   OH229142   0.769   2.669   5.979  0.7152  0.7071  0.5253
 2576TIP3    H129143   0.832   2.598   5.994  0.0852  0.2362  1.0101
 2576TIP3    H229144   0.690   2.640   6.024 -0.0220  1.0401 -0.5290
 2577TIP3   OH229145   0.504   1.997   3.149 -0.3457  0.3737  0.0136
 2577TIP3    H129146   0.587   2.042   3.131 -0.5292 -0.1111 -2.2918
 2577TIP3    H229147   0.507   1.979   3.243  2.9103 -1.0441 -0.2266
 2578TIP3   OH229148   0.966   5.184   2.995  0.2604  0.4614 -0.1124
 2578TIP3    H129149   0.881   5.158   3.030 -0.0476  0.7870 -0.6026
 2578TIP3    H229150   0.955   5.179   2.900  1.4425 -1.5875 -0.1878
 2579TIP3   OH229151   3.048   5.263  10.869  0.0902  0.1657 -0.1108
 2579TIP3    H129152   3.105   5.297  10.800 -2.8858  2.4728 -1.6441
 2579TIP3    H229153   2.970   5.232  10.824 -1.0069 -0.4931  2.0602
 2580TIP3   OH229154   0.089   4.471   5.097  0.3136 -0.3252 -0.5886
 2580TIP3    H129155   0.080   4.391   5.149 -0.9566  1.1049  1.5561
 2580TIP3    H229156   0.183   4.485   5.090  0.5777  0.0681  2.5093
 2581TIP3   OH229157   4.260   4.038   4.942  0.0512  0.2466  0.4182
 2581TIP3    H129158   4.197   4.050   5.014  0.5452  1.4926  0.6730
 2581TIP3    H229159   4.266   3.943   4.931 -0.3735  0.0441  1.7263
 2582TIP3   OH229160   3.808   2.346   6.012 -0.0720  0.5706 -0.3868
 2582TIP3    H129161   3.858   2.287   5.956  1.4655 -0.2672  1.7298
 2582TIP3    H229162   3.850   2.339   6.098 -3.0083  0.9100  1.2086
 2583TIP3   OH229163   2.961   3.266   2.809 -0.5259 -0.3952 -0.7579
 2583TIP3    H129164   2.944   3.213   2.732  1.1298 -1.3704 -0.4901
 2583TIP3    H229165   2.957   3.205   2.883  1.4807 -0.2332 -0.4517
 2584TIP3   OH229166   2.106   1.101   0.810 -0.2814 -0.0530  0.6348
 2584TIP3    H129167   2.093   1.179   0.757  0.0147 -0.3958  0.0483
 2584TIP3    H229168   2.040   1.039   0.779  0.2513 -0.4488  0.2784
 2585TIP3   OH229169   5.123   1.451  10.330  0.3375 -0.2968  0.3554
 2585TIP3    H129170   5.078   1.369  10.310 -1.0007  0.1874  1.2417
 2585TIP3    H229171   5.128   1.453  10.426  1.1703  0.2477  0.3119
 2586TIP3   OH229172   2.463   0.470   0.867 -0.3124  0.1504  0.3776
 2586TIP3    H129173   2.472   0.378   0.893 -0.1834 -0.1415 -0.6520
 2586TIP3    H229174   2.373   0.477   0.836 -0.1331  0.2113 -0.1360
 2587TIP3   OH229175   4.779   2.806  14.508  0.0325 -0.2350  0.3022
 2587TIP3    H129176   4.874   2.795  14.513  0.1219  0.7515  1.1304
 2587TIP3    H229177   4.767   2.894  14.472 -0.5743 -0.5147 -0.1904
 2588TIP3   OH229178   2.222   2.558  11.884  0.2263 -0.0412  0.2091
 2588TIP3    H129179   2.190   2.589  11.799 -3.3118  0.3610  1.4838
 2588TIP3    H229180   2.233   2.638  11.936  2.3167 -0.2830  0.1879
 2589TIP3   OH229181   1.464   0.069   1.234 -0.0849  0.9371  0.2821
 2589TIP3    H129182   1.537   0.124   1.262  1.4258 -0.9965  0.3924
 2589TIP3    H229183   1.403   0.070   1.308  0.4146  1.6322  0.6907
 2590TIP3   OH229184   0.068   1.548   2.283  0.5520 -0.5969  0.3447
 2590TIP3    H129185   0.091   1.633   2.321 -0.1699 -0.1166 -0.2766
 2590TIP3    H229186   0.100   1.553   2.193 -2.7142  0.4872 -0.9052
 2591TIP3   OH229187   3.768   5.838   2.987 -0.1110 -0.5164 -0.6034
 2591TIP3    H129188   3.809   5.890   3.057 -1.6495  0.0066 -0.0505
 2591TIP3    H229189   3.733   5.903   2.926  0.7555 -0.9663 -1.6284
 2592TIP3   OH229190   3.981   6.417   3.687  0.2649  0.4237 -0.0703
 2592TIP3    H129191   3.921   6.491   3.674 -0.1414 -0.1428 -1.7191
 2592TIP3    H229192   3.951   6.376   3.768  0.1740  1.7445  0.5882
 2593TIP3   OH229193   0.365   3.989  13.377  0.3969  0.3904 -0.2333
 2593TIP3    H129194   0.419   3.912  13.359  0.6548  0.3516  0.6327
 2593TIP3    H229195   0.351   4.030  13.292 -1.2553 -1.5882 -1.0008
 2594TIP3   OH229196   3.960   3.750   5.273  0.2023  0.5406  0.1106
 2594TIP3    H129197   4.032   3.699   5.310  0.6669  0.4796 -0.8245
 2594TIP3    H229198   3.896   3.757   5.343  1.2812  0.9087  1.0945
 2595TIP3   OH229199   1.647   1.917  15.373  0.0204  0.0101 -0.1359
 2595TIP3    H129200   1.658   1.824  15.353  0.9407  0.0433  0.1497
 2595TIP3    H229201   1.732   1.944  15.408 -0.2877  0.9214 -0.0599
 2596TIP3   OH229202   6.605   2.841  12.102  0.1370  0.0265 -0.1600
 2596TIP3    H129203   6.685   2.799  12.132 -0.0636  0.8336  1.6284
 2596TIP3    H229204   6.608   2.833  12.007  1.3201 -1.7649 -0.0251
 2597TIP3   OH229205   3.863   0.723   0.821  0.1023  0.1023 -0.0210
 2597TIP3    H129206   3.793   0.707   0.758  0.8278  2.3066 -1.5230
 2597TIP3    H229207   3.879   0.638   0.862 -1.2428 -1.1571 -1.9385
 2598TIP3   OH229208   4.748   5.977   5.968 -0.5540 -0.2386  0.6889
 2598TIP3    H129209   4.789   6.063   5.964 -2.5404  0.7070 -0.7272
 2598TIP3    H229210   4.780   5.939   6.050 -0.1687  2.1058  1.6868
 2599TIP3   OH229211   0.372   6.701   4.762  0.3536  0.4797  0.5156
 2599TIP3    H129212   0.398   6.708   4.671  0.5271  1.9599  0.6690
 2599TIP3    H229213   0.367   6.606   4.778 -1.4862  0.1386 -1.5299
 2600TIP3   OH229214   5.460   3.740   4.922  0.3661  0.1224  0.5090
 2600TIP3    H129215   5.394   3.810   4.922  1.0750  0.8134  0.5345
 2600TIP3    H229216   5.477   3.723   4.830  1.7496  1.5335  0.4554
 2601TIP3   OH229217   0.837   3.412  15.060  0.6874  0.3173  0.1943
 2601TIP3    H129218   0.786   3.461  14.994  0.7501  1.2709  0.8375
 2601TIP3    H229219   0.870   3.336  15.012 -3.1483 -1.6174  0.2371
 2602TIP3   OH229220   4.418   2.954  16.442 -0.5331 -0.3636 -0.2540
 2602TIP3    H129221   4.444   2.976  16.531 -1.5007  0.9373 -0.2603
 2602TIP3    H229222   4.497   2.918  16.401  0.2916  0.3384  0.6968
 2603TIP3   OH229223   0.080   3.194  16.384  0.2318 -0.2549 -0.0608
 2603TIP3    H129224   0.108   3.176  16.474  0.5886 -0.4441 -0.2063
 2603TIP3    H229225   0.122   3.125  16.332 -0.0772 -0.2223 -0.3540
 2604TIP3   OH229226   3.965   3.439  16.376  0.5223  0.3715 -0.1559
 2604TIP3    H129227   3.973   3.502  16.447  2.7586 -0.4543  0.3873
 2604TIP3    H229228   4.049   3.393  16.374 -0.0494 -0.7254 -2.3050
 2605TIP3   OH229229   3.457   6.406  16.940  0.0566  0.7225  0.6203
 2605TIP3    H129230   3.508   6.336  16.980  0.6479  0.6939 -0.1393
 2605TIP3    H229231   3.521   6.477  16.927  0.2366  0.2490 -1.4558
 2606TIP3   OH229232   2.236   1.442   2.486 -0.1340 -0.3854 -0.6161
 2606TIP3    H129233   2.273   1.531   2.486  0.2616 -0.5063  1.2459
 2606TIP3    H229234   2.296   1.392   2.430  1.3031 -0.0768  0.5687
 2607TIP3   OH229235   6.348   3.027  10.982  0.0515  0.5325 -0.0241
 2607TIP3    H129236   6.371   3.047  10.892 -0.7593  1.4485 -0.0420
 2607TIP3    H229237   6.423   2.978  11.016  0.3929  0.2543 -1.1643
 2608TIP3   OH229238   0.197   0.643   3.564  0.1320 -0.1150 -0.3178
 2608TIP3    H129239   0.121   0.587   3.583 -0.4635  0.0142 -2.1374
 2608TIP3    H229240   0.256   0.587   3.514 -0.3818  0.7553 -1.9848
 2609TIP3   OH229241   5.560   0.130   5.554 -0.5181 -0.4614 -0.1406
 2609TIP3    H129242   5.621   0.111   5.483 -1.2309 -1.6431 -0.4732
 2609TIP3    H229243   5.516   0.211   5.526  2.0157  1.3873  0.9101
 2610TIP3   OH229244   0.286   0.844   4.943 -0.4631  0.5053 -0.3001
 2610TIP3    H129245   0.197   0.879   4.935 -0.7246 -0.1541 -0.3029
 2610TIP3    H229246   0.288   0.768   4.886 -0.3029 -0.2572  0.6832
 2611TIP3   OH229247   3.621   1.743   2.783  0.3815 -0.4971 -0.9402
 2611TIP3    H129248   3.612   1.835   2.808  0.7850 -0.2515 -1.6727
 2611TIP3    H229249   3.541   1.701   2.814 -0.0377  0.2046 -1.0653
 2612TIP3   OH229250   2.421   5.472   4.581 -0.1675 -0.0483  0.6415
 2612TIP3    H129251   2.448   5.395   4.531  0.6639  0.1922  0.6940
 2612TIP3    H229252   2.354   5.514   4.526  1.3731  0.7036 -0.7663
 2613TIP3   OH229253   6.453   2.182   1.335 -0.9458  0.0826 -0.2204
 2613TIP3    H129254   6.501   2.233   1.270 -0.0248 -0.4720  0.0152
 2613TIP3    H229255   6.494   2.204   1.419 -1.5513  0.1141  0.0769
 2614TIP3   OH229256   5.852   5.401   0.886  0.2474 -0.1455 -0.1788
 2614TIP3    H129257   5.877   5.488   0.916 -1.4134  0.7166 -1.1460
 2614TIP3    H229258   5.765   5.386   0.923 -1.0657  0.1845 -2.8491
 2615TIP3   OH229259   1.139   1.933   3.951  0.4340 -0.0099 -0.0345
 2615TIP3    H129260   1.118   1.990   3.877 -1.6528 -1.6709 -0.8290
 2615TIP3    H229261   1.196   1.986   4.007  0.9087  1.8042 -2.0972
 2616TIP3   OH229262   0.195   6.550   5.627  0.4310  0.4199  0.3888
 2616TIP3    H129263   0.146   6.511   5.555  0.2792 -0.7780  1.1189
 2616TIP3    H229264   0.250   6.479   5.660  0.3058  0.8717  1.6208
 2617TIP3   OH229265   0.427   4.506  14.662 -0.0524 -0.1810  0.5811
 2617TIP3    H129266   0.342   4.543  14.683 -0.1914 -0.9454  1.3834
 2617TIP3    H229267   0.408   4.435  14.601  0.0848  0.0947  0.2093
 2618TIP3   OH229268   1.869   1.858  15.612  0.2192  0.3584 -0.0353
 2618TIP3    H129269   1.876   1.784  15.672 -0.2235  1.1455  0.9997
 2618TIP3    H229270   1.859   1.934  15.668  1.3722  1.3168 -1.0651
 2619TIP3   OH229271   4.647   3.572   5.973  0.2106 -0.3993 -1.0626
 2619TIP3    H129272   4.590   3.495   5.972 -0.0871 -0.1858 -2.1040
 2619TIP3    H229273   4.597   3.638   6.021 -0.1123 -0.4507 -1.3224
 2620TIP3   OH229274   2.661   5.827   0.620 -0.2084  0.2515  0.9543
 2620TIP3    H129275   2.741   5.852   0.666  0.0022 -2.4916  2.2709
 2620TIP3    H229276   2.612   5.775   0.684 -2.2355  0.4136 -0.3932
 2621TIP3   OH229277   0.113   6.393  16.135 -0.0059 -0.9989  0.7259
 2621TIP3    H129278   0.144   6.465  16.190 -3.0539  0.3567  0.8554
 2621TIP3    H229279   0.134   6.419  16.046 -0.1422 -0.4651  0.8488
 2622TIP3   OH229280   3.575   4.354   5.308 -0.1998  0.2376  0.0439
 2622TIP3    H129281   3.600   4.432   5.260  0.9672 -1.0417 -1.5529
 2622TIP3    H229282   3.596   4.281   5.249 -3.0962 -1.2181  0.6447
 2623TIP3   OH229283   3.844   4.236   0.282 -0.0382 -0.1202  0.8691
 2623TIP3    H129284   3.764   4.288   0.274 -1.2337 -1.9124  0.4473
 2623TIP3    H229285   3.898   4.263   0.208 -1.1216 -0.2407  0.0057
 2624TIP3   OH229286   5.750   1.468  15.774 -0.1636  0.3003 -0.5915
 2624TIP3    H129287   5.813   1.471  15.846  0.8282  0.4261 -1.4510
 2624TIP3    H229288   5.665   1.483  15.816  0.5577  2.0385  0.3283
 2625TIP3   OH229289   3.369   1.073  15.631 -0.5540  0.2900  0.6353
 2625TIP3    H129290   3.431   1.146  15.622  0.9230 -0.8239  1.3423
 2625TIP3    H229291   3.296   1.110  15.682 -0.3985  1.5683 -0.0202
 2626TIP3   OH229292   3.295   5.333   2.676  0.0444  0.5396 -0.0168
 2626TIP3    H129293   3.311   5.241   2.658  0.5632  0.6051  0.0958
 2626TIP3    H229294   3.366   5.359   2.734 -1.5338  0.3424  2.1364
 2627TIP3   OH229295   1.679   0.337  16.792  0.6820 -0.2278  0.4911
 2627TIP3    H129296   1.647   0.408  16.848 -1.9015 -0.1524 -0.9306
 2627TIP3    H229297   1.682   0.375  16.704  1.1917 -1.3176  0.0201
 2628TIP3   OH229298   2.838   0.249  10.664  0.8408  0.0917 -0.3743
 2628TIP3    H129299   2.875   0.292  10.587 -0.4766 -0.8902 -1.6064
 2628TIP3    H229300   2.865   0.158  10.656  0.7106 -0.0098  0.3372
 2629TIP3   OH229301   2.291   6.585  11.035  0.5326  0.1901  0.0596
 2629TIP3    H129302   2.253   6.504  11.072  0.0137 -0.3248 -1.5130
 2629TIP3    H229303   2.327   6.558  10.951 -0.7429  1.8243 -1.0706
 2630TIP3   OH229304   5.423   0.155   5.048  0.0323  0.2925 -0.4536
 2630TIP3    H129305   5.433   0.069   5.007  1.7827 -0.8996  2.2173
 2630TIP3    H229306   5.352   0.143   5.111 -0.8830  1.3627 -1.2318
 2631TIP3   OH229307   6.108   2.595  16.812 -0.0064 -0.4656 -1.1212
 2631TIP3    H129308   6.189   2.565  16.771  0.8194  0.1593  0.0047
 2631TIP3    H229309   6.093   2.682  16.775 -0.2104 -0.6110 -1.3842
 2632TIP3   OH229310   0.412   5.562   5.228 -0.3681 -0.5516  0.0320
 2632TIP3    H129311   0.456   5.639   5.193 -1.4047  0.2111  0.3458
 2632TIP3    H229312   0.419   5.496   5.159  3.8766 -1.5869  1.1254
 2633TIP3   OH229313   4.035   1.141   0.227  0.2328 -0.6509  0.1949
 2633TIP3    H129314   4.066   1.230   0.243  0.8165 -0.3804 -2.1328
 2633TIP3    H229315   4.085   1.088   0.289  0.5152  0.5219  1.0202
 2634TIP3   OH229316   3.208   6.713  11.874  0.3224  0.5508  0.4272
 2634TIP3    H129317   3.186   6.787  11.818  0.8847  1.0048  0.7943
 2634TIP3    H229318   3.179   6.636  11.824  0.6184  0.9573 -0.4022
 2635TIP3   OH229319   5.927   3.450  11.394 -0.3231 -0.0538 -0.5162
 2635TIP3    H129320   5.910   3.444  11.300 -0.3306 -1.3456 -0.4430
 2635TIP3    H229321   5.985   3.526  11.403  0.1116 -0.2364 -1.6289
 2636TIP3   OH229322   3.787   5.327  15.086  0.1953 -0.0961  0.1847
 2636TIP3    H129323   3.824   5.284  15.164  0.5684 -1.0482 -0.4967
 2636TIP3    H229324   3.864   5.363  15.041 -0.0501  0.7183  0.3950
 2637TIP3   OH229325   4.566   1.890   1.935 -0.4335  0.0553 -0.2976
 2637TIP3    H129326   4.601   1.801   1.934  0.5896  0.4443 -1.7053
 2637TIP3    H229327   4.636   1.944   1.971 -0.3853  0.5217 -1.0504
 2638TIP3   OH229328   2.754   6.783   1.917  0.5453 -0.3504  0.0946
 2638TIP3    H129329   2.738   6.689   1.907 -0.0707 -0.1109 -1.6850
 2638TIP3    H229330   2.826   6.802   1.857  2.1389 -0.0137  2.0407
 2639TIP3   OH229331   1.540   5.396   1.135  0.3332  0.1898  0.4395
 2639TIP3    H129332   1.559   5.368   1.045 -1.8128  0.3754 -0.1401
 2639TIP3    H229333   1.487   5.325   1.171  1.8568 -0.2643  1.8873
 2640TIP3   OH229334   2.671   6.035  13.211  0.5894  0.5093 -0.1820
 2640TIP3    H129335   2.746   5.994  13.168  1.4386  2.2002 -0.4300
 2640TIP3    H229336   2.687   6.021  13.304  1.6319  1.4594 -0.1922
 2641TIP3   OH229337   6.350   2.062   3.869  0.4188 -0.2761 -0.3894
 2641TIP3    H129338   6.407   2.045   3.945 -0.0728 -0.6016 -0.0911
 2641TIP3    H229339   6.396   2.020   3.796 -0.2168 -1.9778  0.1292
 2642TIP3   OH229340   3.717   3.665   1.577 -0.3131  0.3513 -0.5585
 2642TIP3    H129341   3.657   3.719   1.526 -0.8592  1.0830  0.8088
 2642TIP3    H229342   3.791   3.723   1.596 -1.0880  0.8220  1.2734
 2643TIP3   OH229343   1.254   4.599  16.276  0.4958 -0.3636  0.1236
 2643TIP3    H129344   1.255   4.694  16.261 -0.1170 -0.2771  0.5717
 2643TIP3    H229345   1.296   4.562  16.199  1.1604  0.3020  0.1604
 2644TIP3   OH229346   5.408   4.122   0.933  0.2636 -0.4095  0.2634
 2644TIP3    H129347   5.390   4.049   0.874  0.5135  0.9099 -1.5107
 2644TIP3    H229348   5.476   4.172   0.889 -0.4876  1.3572  1.0131
 2645TIP3   OH229349   1.736   4.916  15.838 -0.5458  0.3257 -0.0419
 2645TIP3    H129350   1.816   4.962  15.812  0.0461  0.3083  1.6224
 2645TIP3    H229351   1.714   4.953  15.923 -0.5701 -1.7754  0.9423
 2646TIP3   OH229352   2.814   5.641  12.836  0.6800 -0.2337  0.3058
 2646TIP3    H129353   2.856   5.728  12.841 -0.7228  0.4152  1.8668
 2646TIP3    H229354   2.805   5.614  12.928 -0.6794 -1.1360 -0.0650
 2647TIP3   OH229355   4.147   0.444   0.262  0.4001  0.1198  0.6528
 2647TIP3    H129356   4.109   0.450   0.174 -0.2380  1.4757  0.9860
 2647TIP3    H229357   4.213   0.513   0.264  1.5166 -0.9207  0.7445
 2648TIP3   OH229358   4.986   6.637   0.163  0.4255 -0.0902  0.6564
 2648TIP3    H129359   5.081   6.636   0.170  0.6130  1.8166 -0.8528
 2648TIP3    H229360   4.960   6.726   0.188 -0.6595  0.2896 -1.5271
 2649TIP3   OH229361   3.413   1.181   5.099 -0.1546 -0.0270  0.0789
 2649TIP3    H129362   3.436   1.138   5.017 -0.4483  1.1013 -0.6192
 2649TIP3    H229363   3.349   1.122   5.140  0.1044 -0.6694 -0.4184
 2650TIP3   OH229364   0.908   3.913  16.562  0.2305  0.0118  0.1209
 2650TIP3    H129365   1.003   3.907  16.566  0.3428 -1.1392 -2.5101
 2650TIP3    H229366   0.878   3.867  16.641  1.8165 -0.7902  0.2993
 2651TIP3   OH229367   2.540   1.749  14.563 -0.2171 -0.1756 -0.0511
 2651TIP3    H129368   2.611   1.807  14.589 -0.5518 -1.0644  3.3489
 2651TIP3    H229369   2.461   1.804  14.568 -0.1976 -0.1414 -0.1056
 2652TIP3   OH229370   5.642   4.245   3.169  0.4045  0.0791  0.0430
 2652TIP3    H129371   5.549   4.225   3.166  0.0311  1.7636 -0.3800
 2652TIP3    H229372   5.672   4.205   3.251 -0.9071  0.3593  0.6885
 2653TIP3   OH229373   4.649   3.518   1.928 -0.0557 -0.4725 -0.1222
 2653TIP3    H129374   4.602   3.475   1.857 -0.0004  1.6497 -1.5152
 2653TIP3    H229375   4.598   3.495   2.007 -1.8666 -0.4463 -1.2183
 2654TIP3   OH229376   6.233   4.077   1.752 -0.6297 -0.3641 -0.0977
 2654TIP3    H129377   6.229   3.991   1.794 -1.5016 -0.2800  0.0032
 2654TIP3    H229378   6.142   4.097   1.729 -0.1100 -1.0838 -3.3823
 2655TIP3   OH229379   4.459   2.234  16.769 -0.5475 -0.0963  0.2250
 2655TIP3    H129380   4.431   2.143  16.764 -1.0997  0.0718  0.2048
 2655TIP3    H229381   4.550   2.233  16.740 -0.5924 -0.6227  0.1006
 2656TIP3   OH229382   4.303   5.978  14.607 -0.0892  0.4927  0.0072
 2656TIP3    H129383   4.312   5.909  14.542  1.1685  0.6674 -0.0158
 2656TIP3    H229384   4.392   5.995  14.638 -0.3392  2.1779 -0.0609
 2657TIP3   OH229385   4.296   0.236   5.588  0.1800 -0.8301  0.4659
 2657TIP3    H129386   4.227   0.171   5.571  2.0328 -2.7781 -0.0725
 2657TIP3    H229387   4.376   0.192   5.561  1.4115  2.3230 -1.5218
 2658TIP3   OH229388   2.917   3.776  12.479 -0.3658 -0.2787  0.4764
 2658TIP3    H129389   2.970   3.735  12.548 -1.9178 -2.7404  0.3341
 2658TIP3    H229390   2.968   3.762  12.399 -1.3896 -3.2709  0.2281
 2659TIP3   OH229391   3.026   1.901   2.218 -0.3842 -0.3153 -0.2947
 2659TIP3    H129392   2.984   1.861   2.142  0.0790 -0.5309 -0.4455
 2659TIP3    H229393   3.120   1.887   2.203 -0.2544  0.2762 -0.0322
 2660TIP3   OH229394   5.498   4.966   2.370 -0.2364  0.1765  0.3100
 2660TIP3    H129395   5.413   4.985   2.409 -0.8686 -0.9779 -0.4456
 2660TIP3    H229396   5.551   4.932   2.442  0.1746  2.4174  1.1641
 2661TIP3   OH229397   2.968   6.102  17.153  0.1975  0.3380 -0.0492
 2661TIP3    H129398   3.000   6.062  17.072  1.7222  0.6846  0.3702
 2661TIP3    H229399   2.948   6.193  17.128  0.1164  0.2902 -0.1604
 2662TIP3   OH229400   0.150   5.559  16.368  0.2198 -0.3821 -0.4592
 2662TIP3    H129401   0.142   5.478  16.317 -2.6051 -0.6406  0.2278
 2662TIP3    H229402   0.167   5.627  16.302  1.5146 -1.3339 -1.1527
 2663TIP3   OH229403   0.041   4.047  12.165 -0.0343 -0.1655 -0.1394
 2663TIP3    H129404   0.013   4.137  12.148 -1.5352 -0.5319  0.1954
 2663TIP3    H229405   0.049   4.007  12.079  0.7458  0.3158 -0.2925
 2664TIP3   OH229406   6.560   6.149   6.227 -0.0159  0.2797  0.3553
 2664TIP3    H129407   6.524   6.188   6.306 -1.2418  0.0136 -0.0562
 2664TIP3    H229408   6.654   6.145   6.243 -0.0884  1.5404  1.2151
 2665TIP3   OH229409   1.612   4.928   6.383  0.3329 -0.3709  0.3963
 2665TIP3    H129410   1.558   5.004   6.405  0.4258 -0.2569  0.2301
 2665TIP3    H229411   1.662   4.911   6.463 -0.3156 -0.7913  0.7263
 2666TIP3   OH229412   4.294   1.684   3.755  0.6593 -0.1304  0.0800
 2666TIP3    H129413   4.368   1.629   3.729  1.0196  0.9154 -1.1854
 2666TIP3    H229414   4.294   1.755   3.692 -0.3721  0.8324  1.1343
 2667TIP3   OH229415   3.486   4.056  11.870  0.2725  0.2521 -0.9596
 2667TIP3    H129416   3.528   4.141  11.856 -1.5141  1.9541  2.5300
 2667TIP3    H229417   3.549   4.006  11.921  0.1046  0.8334 -0.1503
 2668TIP3   OH229418   0.127   4.897  17.140 -0.0537  0.4719  0.1135
 2668TIP3    H129419   0.203   4.929  17.187  0.5420  0.3548 -0.7452
 2668TIP3    H229420   0.114   4.808  17.172 -0.7047  0.9704  1.2915
 2669TIP3   OH229421   6.152   3.303  15.124 -0.0489  0.0121 -0.4932
 2669TIP3    H129422   6.123   3.228  15.072 -2.2534  1.9011 -2.2202
 2669TIP3    H229423   6.076   3.327  15.177  0.7672  0.7698  0.3705
 2670TIP3   OH229424   5.052   6.027   5.489 -0.2518  0.1452 -0.4339
 2670TIP3    H129425   5.096   5.978   5.420 -1.9704  0.9919 -2.2226
 2670TIP3    H229426   5.101   6.109   5.496  0.1120 -0.0726 -0.3956
 2671TIP3   OH229427   6.416   1.363  15.830  0.3558  0.2868  0.3055
 2671TIP3    H129428   6.413   1.458  15.844 -1.0575  0.0589  1.9556
 2671TIP3    H229429   6.384   1.326  15.913  0.8514 -1.6330 -0.3186
 2672TIP3   OH229430   4.157   3.151   2.321 -0.0361  0.3328 -0.4743
 2672TIP3    H129431   4.121   3.147   2.409  1.3313  0.4431  0.1084
 2672TIP3    H229432   4.119   3.231   2.284 -0.8908  0.0990 -0.1195
 2673TIP3   OH229433   0.277   0.369  10.491 -0.1518  0.0312 -0.0287
 2673TIP3    H129434   0.344   0.308  10.522 -0.6850  0.4085  2.0103
 2673TIP3    H229435   0.274   0.437  10.558  0.0711  2.0970 -1.9704
 2674TIP3   OH229436   3.295   0.823  13.187  0.5357 -0.5446  0.9952
 2674TIP3    H129437   3.324   0.753  13.246  1.8829  0.6626  1.8362
 2674TIP3    H229438   3.303   0.785  13.099  1.8163 -1.2580  1.3929
 2675TIP3   OH229439   0.915   3.484  11.889 -0.5522 -0.3190 -0.1269
 2675TIP3    H129440   0.985   3.425  11.917 -0.5759  0.0174  0.6830
 2675TIP3    H229441   0.957   3.570  11.881 -0.8253 -0.1516  0.1844
 2676TIP3   OH229442   6.695   0.212  13.291 -0.0879 -0.1333 -0.8831
 2676TIP3    H129443   6.769   0.159  13.262  1.3174  0.5163  1.2700
 2676TIP3    H229444   6.697   0.289  13.233 -1.1516 -1.5928 -2.9553
 2677TIP3   OH229445   5.974   3.462   3.760  0.0308  0.8424  0.1060
 2677TIP3    H129446   5.969   3.436   3.668 -1.4638  0.3773  0.2992
 2677TIP3    H229447   5.934   3.549   3.762  0.8406  1.2265  0.2002
 2678TIP3   OH229448   2.771   4.997  14.938  0.1757 -0.0880  0.1042
 2678TIP3    H129449   2.856   5.027  14.970 -0.7087  1.9417  0.7201
 2678TIP3    H229450   2.769   4.904  14.958  1.9350 -0.0164  0.7760
 2679TIP3   OH229451   5.882   2.322   0.050  0.3422  0.1687 -0.1863
 2679TIP3    H129452   5.904   2.362  -0.034  0.4587  0.0302 -0.2206
 2679TIP3    H229453   5.828   2.247   0.029  0.0370  0.3648 -0.1134
 2680TIP3   OH229454   2.716   0.839   5.483 -0.3303  0.4664  0.1606
 2680TIP3    H129455   2.801   0.864   5.520 -0.7644  0.2433  1.3493
 2680TIP3    H229456   2.652   0.874   5.544 -1.0606 -0.4859 -0.0311
 2681TIP3   OH229457   0.543   0.541  14.518 -0.1953  0.0711 -0.2221
 2681TIP3    H129458   0.517   0.462  14.566  0.4693 -0.7954 -1.2190
 2681TIP3    H229459   0.508   0.613  14.569  0.0057 -0.8303  1.2582
 2682TIP3   OH229460   0.919   3.027   3.606  0.2777 -0.2927  0.5309
 2682TIP3    H129461   1.008   3.021   3.571  0.4902  1.1777  0.7469
 2682TIP3    H229462   0.875   2.949   3.572  1.1435 -0.1397 -1.0759
 2683TIP3   OH229463   5.902   0.714   2.315 -0.1406 -0.2610 -0.1327
 2683TIP3    H129464   5.946   0.798   2.327 -0.9542  0.2019 -0.3240
 2683TIP3    H229465   5.937   0.680   2.232  1.9213 -1.2283  1.0557
 2684TIP3   OH229466   4.798   2.822  10.750 -0.3806 -0.0972  0.0330
 2684TIP3    H129467   4.814   2.906  10.707 -1.2973 -0.3808 -0.9090
 2684TIP3    H229468   4.868   2.766  10.718  0.4402  0.3883  0.9368
 2685TIP3   OH229469   2.659   0.073   4.535 -0.2159  0.0783 -0.2917
 2685TIP3    H129470   2.708   0.135   4.590 -0.2556  0.8026 -1.0620
 2685TIP3    H229471   2.693  -0.013   4.560 -0.2994  0.3823  0.9368
 2686TIP3   OH229472   5.891   4.783  13.811  0.2794  0.0625  0.2217
 2686TIP3    H129473   5.807   4.819  13.781  0.7955  0.1850 -1.1707
 2686TIP3    H229474   5.871   4.742  13.895 -1.3131 -0.4050 -0.3482
 2687TIP3   OH229475   2.240   3.946  12.256  0.4243 -0.0844  0.4309
 2687TIP3    H129476   2.228   3.867  12.309 -1.5161  0.9662  1.6880
 2687TIP3    H229477   2.329   3.938  12.221  0.2183 -2.9190  0.2956
 2688TIP3   OH229478   5.177   0.044  14.932 -0.0184 -0.4087  0.4174
 2688TIP3    H129479   5.263   0.057  14.892 -0.3147  1.5095  0.3291
 2688TIP3    H229480   5.118   0.102  14.884 -0.6840  0.8550  2.5770
 2689TIP3   OH229481   0.836   5.498   2.316 -0.3704  0.7207 -0.2985
 2689TIP3    H129482   0.875   5.510   2.403  1.9584 -1.4896 -0.8947
 2689TIP3    H229483   0.850   5.582   2.273  3.1701  0.4091 -0.1240
 2690TIP3   OH229484   1.462   3.139   3.623  0.6971 -0.5969 -0.2512
 2690TIP3    H129485   1.436   3.195   3.549 -1.2622 -2.3462 -0.9572
 2690TIP3    H229486   1.517   3.196   3.677 -1.1774  2.0119 -0.9226
 2691TIP3   OH229487   4.828   2.640   5.024  0.4051 -0.1114  0.1419
 2691TIP3    H129488   4.820   2.732   4.997 -1.5940 -0.0821  0.6344
 2691TIP3    H229489   4.853   2.645   5.116 -0.8950  0.0128  0.5146
 2692TIP3   OH229490   0.215   1.502  15.671  0.4723  0.0100  0.1654
 2692TIP3    H129491   0.246   1.453  15.748  0.9344  3.1676  2.1941
 2692TIP3    H229492   0.287   1.562  15.651 -0.6929  1.0544 -1.0543
 2693TIP3   OH229493   2.351   2.675   2.705  0.3752  0.3155  0.0967
 2693TIP3    H129494   2.356   2.617   2.781  0.6752 -2.1795 -1.7314
 2693TIP3    H229495   2.261   2.667   2.674  1.0167 -1.1818 -1.5719
 2694TIP3   OH229496   4.270   0.849  11.430 -0.3182  0.2526 -0.0346
 2694TIP3    H129497   4.313   0.920  11.479 -2.2959  0.6857  1.1752
 2694TIP3    H229498   4.221   0.894  11.362  0.4835 -0.1858 -0.9219
 2695TIP3   OH229499   5.584   4.723  13.842 -0.1579  0.2747 -0.0159
 2695TIP3    H129500   5.580   4.688  13.753 -1.2619 -2.3698  0.9988
 2695TIP3    H229501   5.504   4.775  13.851  0.0843  0.7692 -0.6190
 2696TIP3   OH229502   6.269   2.386  12.272  0.1378  0.2206  0.5378
 2696TIP3    H129503   6.286   2.458  12.333 -0.1628  0.7083  0.0548
 2696TIP3    H229504   6.305   2.309  12.315 -0.8332  0.4041  1.7468
 2697TIP3   OH229505   0.591   1.086  15.998  0.5571 -0.0675 -0.1823
 2697TIP3    H129506   0.544   1.005  15.980 -1.8583  1.5104 -1.6145
 2697TIP3    H229507   0.628   1.074  16.085  0.8304 -2.9095 -0.6152
 2698TIP3   OH229508   5.515   0.491  11.255 -0.0565  0.1352 -1.0987
 2698TIP3    H129509   5.437   0.437  11.245 -1.4576  2.2725 -2.7572
 2698TIP3    H229510   5.589   0.431  11.244 -1.4148 -1.9628  0.5863
 2699TIP3   OH229511   0.390   3.208  12.730  0.7969 -0.2905  0.2813
 2699TIP3    H129512   0.387   3.284  12.789  0.5581 -0.8641  1.0270
 2699TIP3    H229513   0.473   3.166  12.750 -0.1892 -1.6624  1.7510
 2700TIP3   OH229514   3.009   2.193   1.997  0.2267  0.5773 -0.7289
 2700TIP3    H129515   3.094   2.194   1.954  1.4899  2.2788  1.5887
 2700TIP3    H229516   3.027   2.219   2.087 -2.3505 -1.8933  0.6858
 2701TIP3   OH229517   3.584   6.531   3.951 -0.2929  0.1735 -0.0546
 2701TIP3    H129518   3.516   6.564   3.892  1.7818  0.6549 -2.3343
 2701TIP3    H229519   3.560   6.439   3.966  0.1321 -0.6501 -3.4916
 2702TIP3   OH229520   3.321   1.619  16.142 -0.0399 -0.2181  0.0890
 2702TIP3    H129521   3.236   1.661  16.128 -1.1871 -2.3266  0.3612
 2702TIP3    H229522   3.349   1.649  16.228 -1.0126 -0.2742  0.4403
 2703TIP3   OH229523   5.027   0.067  15.802 -0.5998 -0.3432  0.2252
 2703TIP3    H129524   4.972   0.136  15.841 -0.0749  0.4273 -0.3832
 2703TIP3    H229525   5.027   0.086  15.709  0.2022 -0.7131  0.1479
 2704TIP3   OH229526   1.862   4.907   5.732  0.0721 -0.4965  0.2023
 2704TIP3    H129527   1.951   4.935   5.710  0.1422 -0.0268  1.0735
 2704TIP3    H229528   1.874   4.846   5.805 -0.2635 -1.0822 -0.2219
 2705TIP3   OH229529   5.973   3.427   3.496  0.3219  0.6499  0.3575
 2705TIP3    H129530   5.938   3.348   3.453  1.3388  0.5659 -0.3340
 2705TIP3    H229531   5.924   3.499   3.456 -0.3153  0.4100  0.6889
 2706TIP3   OH229532   5.996   3.577   4.574  0.2325 -0.1156 -0.0397
 2706TIP3    H129533   6.030   3.564   4.485  1.6459  1.9564  0.1395
 2706TIP3    H229534   5.952   3.494   4.594 -1.5556 -0.0954 -3.2371
 2707TIP3   OH229535   6.322   5.623   4.719 -0.7580 -0.4746  0.2251
 2707TIP3    H129536   6.361   5.547   4.676 -0.1770 -0.8134  1.3167
 2707TIP3    H229537   6.228   5.613   4.705 -0.5969 -0.6897 -0.7615
 2708TIP3   OH229538   0.777   1.412   2.641  0.3313  0.2039  0.4645
 2708TIP3    H129539   0.845   1.462   2.687  0.5313  1.3886 -1.0249
 2708TIP3    H229540   0.805   1.413   2.549 -1.2438 -0.0256 -0.0504
 2709TIP3   OH229541   1.173   3.268  14.134  0.2243 -0.6412  0.2908
 2709TIP3    H129542   1.193   3.359  14.112  0.3206 -0.9300 -0.8697
 2709TIP3    H229543   1.257   3.233  14.165  0.7832 -0.9364 -1.4328
 2710TIP3   OH229544   5.895   6.759   1.702 -0.0213  0.0393  0.3983
 2710TIP3    H129545   5.971   6.713   1.738 -0.4393 -0.7668  0.2967
 2710TIP3    H229546   5.879   6.831   1.763  0.6741  0.0665  0.5544
 2711TIP3   OH229547   3.534   2.985   3.068 -0.3638  0.3946  0.6341
 2711TIP3    H129548   3.561   2.922   3.002 -2.3024  0.1927 -0.0434
 2711TIP3    H229549   3.612   3.038   3.084  1.0879 -1.6448  0.6548
 2712TIP3   OH229550   5.648   0.782   5.104  0.2415 -0.2820 -0.3113
 2712TIP3    H129551   5.657   0.837   5.182 -3.7370  0.0667  0.1147
 2712TIP3    H229552   5.677   0.837   5.032 -2.9970  2.3761  0.1753
 2713TIP3   OH229553   3.940   6.009  14.353  0.1141  0.8646  0.1991
 2713TIP3    H129554   4.008   6.076  14.354 -0.0946  1.0762  0.1295
 2713TIP3    H229555   3.935   5.977  14.443  0.3006  0.8558  0.2057
 2714TIP3   OH229556   4.872   0.921   1.804 -0.3066 -0.1650  0.2807
 2714TIP3    H129557   4.791   0.970   1.815 -0.4731 -0.6493  1.3360
 2714TIP3    H229558   4.930   0.954   1.873 -0.1721 -0.9196  0.5395
 2715TIP3   OH229559   0.707   4.394  15.910  0.1964  0.0191 -0.1091
 2715TIP3    H129560   0.653   4.391  15.989  0.1291  0.0544 -0.1539
 2715TIP3    H229561   0.651   4.433  15.844  0.7348  1.3837  0.2133
 2716TIP3   OH229562   3.992   6.533  13.503  0.4536  0.0081 -0.0022
 2716TIP3    H129563   3.931   6.491  13.443  0.4739  0.9801 -0.7173
 2716TIP3    H229564   4.077   6.524  13.462  0.5094  0.4240  0.0198
 2717TIP3   OH229565   0.840   4.837  13.116 -0.5111  0.1653  0.2071
 2717TIP3    H129566   0.754   4.797  13.125 -0.4146  0.2365  1.6144
 2717TIP3    H229567   0.844   4.903  13.186  0.3810  0.7205 -0.3368
 2718TIP3   OH229568   0.817   6.461   0.149 -0.7553 -0.0202 -0.5286
 2718TIP3    H129569   0.910   6.480   0.152 -0.7049  0.3141 -2.7989
 2718TIP3    H229570   0.810   6.369   0.174  0.1927 -0.0919 -0.5070
 2719TIP3   OH229571   1.128   5.453  11.930  0.9199  0.1794  0.1584
 2719TIP3    H129572   1.077   5.510  11.987  1.5961  0.3680  0.5850
 2719TIP3    H229573   1.136   5.501  11.848  0.3621  0.1186  0.0646
 2720TIP3   OH229574   0.717   2.204  13.752  0.0905 -0.5525  0.6626
 2720TIP3    H129575   0.790   2.248  13.710 -1.4898  0.9151 -0.7301
 2720TIP3    H229576   0.701   2.127  13.697  0.0281 -0.3748  0.4287
 2721TIP3   OH229577   4.260   4.412  11.414 -0.2154 -0.4900  0.2415
 2721TIP3    H129578   4.340   4.361  11.402 -0.0081  0.0055 -0.5551
 2721TIP3    H229579   4.289   4.495  11.452 -0.4552 -0.6183  0.7252
 2722TIP3   OH229580   2.549   3.004   6.337 -0.1156 -0.4296  0.6550
 2722TIP3    H129581   2.458   3.030   6.329 -0.4529 -1.4001  1.1991
 2722TIP3    H229582   2.549   2.910   6.317  0.5175 -0.7735  2.1110
 2723TIP3   OH229583   6.326   2.743  15.853 -0.0953 -0.3513  0.3898
 2723TIP3    H129584   6.404   2.744  15.908  1.3438  1.3166 -1.5388
 2723TIP3    H229585   6.324   2.654  15.818  1.7926 -0.0655 -0.5912
 2724TIP3   OH229586   5.157   0.502   6.454  0.5920 -0.3994 -0.7457
 2724TIP3    H129587   5.089   0.452   6.409 -0.3208  0.2358 -0.1311
 2724TIP3    H229588   5.136   0.594   6.435  1.1285 -0.1868 -0.3477
 2725TIP3   OH229589   5.636   3.381  11.457  0.4945 -0.3953  0.0479
 2725TIP3    H129590   5.727   3.411  11.467  0.0040  0.5691  2.1923
 2725TIP3    H229591   5.596   3.445  11.398  0.5929  0.7172  1.1354
 2726TIP3   OH229592   4.364   3.564   2.877  0.0992 -0.2693 -0.2811
 2726TIP3    H129593   4.375   3.478   2.917 -0.4653 -0.0939  0.2732
 2726TIP3    H229594   4.312   3.548   2.799 -0.6804 -0.3403  0.2409
 2727TIP3   OH229595   3.108   2.191   0.546 -0.4937  0.6339 -0.1450
 2727TIP3    H129596   3.170   2.128   0.510  1.2693  2.8521 -1.2365
 2727TIP3    H229597   3.022   2.155   0.523  0.3354 -2.0440  0.5568
 2728TIP3   OH229598   0.312   4.261   1.891  0.3616 -0.3088 -0.6318
 2728TIP3    H129599   0.316   4.188   1.830  3.0434 -1.9104  1.2220
 2728TIP3    H229600   0.340   4.224   1.975 -2.6781  1.8732  1.5564
 2729TIP3   OH229601   4.408   2.124  13.714  0.3986  0.6478  0.6293
 2729TIP3    H129602   4.323   2.167  13.703  0.2529  0.3376  0.5239
 2729TIP3    H229603   4.422   2.124  13.808 -0.0622  0.0574  0.7095
 2730TIP3   OH229604   4.270   3.652  10.466  0.8364  0.2147 -0.3058
 2730TIP3    H129605   4.248   3.575  10.519 -0.3182  1.3000  0.8677
 2730TIP3    H229606   4.216   3.643  10.388 -0.4128  0.5161  0.4825
 2731TIP3   OH229607   2.417   4.875   1.909 -0.1650 -0.1321  0.4964
 2731TIP3    H129608   2.423   4.961   1.869  2.4983 -0.0749  0.8528
 2731TIP3    H229609   2.398   4.815   1.836 -1.9902  0.6840  0.2442
 2732TIP3   OH229610   4.798   0.749  17.054 -0.2290  0.0445  0.1756
 2732TIP3    H129611   4.808   0.839  17.024 -1.8568  0.3596  0.5237
 2732TIP3    H229612   4.704   0.735  17.059 -0.0164 -1.0588  1.9812
 2733TIP3   OH229613   4.789   1.917  11.319  0.1973  0.4320  0.2614
 2733TIP3    H129614   4.773   1.982  11.250 -3.0002 -0.3225  0.1145
 2733TIP3    H229615   4.730   1.944  11.390  1.1001 -0.5979  1.4339
 2734TIP3   OH229616   3.144   4.205  16.447 -0.5875  0.2667 -0.1704
 2734TIP3    H129617   3.223   4.151  16.452 -1.2109 -0.8269 -1.4413
 2734TIP3    H229618   3.079   4.157  16.499 -0.7272  0.5895 -0.0424
 2735TIP3   OH229619   2.336   0.427  14.103  0.3851  0.5784  0.1870
 2735TIP3    H129620   2.269   0.494  14.091 -1.1160 -1.0435 -0.9764
 2735TIP3    H229621   2.372   0.414  14.015 -0.3259 -1.0668  0.1084
 2736TIP3   OH229622   5.725   0.947   5.588 -0.4280  0.3687  0.2466
 2736TIP3    H129623   5.772   0.901   5.657 -1.2966 -1.3604 -0.2695
 2736TIP3    H229624   5.763   1.035   5.588  1.9875 -0.5945  0.6052
 2737TIP3   OH229625   3.361   4.516  14.418 -0.1848  0.0653  0.1723
 2737TIP3    H129626   3.392   4.440  14.466  1.6826  0.7159  0.0721
 2737TIP3    H229627   3.373   4.492  14.326  1.2820  0.7726  0.1481
 2738TIP3   OH229628   0.782   4.661  17.073  0.4145  0.5266  0.3032
 2738TIP3    H129629   0.789   4.713  17.153  0.3231 -1.1813  1.4871
 2738TIP3    H229630   0.832   4.581  17.092  0.5366  0.1572 -1.4254
 2739TIP3   OH229631   3.455   3.651  14.938  0.1481  0.0437 -0.1591
 2739TIP3    H129632   3.391   3.656  14.867  1.2078 -1.4886 -1.2693
 2739TIP3    H229633   3.520   3.719  14.917 -0.5670  0.9474  0.4569
 2740TIP3   OH229634   2.435   4.250  12.406 -0.2127  0.4467  0.0316
 2740TIP3    H129635   2.509   4.306  12.384  0.0602 -0.6845 -2.2937
 2740TIP3    H229636   2.394   4.292  12.481  0.4758  3.2575 -1.0420
 2741TIP3   OH229637   0.639   3.506   0.496  0.6982  0.9104  1.0055
 2741TIP3    H129638   0.571   3.472   0.439  1.2726  2.7221 -0.8570
 2741TIP3    H229639   0.600   3.583   0.538  1.5577  2.0625 -0.2012
 2742TIP3   OH229640   2.901   4.539  13.454  0.4173  0.0409 -0.3269
 2742TIP3    H129641   2.899   4.603  13.526 -0.0492 -0.7359  0.3678
 2742TIP3    H229642   2.819   4.552  13.407  0.3827  0.0400 -0.2658
 2743TIP3   OH229643   5.468   2.508   0.572 -0.1385 -0.3043  0.2879
 2743TIP3    H129644   5.438   2.571   0.506 -0.2009 -1.4133 -0.7611
 2743TIP3    H229645   5.456   2.422   0.532  0.3853 -0.9830  1.5180
 2744TIP3   OH229646   4.370   5.911   2.822  0.5206 -0.1871  0.0074
 2744TIP3    H129647   4.401   5.969   2.752  0.8626  0.4436  0.6658
 2744TIP3    H229648   4.415   5.943   2.900 -0.6202 -0.2499  0.7027
 2745TIP3   OH229649   1.804   3.230   2.703 -0.2889  0.1139  0.1082
 2745TIP3    H129650   1.732   3.263   2.650 -0.1215 -0.0780 -0.2477
 2745TIP3    H229651   1.871   3.298   2.698 -0.6525  0.5302  0.8802
 2746TIP3   OH229652   6.620   5.350   4.254 -0.2595 -0.2842  0.4678
 2746TIP3    H129653   6.537   5.338   4.299 -0.7346 -0.6944 -0.4878
 2746TIP3    H229654   6.628   5.445   4.244 -1.7009 -0.2886 -1.3340
 2747TIP3   OH229655   5.438   0.947  16.225  0.6246 -0.0806  0.2079
 2747TIP3    H129656   5.466   1.033  16.194  0.1833 -1.0899 -3.4698
 2747TIP3    H229657   5.512   0.889  16.206 -0.3273 -1.0754 -0.5693
 2748TIP3   OH229658   2.435   4.940   3.488  0.1601  0.1851  0.0922
 2748TIP3    H129659   2.472   4.879   3.552 -0.9915 -0.4594  0.1612
 2748TIP3    H229660   2.511   4.990   3.457  0.8608 -0.0296  1.3608
 2749TIP3   OH229661   5.494   4.286   1.250  0.4250  0.1111 -0.1945
 2749TIP3    H129662   5.428   4.217   1.241  2.0867 -1.4964 -0.5831
 2749TIP3    H229663   5.508   4.318   1.161  2.0977 -1.4724 -0.5415
 2750TIP3   OH229664   1.454   0.497  15.038  0.2984  0.1396  0.2495
 2750TIP3    H129665   1.423   0.446  14.964  1.1034  1.8594 -1.3631
 2750TIP3    H229666   1.495   0.433  15.096 -0.2092 -1.2348 -0.8517
 2751TIP3   OH229667   6.171   6.008   6.572 -0.4927  0.3788  0.0760
 2751TIP3    H129668   6.214   6.002   6.657  0.1818 -1.7193 -0.3702
 2751TIP3    H229669   6.148   6.101   6.564  0.9916  0.9537  1.7605
 2752TIP3   OH229670   6.625   0.021   5.405  0.1919  0.0982  0.0227
 2752TIP3    H129671   6.594  -0.059   5.448 -0.4803 -0.8957 -2.1710
 2752TIP3    H229672   6.711   0.037   5.445 -0.4109 -0.7127  1.7325
 2753TIP3   OH229673   2.377   0.869   0.632 -0.6383 -0.4317 -0.4900
 2753TIP3    H129674   2.364   0.833   0.719  0.6975 -0.0804 -0.1170
 2753TIP3    H229675   2.353   0.961   0.639 -0.5283 -0.4026 -0.4878
 2754TIP3   OH229676   2.216   0.881   1.752 -0.1451 -0.1137  0.4320
 2754TIP3    H129677   2.154   0.899   1.822 -0.5283  0.2808 -0.0048
 2754TIP3    H229678   2.216   0.961   1.698  1.4091  0.2496  0.9236
 2755TIP3   OH229679   3.625   3.481   5.573 -0.5879  0.0411  0.1499
 2755TIP3    H129680   3.550   3.541   5.579 -0.5598  0.5766 -2.9747
 2755TIP3    H229681   3.697   3.536   5.543 -0.1974 -1.2586 -1.4272
 2756TIP3   OH229682   5.005   0.990   4.022 -0.4685 -0.3043 -0.2496
 2756TIP3    H129683   4.954   0.935   3.963 -0.1068 -0.2149 -0.6525
 2756TIP3    H229684   4.972   0.969   4.110  1.5384 -3.2638 -0.0615
 2757TIP3   OH229685   6.227   1.302  13.531  0.3968  0.3109 -0.1653
 2757TIP3    H129686   6.217   1.361  13.605  1.7915 -2.4970  2.4987
 2757TIP3    H229687   6.320   1.308  13.507  0.4672 -0.4498 -0.1221
 2758TIP3   OH229688   3.265   0.379   0.311  0.2736  0.5881 -0.6846
 2758TIP3    H129689   3.278   0.285   0.312  0.9240  0.6622  0.9671
 2758TIP3    H229690   3.324   0.411   0.244  1.1945 -0.0546 -0.1992
 2759TIP3   OH229691   6.116   0.478   0.069 -0.0454 -0.3376  0.4334
 2759TIP3    H129692   6.024   0.455   0.057 -0.2265  0.5062  0.1075
 2759TIP3    H229693   6.148   0.416   0.134 -0.7448 -0.8837  0.2739
 2760TIP3   OH229694   0.375   6.356   1.277 -0.5901 -0.2118 -0.0006
 2760TIP3    H129695   0.437   6.287   1.299 -0.1814  0.7930  2.2107
 2760TIP3    H229696   0.423   6.416   1.221 -0.6245 -1.1262 -1.0438
 2761TIP3   OH229697   2.559   0.042  11.714  0.1884  0.3534 -0.1048
 2761TIP3    H129698   2.581  -0.014  11.639 -2.8906  0.8110 -1.5026
 2761TIP3    H229699   2.495  -0.008  11.764  0.6972  0.8811  1.0966
 2762TIP3   OH229700   6.158   0.225   5.398 -0.1249 -0.0890 -0.1093
 2762TIP3    H129701   6.097   0.233   5.471 -0.1807 -3.0530  0.2999
 2762TIP3    H229702   6.185   0.133   5.400  2.4807  0.5347 -1.7837
 2763TIP3   OH229703   5.544   5.427   5.776  0.1072  0.1883 -0.1149
 2763TIP3    H129704   5.603   5.409   5.849  0.9393 -0.4223 -0.9048
 2763TIP3    H229705   5.457   5.406   5.809  0.3685  0.7562  0.9654
 2764TIP3   OH229706   6.430   0.600  15.652 -0.1457 -0.1108  0.0397
 2764TIP3    H129707   6.505   0.578  15.707 -0.5098 -1.6191 -0.0268
 2764TIP3    H229708   6.411   0.692  15.673  0.1208 -0.4509  1.9617
 2765TIP3   OH229709   0.639   5.079   0.994 -0.8700  0.3800 -0.0077
 2765TIP3    H129710   0.732   5.078   0.971 -1.1157  0.9298 -1.1199
 2765TIP3    H229711   0.620   4.989   1.019 -0.1365  0.1596 -0.2179
 2766TIP3   OH229712   5.343   3.136   5.998 -0.5583  0.7097  0.1983
 2766TIP3    H129713   5.396   3.090   5.933  0.2271 -0.4163  1.5691
 2766TIP3    H229714   5.403   3.151   6.071 -1.5150  1.5645  0.8319
 2767TIP3   OH229715   1.639   3.391  13.009  0.2825  0.2610 -0.0347
 2767TIP3    H129716   1.699   3.319  12.992 -0.0413 -0.0529  0.1342
 2767TIP3    H229717   1.670   3.462  12.954  2.2798  0.9202  1.8041
 2768TIP3   OH229718   2.963   3.194   0.864 -0.1976  0.0728  0.3158
 2768TIP3    H129719   2.872   3.191   0.835 -0.1331  2.1746 -0.2850
 2768TIP3    H229720   2.963   3.147   0.947 -2.1102  1.0401  0.9270
 2769TIP3   OH229721   4.174   6.129  14.278 -0.0546  0.0056 -0.0239
 2769TIP3    H129722   4.246   6.165  14.331  0.6661 -0.8180 -0.4128
 2769TIP3    H229723   4.174   6.183  14.199  1.0793 -0.8327 -0.6420
 2770TIP3   OH229724   4.590   3.297  15.579  0.4690  0.0715 -0.0589
 2770TIP3    H129725   4.511   3.308  15.632 -0.4997 -0.5475 -1.3083
 2770TIP3    H229726   4.661   3.329  15.634 -0.7927  1.7903  0.6675
 2771TIP3   OH229727   3.869   4.705  13.257  0.2506  0.4762  0.7976
 2771TIP3    H129728   3.852   4.660  13.174  1.2862 -0.3392  1.0168
 2771TIP3    H229729   3.799   4.674  13.315 -0.6775  1.3016  0.1656
 2772TIP3   OH229730   0.755   2.406  14.730  0.0932  0.0723 -0.0125
 2772TIP3    H129731   0.667   2.377  14.754  0.6760 -2.2772 -0.5209
 2772TIP3    H229732   0.806   2.400  14.810  0.2869 -0.6613 -0.1843
 2773TIP3   OH229733   5.110   3.796   6.433  0.1317 -0.0657  0.4939
 2773TIP3    H129734   5.193   3.837   6.410 -0.8424  0.9423 -1.5067
 2773TIP3    H229735   5.089   3.831   6.520  1.3238  0.4408  0.5926
 2774TIP3   OH229736   2.058   0.768   0.509 -0.0215 -0.3295  0.1015
 2774TIP3    H129737   2.048   0.737   0.419 -0.0432 -0.5669  0.1839
 2774TIP3    H229738   2.083   0.689   0.558 -2.1852 -0.6901  0.7139
 2775TIP3   OH229739   6.662   3.510   3.765  0.0506  0.2935 -0.3240
 2775TIP3    H129740   6.641   3.599   3.793  1.0063  0.3114  0.3901
 2775TIP3    H229741   6.660   3.514   3.670  0.3694  1.1500 -0.3040
 2776TIP3   OH229742   5.645   6.534  14.726  0.2159 -0.2253 -0.4827
 2776TIP3    H129743   5.632   6.611  14.782 -2.7899 -1.0863  0.2399
 2776TIP3    H229744   5.709   6.481  14.772  1.0322  1.0534 -0.1081
 2777TIP3   OH229745   4.410   4.898  16.594  0.1879 -0.7567 -0.4572
 2777TIP3    H129746   4.373   4.986  16.589 -0.0247 -0.7993  0.2453
 2777TIP3    H229747   4.476   4.903  16.663  0.3287 -1.0889 -0.5662
 2778TIP3   OH229748   1.370   5.177   0.383  0.7100 -0.4131  0.6388
 2778TIP3    H129749   1.320   5.107   0.425  2.7183 -1.0404  2.1312
 2778TIP3    H229750   1.324   5.257   0.407 -1.5303 -1.1278 -0.9585
 2779TIP3   OH229751   4.819   5.696  14.349  0.0551 -0.1992 -0.1428
 2779TIP3    H129752   4.801   5.706  14.442 -0.9734  0.5913 -0.4047
 2779TIP3    H229753   4.759   5.627  14.320  0.9143 -0.9968 -0.0898
 2780TIP3   OH229754   1.489   0.218  12.135 -0.0907  0.1639 -0.0057
 2780TIP3    H129755   1.562   0.161  12.113  0.9224  2.0030 -1.7670
 2780TIP3    H229756   1.456   0.249  12.051 -1.2129  1.4132  0.8358
 2781TIP3   OH229757   2.093   3.658  16.368 -0.4199  0.0993 -0.2444
 2781TIP3    H129758   2.067   3.569  16.394  0.0130  0.0489  0.0090
 2781TIP3    H229759   2.153   3.645  16.295 -2.1021  0.2508 -1.7434
 2782TIP3   OH229760   1.824   0.323  11.867  0.5029 -0.4327 -0.3291
 2782TIP3    H129761   1.841   0.290  11.779 -4.8683 -3.3413 -0.6663
 2782TIP3    H229762   1.745   0.377  11.858  0.9549  0.9114  2.5102
 2783TIP3   OH229763   5.319   1.849   3.287  0.2405  0.1805 -0.1955
 2783TIP3    H129764   5.393   1.889   3.241  0.3167 -0.1318 -0.3490
 2783TIP3    H229765   5.345   1.848   3.379 -0.0757  1.1744 -0.0833
 2784TIP3   OH229766   0.587   4.549   0.667 -0.6009  0.6648 -0.4739
 2784TIP3    H129767   0.533   4.626   0.687  0.6656  1.3086  0.6160
 2784TIP3    H229768   0.552   4.481   0.724 -2.1649  0.1825 -1.9200
 2785TIP3   OH229769   4.847   1.242   0.609  0.1385 -0.3864  0.6740
 2785TIP3    H129770   4.799   1.169   0.649  0.4996 -0.4145  1.0708
 2785TIP3    H229771   4.828   1.317   0.665 -1.7171  0.2794 -0.7633
 2786TIP3   OH229772   3.235   3.621   5.181  0.4301 -0.0120  0.0166
 2786TIP3    H129773   3.328   3.616   5.161  0.7796 -2.1631  1.8075
 2786TIP3    H229774   3.224   3.567   5.259 -2.6538 -1.6447 -1.3674
 2787TIP3   OH229775   1.979   4.331  13.386  0.4547  0.4930 -0.2158
 2787TIP3    H129776   1.973   4.325  13.481 -0.2526  1.1933 -0.2062
 2787TIP3    H229777   1.889   4.328  13.355  0.7571 -1.9426 -1.0520
 2788TIP3   OH229778   5.858   4.820   3.409 -0.4258  0.1898 -0.0844
 2788TIP3    H129779   5.882   4.881   3.340  0.2495 -1.0538 -0.9876
 2788TIP3    H229780   5.911   4.846   3.484 -2.6319  2.8432  0.7185
 2789TIP3   OH229781   1.985   1.391  10.641  0.8591  0.3492 -0.0987
 2789TIP3    H129782   2.075   1.359  10.639  1.0515  0.8292  0.5197
 2789TIP3    H229783   1.970   1.426  10.553  0.9335 -0.6321 -0.5158
 2790TIP3   OH229784   4.646   1.527  13.734  0.0622  0.8602 -0.0693
 2790TIP3    H129785   4.735   1.508  13.762 -0.4082 -0.3634  0.6405
 2790TIP3    H229786   4.626   1.612  13.774  1.4895  2.0282 -1.6721
 2791TIP3   OH229787   5.191   6.699  13.432  0.3832 -0.2605  0.7976
 2791TIP3    H129788   5.274   6.656  13.408  0.5342  0.7207 -0.5503
 2791TIP3    H229789   5.217   6.785  13.464 -0.0941 -0.1326  0.8492
 2792TIP3   OH229790   3.336   4.086  11.353  0.4641  0.2783 -0.0226
 2792TIP3    H129791   3.269   4.056  11.414  1.5398  0.1344  1.1411
 2792TIP3    H229792   3.418   4.077  11.402  1.1038  2.8860 -0.4292
 2793TIP3   OH229793   4.906   0.414   2.405  0.2929  0.2924 -0.2226
 2793TIP3    H129794   4.944   0.400   2.318 -1.4796  0.9042 -1.1303
 2793TIP3    H229795   4.901   0.326   2.442  1.3569  0.0542 -0.5999
 2794TIP3   OH229796   3.950   5.426  10.824 -0.1036 -0.0311  0.1564
 2794TIP3    H129797   3.986   5.371  10.754  0.4733 -0.0223  0.4388
 2794TIP3    H229798   4.026   5.468  10.863 -0.3949 -0.2137  0.9431
 2795TIP3   OH229799   0.886   1.644  16.648 -0.5351 -0.1812  0.1688
 2795TIP3    H129800   0.903   1.637  16.742 -1.3891 -2.2254  0.2166
 2795TIP3    H229801   0.957   1.595  16.607 -1.0203 -0.6257 -0.1490
 2796TIP3   OH229802   6.675   2.926  16.538 -0.0478 -0.3058 -0.5802
 2796TIP3    H129803   6.718   2.941  16.623 -1.5672  0.1786  0.1391
 2796TIP3    H229804   6.739   2.875  16.488  0.5442 -1.4238  1.1973
 2797TIP3   OH229805   4.066   5.793   5.883  0.1251  0.5068  0.0118
 2797TIP3    H129806   4.004   5.850   5.930 -1.6357 -1.9833  0.9101
 2797TIP3    H229807   4.077   5.717   5.941  3.1589  0.2791 -0.6785
 2798TIP3   OH229808   4.345   5.016  11.716  0.2223 -0.1707 -0.2902
 2798TIP3    H129809   4.271   5.046  11.769  0.4171  0.1492 -0.1926
 2798TIP3    H229810   4.322   5.043  11.627 -1.4721 -3.2585 -0.9099
 2799TIP3   OH229811   0.408   3.303  12.068 -0.5794  0.5166 -0.0976
 2799TIP3    H129812   0.444   3.380  12.023  1.4235 -1.0854 -1.4349
 2799TIP3    H229813   0.358   3.257  12.001 -3.0676  1.3299  1.0839
 2800TIP3   OH229814   1.098   3.604  16.415 -0.1081 -0.5490  0.1815
 2800TIP3    H129815   1.011   3.622  16.451  0.2637 -1.0010  1.3642
 2800TIP3    H229816   1.137   3.542  16.477  1.3394  0.2264  0.0901
 2801TIP3   OH229817   1.798   2.532   0.949 -0.0400  0.2000 -0.5293
 2801TIP3    H129818   1.752   2.573   1.023  1.0653  3.8427 -1.6452
 2801TIP3    H229819   1.861   2.474   0.990 -2.9372 -2.0706  1.1330
 2802TIP3   OH229820   5.958   0.872  13.257  0.5736 -0.3087 -0.1250
 2802TIP3    H129821   5.988   0.929  13.328  0.0974  1.1645 -1.0345
 2802TIP3    H229822   6.016   0.893  13.183  0.1317 -0.6893 -0.5909
 2803TIP3   OH229823   4.841   2.412  14.947 -0.1553 -0.1877  0.2446
 2803TIP3    H129824   4.839   2.410  14.851 -0.9596 -1.0077  0.2627
 2803TIP3    H229825   4.851   2.505  14.968  1.1482 -0.1046 -0.6275
 2804TIP3   OH229826   0.390   0.308  13.837 -0.0763  0.5780 -0.0758
 2804TIP3    H129827   0.422   0.279  13.923 -0.4906  0.1855 -0.0479
 2804TIP3    H229828   0.318   0.248  13.817  0.0019  0.6830 -0.6892
 2805TIP3   OH229829   0.159   2.701   4.232 -0.2019 -0.0147 -0.5972
 2805TIP3    H129830   0.193   2.759   4.300  0.0245 -1.8165  0.8910
 2805TIP3    H229831   0.227   2.700   4.165  1.5929 -1.4628  1.1190
 2806TIP3   OH229832   6.419   6.489   2.878  0.3313 -0.4084  0.1608
 2806TIP3    H129833   6.386   6.579   2.876 -2.1000 -1.2142  0.2232
 2806TIP3    H229834   6.506   6.496   2.917 -0.3110  1.7745  1.3641
 2807TIP3   OH229835   5.604   5.186  16.590 -0.3697  0.2350  0.4864
 2807TIP3    H129836   5.554   5.218  16.665  0.1927 -0.5604  1.2205
 2807TIP3    H229837   5.555   5.216  16.514 -1.2430  0.6045  1.1760
 2808TIP3   OH229838   0.925   1.294  14.166  0.3466  0.4394  0.1208
 2808TIP3    H129839   0.881   1.213  14.191 -0.9899  0.9027 -0.5836
 2808TIP3    H229840   0.875   1.363  14.210  0.4294  0.9825 -0.6106
 2809TIP3   OH229841   6.464   5.466   0.452  0.5758  0.3093 -0.0486
 2809TIP3    H129842   6.543   5.448   0.504  1.8990  0.4402 -1.8931
 2809TIP3    H229843   6.471   5.559   0.431  0.1545  0.2217 -0.5750
 2810TIP3   OH229844   6.710   6.637   3.783  0.1166 -0.8052 -0.1701
 2810TIP3    H129845   6.679   6.712   3.732 -2.1560 -0.5668  1.4005
 2810TIP3    H229846   6.790   6.667   3.825  1.0821 -0.4457 -2.1361
 2811TIP3   OH229847   2.499   4.021   3.538  0.0150  0.0550 -0.1881
 2811TIP3    H129848   2.559   4.094   3.554 -1.5312  1.3041  0.1965
 2811TIP3    H229849   2.502   4.008   3.443  0.3263  0.6350 -0.2646
 2812TIP3   OH229850   0.139   1.832  11.858  0.1715 -0.2781  0.4981
 2812TIP3    H129851   0.192   1.847  11.780 -0.6089 -0.5684 -0.0946
 2812TIP3    H229852   0.166   1.746  11.889  1.4017  0.3592  1.3107
 2813TIP3   OH229853   6.663   2.597   4.810 -0.1192 -0.7592  0.0666
 2813TIP3    H129854   6.748   2.555   4.821 -0.0604 -1.9539 -3.5645
 2813TIP3    H229855   6.627   2.560   4.729 -2.0137  3.0473 -1.1337
 2814TIP3   OH229856   4.580   3.330   1.111  0.4172 -0.3282 -0.4103
 2814TIP3    H129857   4.635   3.382   1.169 -0.5227  0.9519 -0.6189
 2814TIP3    H229858   4.580   3.378   1.028 -3.0431  1.2396  0.2931
 2815TIP3   OH229859   6.644   5.956  13.945  0.0981  0.2458  0.1978
 2815TIP3    H129860   6.562   5.941  13.898  0.3140 -0.7300  0.1097
 2815TIP3    H229861   6.652   6.051  13.950 -1.5414  0.3556  1.0914
 2816TIP3   OH229862   3.344   3.159   1.059 -0.3013  0.1933  0.1260
 2816TIP3    H129863   3.320   3.121   0.975 -1.2086 -0.2822  0.5887
 2816TIP3    H229864   3.358   3.084   1.117 -0.1803  0.5264  0.5353
 2817TIP3   OH229865   4.277   2.803   4.841  0.3419  0.1238  0.1685
 2817TIP3    H129866   4.194   2.851   4.838  0.1939 -0.0515  1.0958
 2817TIP3    H229867   4.310   2.806   4.751 -0.8447 -0.1290 -0.2907
 2818TIP3   OH229868   2.265   3.624  15.792 -0.4153 -0.5078 -0.4320
 2818TIP3    H129869   2.187   3.678  15.784 -0.1722  0.0836  0.9768
 2818TIP3    H229870   2.243   3.559  15.859  0.1003 -0.6947 -0.4367
 2819TIP3   OH229871   5.165   3.892  13.920 -0.0339  0.5287  0.1077
 2819TIP3    H129872   5.200   3.805  13.901 -2.6031 -0.5820  0.0547
 2819TIP3    H229873   5.155   3.933  13.834 -0.5861  0.1177 -0.0295
 2820TIP3   OH229874   6.281   0.763  15.015  0.4392  0.1760 -0.1144
 2820TIP3    H129875   6.347   0.802  14.957  1.2115  0.6975  1.0628
 2820TIP3    H229876   6.210   0.736  14.957  0.3161  2.4386 -1.1065
 2821TIP3   OH229877   0.719   1.994  17.105  0.2080 -0.2572  0.5745
 2821TIP3    H129878   0.755   1.984  17.017 -1.3971  1.5167 -0.3479
 2821TIP3    H229879   0.796   2.000  17.162  1.2780 -0.7732 -0.7732
 2822TIP3   OH229880   3.490   2.037  11.662  0.2625  0.2362  0.0878
 2822TIP3    H129881   3.424   2.063  11.726  0.5291 -1.0956  0.9497
 2822TIP3    H229882   3.482   1.942  11.657  1.3301  0.1648 -0.6696
 2823TIP3   OH229883   1.561   2.551   3.855 -0.2392 -0.1555  0.5315
 2823TIP3    H129884   1.474   2.514   3.868  0.6175 -2.3190  0.5123
 2823TIP3    H229885   1.584   2.589   3.940 -0.9761 -0.0996  0.7065
 2824TIP3   OH229886   3.198   2.631  13.596 -0.9417  0.0302 -0.2509
 2824TIP3    H129887   3.239   2.686  13.664 -1.4549  0.3837 -0.2259
 2824TIP3    H229888   3.167   2.554  13.644 -0.0402 -0.3931 -0.3178
 2825TIP3   OH229889   4.269   4.821   0.344  1.5552  0.3293  0.4995
 2825TIP3    H129890   4.239   4.911   0.330  2.4231  0.3307 -1.7490
 2825TIP3    H229891   4.194   4.776   0.383  0.5612  1.6527  0.1848
 2826TIP3   OH229892   2.696   1.626   4.485 -0.0938 -0.3910  0.1272
 2826TIP3    H129893   2.699   1.697   4.549  1.3348 -0.3052 -0.0022
 2826TIP3    H229894   2.674   1.668   4.402  0.9888 -0.0501  0.0041
 2827TIP3   OH229895   3.778   4.319  14.682 -0.0346 -0.0021 -0.1465
 2827TIP3    H129896   3.840   4.390  14.701  1.0092 -1.1629  1.0134
 2827TIP3    H229897   3.709   4.330  14.748  0.2091 -0.1633  0.1359
 2828TIP3   OH229898   6.541   2.798  11.841  0.0089  0.1210  0.2756
 2828TIP3    H129899   6.536   2.709  11.876  0.3411  0.9811  2.7231
 2828TIP3    H229900   6.597   2.791  11.764 -2.7037 -2.2848 -1.6713
 2829TIP3   OH229901   1.075   6.026   2.831  0.1977  0.0589 -0.3410
 2829TIP3    H129902   1.008   6.046   2.765 -0.2296 -1.4753 -0.4109
 2829TIP3    H229903   1.032   5.967   2.892  1.3461 -0.5744 -0.1107
 2830TIP3   OH229904   2.351   4.851   0.544  0.7165 -0.3860 -0.1570
 2830TIP3    H129905   2.368   4.896   0.461 -0.7986 -2.1355 -1.4983
 2830TIP3    H229906   2.418   4.782   0.548 -0.6352 -1.8083 -1.1590
 2831TIP3   OH229907   5.823   5.540   2.950 -0.1233  0.2798 -0.7409
 2831TIP3    H129908   5.881   5.612   2.927 -0.1852  0.8758  0.8419
 2831TIP3    H229909   5.803   5.554   3.042 -1.7535 -0.6506 -0.9163
 2832TIP3   OH229910   3.428   0.806   0.334  0.2335  0.2092  0.2207
 2832TIP3    H129911   3.338   0.828   0.310  0.2584 -1.1122 -1.2624
 2832TIP3    H229912   3.477   0.888   0.322 -0.2822  0.2777 -1.7058
 2833TIP3   OH229913   0.777   1.622  11.599 -0.0378  0.1867 -0.2547
 2833TIP3    H129914   0.853   1.574  11.567  0.1673  0.4934 -0.2330
 2833TIP3    H229915   0.712   1.555  11.617 -0.2104  0.0048 -1.4657
 2834TIP3   OH229916   6.388   3.099  10.732 -0.4687  0.2641  0.3439
 2834TIP3    H129917   6.307   3.147  10.715 -1.0026 -0.6802  0.1491
 2834TIP3    H229918   6.456   3.167  10.734 -1.3745  1.1829  1.4097
 2835TIP3   OH229919   6.120   5.994  12.760  0.7858 -1.1208  0.0112
 2835TIP3    H129920   6.149   5.962  12.675 -1.3991 -1.5786 -0.6280
 2835TIP3    H229921   6.125   6.090  12.752  0.9024 -1.1653 -0.5265
 2836TIP3   OH229922   0.797   6.383   1.338 -0.2139 -0.0361 -0.3903
 2836TIP3    H129923   0.869   6.321   1.343 -0.5420 -0.3545  0.8552
 2836TIP3    H229924   0.810   6.429   1.255  0.0237 -1.7599 -1.3609
 2837TIP3   OH229925   3.114   1.683   0.501 -0.0105  0.4375  0.3091
 2837TIP3    H129926   3.096   1.726   0.585  1.6617 -0.1294  0.9896
 2837TIP3    H229927   3.141   1.594   0.524  1.0470  0.4485 -0.7764
 2838TIP3   OH229928   6.494   4.879  16.205  0.0578  0.0512  0.4495
 2838TIP3    H129929   6.583   4.912  16.216  0.1760 -0.5801  1.6247
 2838TIP3    H229930   6.504   4.797  16.158  0.2966 -0.8382  1.9706
 2839TIP3   OH229931   5.972   3.779  13.149 -0.4130  0.1262  0.0044
 2839TIP3    H129932   6.016   3.825  13.220  0.1892 -0.0784 -0.2309
 2839TIP3    H229933   6.036   3.777  13.078 -1.3972  1.3651 -0.9802
 2840TIP3   OH229934   5.591   0.317   2.121  0.4455  0.3255 -0.5626
 2840TIP3    H129935   5.630   0.371   2.052 -0.7289 -0.3665 -1.8067
 2840TIP3    H229936   5.535   0.377   2.170 -0.7460  0.3212 -1.8556
 2841TIP3   OH229937   3.127   1.084   3.485  0.1815 -0.2065  0.3676
 2841TIP3    H129938   3.140   1.015   3.550 -0.0693  0.5431  1.2353
 2841TIP3    H229939   3.211   1.092   3.441  0.2965 -0.8673  0.4564
 2842TIP3   OH229940   2.547   2.785   6.187  0.3934 -0.1861  0.0288
 2842TIP3    H129941   2.467   2.746   6.152 -0.1869  1.7073 -0.8879
 2842TIP3    H229942   2.613   2.717   6.177 -0.9634 -1.5989  0.2867
 2843TIP3   OH229943   3.286   0.151  16.559  0.0381 -0.1820  0.0020
 2843TIP3    H129944   3.304   0.097  16.636 -1.0231 -1.2646 -0.4691
 2843TIP3    H229945   3.372   0.169  16.521  0.5041 -0.4373  0.9082
 2844TIP3   OH229946   3.086   1.141  11.039 -0.3893 -0.2675 -0.2674
 2844TIP3    H129947   3.069   1.204  10.969  0.8641 -0.1751 -0.4997
 2844TIP3    H229948   3.030   1.171  11.111 -1.6508 -0.3350 -1.1816
 2845TIP3   OH229949   2.325   6.765  16.682 -0.0070  0.2345  0.0674
 2845TIP3    H129950   2.250   6.820  16.703 -0.9774 -1.1998  0.5377
 2845TIP3    H229951   2.286   6.683  16.650  1.3640 -0.3719 -0.1034
 2846TIP3   OH229952   0.881   2.207  14.470 -0.0063  0.3633 -0.6324
 2846TIP3    H129953   0.814   2.264  14.509 -0.2773 -1.1226  1.2374
 2846TIP3    H229954   0.836   2.164  14.397 -0.9095 -0.1052  0.1772
 2847TIP3   OH229955   4.634   5.665   4.647 -0.3160 -0.2219  0.5992
 2847TIP3    H129956   4.693   5.622   4.709 -0.5999 -1.0137  0.3293
 2847TIP3    H229957   4.640   5.758   4.669 -0.1062 -0.4473  1.5491
 2848TIP3   OH229958   6.206   0.285  11.746 -0.0049  0.3466  0.1190
 2848TIP3    H129959   6.129   0.256  11.794 -0.3080  1.8728  0.5760
 2848TIP3    H229960   6.228   0.210  11.689 -2.1073  0.0696 -0.3997
 2849TIP3   OH229961   5.927   1.630  11.533 -0.4147 -0.0884 -0.1758
 2849TIP3    H129962   5.843   1.675  11.545 -1.4314 -1.7533 -0.6613
 2849TIP3    H229963   5.907   1.538  11.549  1.2395 -0.5821 -0.7513
 2850TIP3   OH229964   0.191   2.574  11.144  0.2428  0.2051  0.4344
 2850TIP3    H129965   0.160   2.593  11.055 -0.2324 -0.3198  0.4847
 2850TIP3    H229966   0.217   2.482  11.142 -1.7114 -0.4254  1.3572
 2851TIP3   OH229967   6.196   0.498  16.294 -0.3146 -1.1852  0.0168
 2851TIP3    H129968   6.133   0.570  16.290  0.6679 -0.3366 -0.3195
 2851TIP3    H229969   6.141   0.420  16.301 -1.3919 -0.3986  0.7675
 2852TIP3   OH229970   3.408   4.954   2.957 -0.0451 -0.3847 -0.4796
 2852TIP3    H129971   3.460   4.892   3.009 -1.6037  0.7151  2.6711
 2852TIP3    H229972   3.317   4.932   2.979 -0.7311  0.8811 -1.9367
 2853TIP3   OH229973   1.667   6.078   2.361 -0.2166  0.5236  0.3312
 2853TIP3    H129974   1.602   6.148   2.358 -1.1091 -0.1885  1.8579
 2853TIP3    H229975   1.616   5.998   2.369  0.7839 -0.3570 -1.4896
 2854TIP3   OH229976   1.128   5.144  12.866 -0.1373 -0.2975  0.6591
 2854TIP3    H129977   1.216   5.109  12.873 -0.4515 -1.0279  0.9856
 2854TIP3    H229978   1.120   5.205  12.939  0.6728  1.0820 -0.3460
 2855TIP3   OH229979   3.061   3.954  14.167  0.2359 -0.5615 -0.3955
 2855TIP3    H129980   3.013   3.874  14.145  2.2867 -1.4758 -1.8893
 2855TIP3    H229981   3.047   4.010  14.091 -0.0685 -0.0236  0.0520
 2856TIP3   OH229982   1.724   6.348   0.495  0.3855 -0.0837  0.8176
 2856TIP3    H129983   1.807   6.379   0.459 -0.9271  0.2805 -2.1440
 2856TIP3    H229984   1.739   6.256   0.515  1.1835 -0.3330 -0.8112
 2857TIP3   OH229985   3.045   1.527   1.157  0.1561  0.6755  0.0941
 2857TIP3    H129986   3.055   1.622   1.155 -0.3525  0.7809  1.3918
 2857TIP3    H229987   3.107   1.497   1.224  1.5691 -0.1196 -1.4948
 2858TIP3   OH229988   1.869   2.031  15.851 -0.0950  0.4881  0.2120
 2858TIP3    H129989   1.815   2.110  15.847  0.4512  0.8870  0.4903
 2858TIP3    H229990   1.838   1.984  15.928 -0.8150  0.1351 -0.2906
 2859TIP3   OH229991   3.725   1.787   2.527  0.7106 -0.3035  0.1589
 2859TIP3    H129992   3.718   1.697   2.494  0.3743 -0.5495  0.8899
 2859TIP3    H229993   3.708   1.780   2.620 -0.2368  0.6593  0.0732
 2860TIP3   OH229994   1.650   2.781  15.438 -0.1325 -0.1017 -0.6327
 2860TIP3    H129995   1.562   2.744  15.430 -0.3741  0.5874 -1.3623
 2860TIP3    H229996   1.709   2.706  15.437 -0.7088 -0.5635 -0.2461
 2861TIP3   OH229997   1.906   1.727   1.601 -0.5678  0.1636 -0.2242
 2861TIP3    H129998   1.926   1.652   1.657  1.3727  0.0500 -0.9680
 2861TIP3    H229999   1.945   1.704   1.516 -0.1764  1.8658 -0.5487
 2862TIP3   OH230000   4.284   3.300   4.133  0.3357 -0.1022  0.1008
 2862TIP3    H130001   4.253   3.300   4.042  0.5678 -0.2774  0.0193
 2862TIP3    H230002   4.205   3.309   4.185  0.3112  1.3626 -0.1469
 2863TIP3   OH230003   1.185   3.690   3.414 -0.1889  0.4256  0.6087
 2863TIP3    H130004   1.217   3.757   3.353  1.0864 -0.1000  0.6750
 2863TIP3    H230005   1.198   3.607   3.368  1.7381 -0.0756  1.9238
 2864TIP3   OH230006   0.152   3.766   5.449 -0.3421 -0.2745 -0.2830
 2864TIP3    H130007   0.157   3.862   5.451 -0.5983 -0.2581 -0.4758
 2864TIP3    H230008   0.237   3.738   5.482 -0.3022  0.0202 -0.1293
 2865TIP3   OH230009   2.857   1.400   4.550  0.6388  0.0497  0.3019
 2865TIP3    H130010   2.801   1.415   4.625  1.1701  1.4953  0.4418
 2865TIP3    H230011   2.847   1.478   4.496 -0.7012 -1.4511 -1.8141
 2866TIP3   OH230012   1.898   3.419   4.272  0.0962 -0.0609  0.0143
 2866TIP3    H130013   1.817   3.393   4.229  1.0938 -1.7211 -0.9592
 2866TIP3    H230014   1.949   3.338   4.280  1.0712  0.6578  1.9381
 2867TIP3   OH230015   1.647   4.979  12.686 -0.1963  0.1914 -0.4527
 2867TIP3    H130016   1.603   4.895  12.702  0.3428  0.1500  0.9504
 2867TIP3    H230017   1.577   5.044  12.694 -0.4131 -0.0387 -0.4395
 2868TIP3   OH230018   0.441   1.992  17.121  0.5906 -0.0552  0.2570
 2868TIP3    H130019   0.432   2.087  17.110 -0.5669 -0.3513 -1.7617
 2868TIP3    H230020   0.532   1.974  17.096  0.0198  0.2282 -2.3119
 2869TIP3   OH230021   3.463   5.260  16.550  0.2347 -0.0063  0.1345
 2869TIP3    H130022   3.470   5.265  16.645 -1.0297 -0.5372  0.2846
 2869TIP3    H230023   3.384   5.208  16.535 -0.2531  1.0599 -1.1919
 2870TIP3   OH230024   4.729   4.657  15.240  0.4474 -0.1423 -0.3638
 2870TIP3    H130025   4.818   4.690  15.227  1.1946 -1.1575  1.7985
 2870TIP3    H230026   4.727   4.574  15.192  1.4531 -1.2352  1.3827
 2871TIP3   OH230027   0.684   1.373  13.932 -0.1662 -0.4340 -0.0663
 2871TIP3    H130028   0.632   1.453  13.941 -0.3263 -0.4564 -0.7192
 2871TIP3    H230029   0.759   1.399  13.877  1.3764 -0.0175  2.1190
 2872TIP3   OH230030   5.752   5.965  14.309  0.4142  0.8559 -0.0928
 2872TIP3    H130031   5.702   5.889  14.280  0.7486  0.9254 -0.8693
 2872TIP3    H230032   5.686   6.028  14.338  0.1558 -0.0212  1.3497
 2873TIP3   OH230033   4.277   5.864   5.225 -0.7098 -0.2030 -0.1656
 2873TIP3    H130034   4.298   5.870   5.318 -1.5059  0.3157 -0.0110
 2873TIP3    H230035   4.327   5.789   5.194 -0.4922 -0.4230  0.6958
 2874TIP3   OH230036   6.112   6.664  14.683 -0.1753 -0.0467  0.2865
 2874TIP3    H130037   6.019   6.676  14.668 -0.6465 -1.5726  1.6699
 2874TIP3    H230038   6.128   6.572  14.664  1.3603  0.4880 -1.2658
 2875TIP3   OH230039   2.554   1.160  16.725  0.0673 -0.2685 -0.3199
 2875TIP3    H130040   2.607   1.167  16.804 -1.5738 -0.5188  0.8581
 2875TIP3    H230041   2.610   1.116  16.661  1.1501 -0.7836  0.9540
 2876TIP3   OH230042   3.601   3.295  12.596  0.3029  0.3903  0.0435
 2876TIP3    H130043   3.539   3.366  12.612  0.9870  0.9783  0.1297
 2876TIP3    H230044   3.636   3.313  12.509  1.5120  0.9670  0.6196
 2877TIP3   OH230045   2.543   0.188   2.718 -0.5959  0.7788  0.2173
 2877TIP3    H130046   2.503   0.108   2.750 -0.9481  0.7729 -0.2301
 2877TIP3    H230047   2.475   0.230   2.666  0.3320  0.1850 -1.5651
 2878TIP3   OH230048   2.786   2.381   2.652  0.3019 -0.7914 -0.4755
 2878TIP3    H130049   2.699   2.381   2.691 -0.2769 -0.0305 -1.7068
 2878TIP3    H230050   2.778   2.323   2.575  1.5140 -2.5630  0.6548
 2879TIP3   OH230051   3.185   5.820  16.226  0.4521 -0.3480  0.6632
 2879TIP3    H130052   3.278   5.812  16.203  0.1718 -0.8912 -0.3748
 2879TIP3    H230053   3.144   5.852  16.146 -0.3433 -0.6788  0.9322
 2880TIP3   OH230054   2.467   5.685  11.294 -0.0291  0.1160 -0.2153
 2880TIP3    H130055   2.556   5.650  11.304  0.2302  1.0080  0.7453
 2880TIP3    H230056   2.418   5.613  11.254  0.9916 -0.5825 -0.2585
 2881TIP3   OH230057   4.567   3.190   4.449 -0.1764 -0.3504 -0.9397
 2881TIP3    H130058   4.529   3.136   4.380  0.2129  0.1442 -1.5580
 2881TIP3    H230059   4.626   3.250   4.403  0.1816 -0.0844 -0.1648
 2882TIP3   OH230060   1.093   3.613  16.082 -0.7942 -0.7472 -0.2546
 2882TIP3    H130061   1.040   3.566  16.146 -0.4174 -0.6890  0.1101
 2882TIP3    H230062   1.179   3.621  16.124  0.4586 -3.5240 -2.0635
 2883TIP3   OH230063   5.451   2.114   2.548 -0.6054  0.3528  0.3379
 2883TIP3    H130064   5.467   2.172   2.473 -1.3535 -1.2993 -1.1534
 2883TIP3    H230065   5.423   2.173   2.618  0.0803  1.9420 -0.6649
 2884TIP3   OH230066   2.900   5.516   2.990  0.2344  0.0032  0.4358
 2884TIP3    H130067   2.995   5.514   3.003  0.4018  1.3518 -0.3666
 2884TIP3    H230068   2.867   5.440   3.037  1.9225 -1.6897 -0.9456
 2885TIP3   OH230069   3.771   3.138  13.581 -0.1545 -0.1676  0.2842
 2885TIP3    H130070   3.803   3.226  13.603 -0.2899 -0.4965  1.8826
 2885TIP3    H230071   3.681   3.152  13.553  0.5745  0.4793 -2.0167
 2886TIP3   OH230072   3.229   2.491   2.422 -0.4255 -0.2910 -0.4195
 2886TIP3    H130073   3.214   2.409   2.374 -2.2782 -1.4314  1.8771
 2886TIP3    H230074   3.178   2.481   2.502  1.1591  2.2014  1.0262
 2887TIP3   OH230075   5.324   6.097   4.093  0.3807  0.6730 -0.2351
 2887TIP3    H130076   5.327   6.023   4.031 -2.9909  0.1784 -0.0148
 2887TIP3    H230077   5.309   6.174   4.038  1.1469  0.7923 -0.2794
 2888TIP3   OH230078   0.672   1.553   4.472 -0.0259  0.0372  0.8143
 2888TIP3    H130079   0.595   1.608   4.456  0.9482  1.6752  1.5696
 2888TIP3    H230080   0.654   1.512   4.557 -0.5364 -0.4367  0.4817
 2889TIP3   OH230081   2.926   6.527   0.585 -0.4673 -0.1545 -0.4556
 2889TIP3    H130082   2.905   6.570   0.502 -0.0017 -1.3316 -1.2198
 2889TIP3    H230083   2.879   6.443   0.580 -1.0045  0.0560  0.7852
 2890TIP3   OH230084   6.675   3.305   0.263  0.5985  0.5931 -0.2341
 2890TIP3    H130085   6.631   3.380   0.304  1.1343  1.0685 -0.5120
 2890TIP3    H230086   6.609   3.268   0.204  0.7833  1.7440 -1.1951
 2891TIP3   OH230087   6.358   6.274  17.241  0.0300 -0.6865 -0.2110
 2891TIP3    H130088   6.268   6.304  17.251  0.7834  1.6075  0.2897
 2891TIP3    H230089   6.380   6.296  17.150 -0.1750 -2.0874 -0.6187
 2892TIP3   OH230090   5.375   4.522   3.825  0.0707 -1.0286 -0.8060
 2892TIP3    H130091   5.291   4.535   3.871 -0.8563 -0.9546 -2.4631
 2892TIP3    H230092   5.437   4.502   3.895 -1.3640 -1.2597  0.4543
 2893TIP3   OH230093   4.331   3.709   3.773 -0.1594 -0.0228 -0.2508
 2893TIP3    H130094   4.285   3.634   3.734  1.3335 -0.0824 -2.0654
 2893TIP3    H230095   4.267   3.780   3.769 -0.7892 -0.5970 -0.7769
 2894TIP3   OH230096   3.573   4.700   4.796  0.2485  0.6373 -0.0141
 2894TIP3    H130097   3.564   4.650   4.715  0.2063 -2.2483  1.6286
 2894TIP3    H230098   3.490   4.748   4.804 -1.0674 -1.4501 -0.2390
 2895TIP3   OH230099   5.275   4.339   1.452  0.4549  0.4260 -0.3661
 2895TIP3    H130100   5.363   4.303   1.442  0.3999  0.3753 -0.6830
 2895TIP3    H230101   5.274   4.416   1.395  0.4634  0.7323  0.0459
 2896TIP3   OH230102   2.610   1.300  15.854 -0.1474  0.2746  0.6802
 2896TIP3    H130103   2.644   1.319  15.766  0.2013 -1.6570  0.3583
 2896TIP3    H230104   2.687   1.277  15.905 -0.3500  1.3680  1.5270
 2897TIP3   OH230105   2.492   6.436  17.121  0.1776  0.2870  0.0655
 2897TIP3    H130106   2.436   6.508  17.093 -1.1153 -1.4100 -2.0762
 2897TIP3    H230107   2.533   6.404  17.040 -1.0464 -2.7221  0.4900
 2898TIP3   OH230108   2.406   6.668   4.433 -0.0193  0.6202  0.0016
 2898TIP3    H130109   2.374   6.666   4.523 -2.2306  0.6444 -0.7377
 2898TIP3    H230110   2.499   6.646   4.441 -0.3006 -0.0571  2.2118
 2899TIP3   OH230111   1.417   3.709   5.898  0.0492 -0.1214  0.0074
 2899TIP3    H130112   1.429   3.711   5.993 -1.3491 -1.6584  0.2545
 2899TIP3    H230113   1.506   3.716   5.863  1.1481 -3.8044  1.5546
 2900TIP3   OH230114   3.626   5.009   1.898 -0.4361  0.0521  0.3790
 2900TIP3    H130115   3.547   5.063   1.893 -0.9115 -0.6810 -0.2316
 2900TIP3    H230116   3.675   5.045   1.972 -0.4069  1.7494 -0.4277
 2901TIP3   OH230117   2.370   0.394  11.731  0.7381  0.2797  0.4232
 2901TIP3    H130118   2.374   0.344  11.650 -0.8232  0.1438  0.4143
 2901TIP3    H230119   2.392   0.330  11.799  0.3031 -0.0360  0.2697
 2902TIP3   OH230120   0.005   3.319  17.204 -0.2320 -0.2834 -0.1144
 2902TIP3    H130121  -0.002   3.386  17.272 -1.6596  1.2505 -1.6581
 2902TIP3    H230122   0.095   3.288  17.210  0.7084  2.2299  0.3296
 2903TIP3   OH230123   5.245   3.014   5.105 -0.0251  0.7419 -0.2960
 2903TIP3    H130124   5.333   3.045   5.128  0.0747  1.5135 -1.6382
 2903TIP3    H230125   5.198   3.013   5.189  1.1721  0.5509  0.4115
 2904TIP3   OH230126   5.162   3.918   3.610  0.1620  0.2918  0.1088
 2904TIP3    H130127   5.079   3.903   3.654  1.5618 -0.1587  2.8361
 2904TIP3    H230128   5.146   3.895   3.519 -2.6987  0.3338  0.5205
 2905TIP3   OH230129   3.125   5.615  12.669 -0.2134 -0.3942  0.4523
 2905TIP3    H130130   3.197   5.676  12.682  0.0562 -0.8038  0.9455
 2905TIP3    H230131   3.098   5.591  12.758  1.4780 -3.0572  0.3629
 2906TIP3   OH230132   2.590   2.521   1.788  0.0588 -0.2716  0.3105
 2906TIP3    H130133   2.498   2.546   1.788  0.3708  0.9632  1.1514
 2906TIP3    H230134   2.594   2.444   1.845 -0.3925 -0.0867  0.5977
 2907TIP3   OH230135   3.187   4.855  16.033  0.4510  0.1448 -0.7233
 2907TIP3    H130136   3.210   4.861  15.940 -0.8649 -0.5472 -1.1233
 2907TIP3    H230137   3.176   4.761  16.049  0.7914  0.2498  0.1742
 2908TIP3   OH230138   3.329   1.060   6.942  0.2111  0.0305  0.1229
 2908TIP3    H130139   3.267   1.124   6.977  1.8514  1.1023  1.2584
 2908TIP3    H230140   3.364   1.102   6.863  1.0388  0.4416  0.6823
 2909TIP3   OH230141   3.887   5.594   1.047  0.1160  0.5767  0.1630
 2909TIP3    H130142   3.882   5.505   1.012 -0.7364  2.0324 -4.0049
 2909TIP3    H230143   3.797   5.627   1.043  0.2522  1.4526  2.4665
 2910TIP3   OH230144   5.550   5.589   5.518  0.1730 -0.4905  0.7477
 2910TIP3    H130145   5.567   5.577   5.611 -1.6335  0.5721  1.2713
 2910TIP3    H230146   5.606   5.525   5.475  2.1694  0.0059  2.4599
 2911TIP3   OH230147   2.958   5.098   3.130  0.1536  0.1600  0.9349
 2911TIP3    H130148   2.940   5.192   3.124 -2.1685 -0.3122 -2.5356
 2911TIP3    H230149   2.891   5.065   3.190 -0.4793  0.4577  0.4028
 2912TIP3   OH230150   5.231   3.346  11.187 -0.5852 -0.3177  0.0141
 2912TIP3    H130151   5.225   3.269  11.130 -1.9224  0.1084 -0.4422
 2912TIP3    H230152   5.323   3.373  11.182  0.1424 -2.3968  0.8912
 2913TIP3   OH230153   6.214   6.485  12.927 -0.0723 -0.4691  0.1074
 2913TIP3    H130154   6.210   6.398  12.887 -1.8223 -1.2765  1.8883
 2913TIP3    H230155   6.167   6.542  12.866  0.0585 -0.9863 -0.4921
 2914TIP3   OH230156   6.442   5.828   0.852  0.1197 -0.2481  0.2600
 2914TIP3    H130157   6.474   5.763   0.913  1.1101 -1.1281 -1.1498
 2914TIP3    H230158   6.473   5.912   0.888  1.5385 -0.8306  0.4415
 2915TIP3   OH230159   6.419   6.450   4.318 -0.8274  0.1138  0.1670
 2915TIP3    H130160   6.434   6.473   4.226 -3.2713  2.5840  0.2337
 2915TIP3    H230161   6.359   6.375   4.314 -1.6826  0.8026 -0.3168
 2916TIP3   OH230162   1.982   1.340   1.902 -0.0270 -0.0986  0.0549
 2916TIP3    H130163   1.981   1.304   1.991  0.1695  1.0128  0.5255
 2916TIP3    H230164   1.974   1.263   1.845  1.8010 -1.0468  0.9664
 2917TIP3   OH230165   5.118   0.862   6.439 -0.2393  0.2116  0.3286
 2917TIP3    H130166   5.100   0.915   6.517 -0.7833  0.3262  0.1271
 2917TIP3    H230167   5.210   0.838   6.448  0.5525  2.6208 -0.4337
 2918TIP3   OH230168   0.357   2.773  15.510  0.2889 -0.4113  0.6650
 2918TIP3    H130169   0.395   2.834  15.447 -1.1389 -0.2708 -0.0884
 2918TIP3    H230170   0.331   2.829  15.584  2.5371 -0.6519  1.7372
 2919TIP3   OH230171   5.061   2.157  15.827  0.3413 -0.0715 -0.4806
 2919TIP3    H130172   5.020   2.206  15.898 -0.3526 -0.0149 -0.9060
 2919TIP3    H230173   4.996   2.158  15.757  0.1843 -1.8370 -0.4129
 2920TIP3   OH230174   2.116   1.716  17.105  0.0359  0.1951  0.9310
 2920TIP3    H130175   2.048   1.783  17.100  0.6828  0.8404  0.7228
 2920TIP3    H230176   2.085   1.646  17.046  1.2926  2.0633 -2.1749
 2921TIP3   OH230177   4.303   6.659   5.492  0.3305  0.3736 -0.0091
 2921TIP3    H130178   4.301   6.564   5.505 -0.3440  0.4821  0.7675
 2921TIP3    H230179   4.384   6.687   5.534 -1.4732  0.6324  3.7447
 2922TIP3   OH230180   6.148   4.149   2.546 -0.3519  0.4484  0.2258
 2922TIP3    H130181   6.053   4.159   2.554 -0.4251  0.7272 -0.9348
 2922TIP3    H230182   6.160   4.082   2.479  0.2738  0.0502  0.7253
 2923TIP3   OH230183   5.377   2.104   5.522 -0.0744 -0.4477 -0.1279
 2923TIP3    H130184   5.352   2.168   5.455 -0.0066 -1.2760 -0.9742
 2923TIP3    H230185   5.360   2.019   5.481 -0.3142 -0.9790  1.0249
 2924TIP3   OH230186   2.314   4.273   1.551  0.0374  0.0412  0.2772
 2924TIP3    H130187   2.378   4.324   1.600  0.2677  0.4443 -0.4237
 2924TIP3    H230188   2.256   4.338   1.513  0.1817 -0.2226 -0.4178
 2925TIP3   OH230189   2.089   1.531  14.796  0.2228 -0.0579 -0.1495
 2925TIP3    H130190   2.112   1.552  14.887  0.5360 -0.1946 -0.1964
 2925TIP3    H230191   2.146   1.587  14.744  0.9122 -0.8676 -0.2750
 2926TIP3   OH230192   1.745   0.491  16.209 -0.2049 -0.1091 -0.0284
 2926TIP3    H130193   1.817   0.500  16.146 -0.6744  1.2031 -0.3960
 2926TIP3    H230194   1.719   0.399  16.201 -1.7808  0.4548 -3.4871
 2927TIP3   OH230195   3.401   2.029   0.987  0.3425 -0.2642 -0.5095
 2927TIP3    H130196   3.449   2.042   1.068 -2.5242 -0.8360  1.4473
 2927TIP3    H230197   3.460   1.978   0.932  2.5039  0.3897  1.0731
 2928TIP3   OH230198   5.031   6.570   6.478 -0.2455  0.2452  0.5290
 2928TIP3    H130199   5.067   6.489   6.442 -0.7163 -0.5979  1.8527
 2928TIP3    H230200   5.107   6.625   6.495  0.1275 -0.1395  0.1055
 2929TIP3   OH230201   6.723   0.870  11.145 -0.0230  0.1923  0.1587
 2929TIP3    H130202   6.699   0.784  11.111 -1.0791  0.1929  0.8640
 2929TIP3    H230203   6.668   0.932  11.098  0.2813  0.4332  0.1102
 2930TIP3   OH230204   3.471   1.538   5.045  0.0712 -0.3599 -0.7115
 2930TIP3    H130205   3.529   1.476   5.088 -0.1468 -1.0774 -1.4213
 2930TIP3    H230206   3.505   1.545   4.956 -0.3665 -0.0538 -0.8594
 2931TIP3   OH230207   0.494   5.803  13.390  0.4213  0.2837 -0.0413
 2931TIP3    H130208   0.502   5.864  13.316  0.5221  0.7249  0.3272
 2931TIP3    H230209   0.420   5.747  13.367 -0.3932  1.2668  0.1093
 2932TIP3   OH230210   6.638   3.796   4.942 -0.1307 -0.4836 -0.2331
 2932TIP3    H130211   6.632   3.870   4.881  0.0197  1.8572  2.4284
 2932TIP3    H230212   6.574   3.734   4.909 -0.4471  0.8834 -2.4546
 2933TIP3   OH230213   5.363   3.365  13.831  0.7812  0.2888  0.2493
 2933TIP3    H130214   5.369   3.287  13.886 -0.4091  0.3981  0.5558
 2933TIP3    H230215   5.293   3.345  13.769  0.2636  1.2283  0.5227
 2934TIP3   OH230216   4.165   3.144  16.057  0.1284 -0.1560  0.0783
 2934TIP3    H130217   4.113   3.109  15.985  0.3625  1.1100 -0.7400
 2934TIP3    H230218   4.185   3.234  16.031 -0.6912  0.7149  2.2106
 2935TIP3   OH230219   1.166   1.274  15.598  0.0875  0.5166  0.1849
 2935TIP3    H130220   1.200   1.234  15.678 -2.8799  2.0566  2.4257
 2935TIP3    H230221   1.128   1.201  15.549  0.6970 -0.2828  0.8793
 2936TIP3   OH230222   5.652   6.346  11.638  0.0873  0.0541 -0.1686
 2936TIP3    H130223   5.593   6.421  11.622  0.3449  0.0905 -0.9948
 2936TIP3    H230224   5.705   6.373  11.713  0.3048  0.7886 -0.5723
 2937TIP3   OH230225   0.074   5.302  11.683  0.1433 -0.0418 -0.4960
 2937TIP3    H130226   0.133   5.366  11.722 -1.4857  0.5268  1.1442
 2937TIP3    H230227   0.066   5.329  11.591 -0.6678  2.2818  0.1907
 2938TIP3   OH230228   6.288   6.368  14.125  0.0370  0.4156  0.1142
 2938TIP3    H130229   6.250   6.325  14.202 -1.2636 -0.0926 -0.7672
 2938TIP3    H230230   6.286   6.461  14.146  0.8154  0.2078  1.1651
 2939TIP3   OH230231   2.706   3.406   5.178  0.8976  0.9650  0.5958
 2939TIP3    H130232   2.723   3.339   5.244 -0.1739 -0.0894 -0.1731
 2939TIP3    H230233   2.635   3.459   5.215  0.1864  0.2758  0.2422
 2940TIP3   OH230234   5.903   2.288  15.371 -1.0187  0.4717 -0.2796
 2940TIP3    H130235   5.925   2.368  15.324 -0.1958  0.2036 -0.3695
 2940TIP3    H230236   5.987   2.254  15.402 -1.2821 -0.6955 -0.7789
 2941TIP3   OH230237   4.866   4.060   2.660 -0.6793 -0.2700 -0.0976
 2941TIP3    H130238   4.814   4.035   2.584 -1.7131 -2.3178  1.1932
 2941TIP3    H230239   4.900   4.147   2.639 -1.7377 -0.3718 -2.4563
 2942TIP3   OH230240   4.904   4.934   2.757  0.1762 -0.0855 -0.0658
 2942TIP3    H130241   4.891   4.897   2.669  0.5305 -2.4992  0.8370
 2942TIP3    H230242   4.999   4.934   2.769  0.1822  1.1796 -0.0410
 2943TIP3   OH230243   4.117   0.436  16.158  0.1748 -0.6492 -0.4602
 2943TIP3    H130244   4.146   0.518  16.199 -0.6210 -0.1079 -0.9553
 2943TIP3    H230245   4.163   0.432  16.075  0.0665 -0.6136 -0.5213
 2944TIP3   OH230246   1.877   4.323   1.869 -0.0435  0.5435 -0.4688
 2944TIP3    H130247   1.824   4.403   1.869 -1.2981 -0.2595 -0.1949
 2944TIP3    H230248   1.865   4.287   1.781 -0.2444  0.1777 -0.2941
 2945TIP3   OH230249   5.930   0.143   0.398  0.0939  0.1148 -0.0097
 2945TIP3    H130250   5.849   0.104   0.430  0.5752 -0.6867  0.2544
 2945TIP3    H230251   5.965   0.191   0.474 -0.9525  1.8636 -0.5826
 2946TIP3   OH230252   3.084   4.103  16.164  0.6540 -0.1880  0.0821
 2946TIP3    H130253   3.096   4.142  16.251  1.9301 -0.3677  0.0037
 2946TIP3    H230254   3.026   4.028  16.179  2.8530 -1.7668  1.2680
 2947TIP3   OH230255   5.827   6.567  12.072 -0.5245  0.5740  0.5897
 2947TIP3    H130256   5.843   6.608  12.156  0.6581  0.9597  0.2049
 2947TIP3    H230257   5.832   6.639  12.009 -1.9980  0.3925  0.2258
 2948TIP3   OH230258   4.809   1.072  16.536  0.9804  0.9568  0.4688
 2948TIP3    H130259   4.806   1.085  16.441  2.7375 -0.1760  0.2207
 2948TIP3    H230260   4.816   1.161  16.572  0.1441  1.4037 -0.4294
 2949TIP3   OH230261   0.921   3.854  13.645  0.1937 -0.8681 -0.4296
 2949TIP3    H130262   0.979   3.857  13.569 -0.2734 -0.9263 -0.7925
 2949TIP3    H230263   0.975   3.884  13.718  0.5645 -0.5342 -0.8365
 2950TIP3   OH230264   3.012   0.196   5.127  0.5882  0.9959  0.2001
 2950TIP3    H130265   2.938   0.241   5.167 -1.0563 -0.0848 -1.4973
 2950TIP3    H230266   3.060   0.157   5.200 -1.9128 -0.3548  1.2093
 2951TIP3   OH230267   2.732   1.574   3.595  0.0186  0.0112 -0.2241
 2951TIP3    H130268   2.741   1.497   3.539 -2.1623 -1.4385  1.2306
 2951TIP3    H230269   2.717   1.537   3.683 -1.1952  2.0596  0.4987
 2952TIP3   OH230270   4.475   2.028  14.476 -0.2873  0.1504  0.5206
 2952TIP3    H130271   4.490   1.951  14.531  2.7455 -0.3550 -0.8353
 2952TIP3    H230272   4.526   2.097  14.518 -0.0957  0.4584 -0.2110
 2953TIP3   OH230273   0.202   6.303   0.827  0.6457 -0.6217 -0.7600
 2953TIP3    H130274   0.187   6.377   0.768  1.2374 -0.3673 -0.5985
 2953TIP3    H230275   0.116   6.264   0.838  0.1371  0.6323 -0.0761
 2954TIP3   OH230276   5.596   4.063  12.896  0.0499  0.6378 -0.2813
 2954TIP3    H130277   5.598   4.124  12.970  0.9891  1.0501 -0.6266
 2954TIP3    H230278   5.567   4.117  12.822 -0.9455  0.2146 -0.2098
 2955TIP3   OH230279   0.753   0.430  17.103 -0.5028  0.6779  0.3326
 2955TIP3    H130280   0.773   0.362  17.167  0.7121  0.1391 -0.5921
 2955TIP3    H230281   0.809   0.504  17.128 -0.4298  0.6631  0.2109
 2956TIP3   OH230282   4.245   5.113   0.027  0.0482 -0.5471  0.7247
 2956TIP3    H130283   4.282   5.200   0.041  1.8538 -1.4932  2.3787
 2956TIP3    H230284   4.187   5.099   0.102 -2.2016  0.1113 -0.7955
 2957TIP3   OH230285   5.056   6.543   4.606 -0.0964  0.1501  0.0108
 2957TIP3    H130286   4.979   6.550   4.549  1.2249  1.5549 -1.7217
 2957TIP3    H230287   5.097   6.461   4.579 -0.3230  0.0179  0.0608
 2958TIP3   OH230288   0.750   1.282   0.806  0.0134 -0.3075 -0.2163
 2958TIP3    H130289   0.739   1.273   0.900  0.7354  0.1707 -0.0837
 2958TIP3    H230290   0.844   1.283   0.792 -0.0854 -0.6554 -0.9749
 2959TIP3   OH230291   6.249   6.209   4.409 -0.2359 -0.3342 -0.1537
 2959TIP3    H130292   6.316   6.172   4.467  0.3759  0.2399 -0.4816
 2959TIP3    H230293   6.230   6.138   4.347  0.2904 -0.4024 -0.2421
 2960TIP3   OH230294   5.765   3.659  12.637 -0.6580  0.2350  0.0768
 2960TIP3    H130295   5.702   3.700  12.579  1.2220  1.2883 -1.3374
 2960TIP3    H230296   5.835   3.724  12.647  0.4395 -1.0380  1.1927
 2961TIP3   OH230297   6.425   0.556   4.601  0.7849 -0.5579  0.6530
 2961TIP3    H130298   6.394   0.636   4.559  0.8132  0.1742  1.9779
 2961TIP3    H230299   6.495   0.524   4.544  0.7055  0.3040  0.0576
 2962TIP3   OH230300   6.194   4.375   3.623 -0.0171  0.3435 -0.1766
 2962TIP3    H130301   6.163   4.289   3.652 -0.7524  0.5080 -0.4395
 2962TIP3    H230302   6.214   4.363   3.530 -0.4042  0.5252 -0.2856
 2963TIP3   OH230303   0.464   2.268  14.420 -0.7632  0.0748 -0.1170
 2963TIP3    H130304   0.424   2.316  14.493 -1.8531 -0.5921 -0.2561
 2963TIP3    H230305   0.524   2.330  14.380 -0.3767  0.5555  1.1620
 2964TIP3   OH230306   0.942   3.546  14.793  0.1311  0.6447 -0.2049
 2964TIP3    H130307   0.955   3.500  14.710 -0.9950 -0.5787  0.2551
 2964TIP3    H230308   0.998   3.499  14.855 -0.3053  0.4684  0.0649
 2965TIP3   OH230309   6.718   2.116  12.583  0.8837  0.1651  0.0839
 2965TIP3    H130310   6.674   2.078  12.658 -1.2830  0.6597 -0.8471
 2965TIP3    H230311   6.789   2.055  12.563 -0.5889 -1.7705  0.4777
 2966TIP3   OH230312   4.431   0.391   0.013 -0.2420  0.1606  0.3423
 2966TIP3    H130313   4.363   0.327   0.032  0.7642 -1.1292 -0.3042
 2966TIP3    H230314   4.449   0.433   0.097 -0.8749 -0.4290  0.7772
 2967TIP3   OH230315   6.311   6.036  12.989  0.0689  0.2632 -0.4964
 2967TIP3    H130316   6.221   6.011  12.966  0.1334  0.1435 -0.6245
 2967TIP3    H230317   6.303   6.076  13.076  0.2506 -2.3254  0.8208
 2968TIP3   OH230318   1.132   4.483   1.404 -0.2503  0.1708 -0.0330
 2968TIP3    H130319   1.136   4.559   1.346 -0.5322  1.3300  1.4071
 2968TIP3    H230320   1.214   4.486   1.454 -1.3504  1.0950  1.8496
 2969TIP3   OH230321   5.509   5.993  15.761 -0.7640 -0.7748 -0.6002
 2969TIP3    H130322   5.527   5.910  15.718  0.3875 -1.1096  0.4638
 2969TIP3    H230323   5.536   6.060  15.699 -0.7889 -1.2130 -1.0844
 2970TIP3   OH230324   6.536   1.059   0.115 -0.2353 -0.4560 -0.2727
 2970TIP3    H130325   6.631   1.058   0.119 -0.2254 -1.8195  4.4263
 2970TIP3    H230326   6.511   1.142   0.156 -1.1496 -0.1851 -1.3115
 2971TIP3   OH230327   2.153   0.852  12.055 -0.3426 -0.1261  0.0858
 2971TIP3    H130328   2.180   0.787  12.120  0.0624 -0.2650 -0.2159
 2971TIP3    H230329   2.133   0.930  12.107 -1.0326 -0.5482  0.4662
 2972TIP3   OH230330   1.322   4.554   5.223  0.3735 -0.0801  0.4016
 2972TIP3    H130331   1.286   4.505   5.149  0.7322  1.5405 -0.9093
 2972TIP3    H230332   1.251   4.556   5.288  0.2610 -2.0482  0.4197
 2973TIP3   OH230333   4.133   3.952   0.484  0.4922 -0.3521 -0.8274
 2973TIP3    H130334   4.124   3.883   0.419 -1.1687 -1.4277  0.4932
 2973TIP3    H230335   4.060   3.940   0.544  1.6142  0.9793  0.9183
 2974TIP3   OH230336   1.912   4.851   3.117 -1.1210 -0.0821  0.1606
 2974TIP3    H130337   1.973   4.914   3.078  0.0717  0.5093  2.7339
 2974TIP3    H230338   1.827   4.896   3.115 -1.1894 -0.2314 -1.9613
 2975TIP3   OH230339   6.539   2.269  15.598  0.0328  0.9626  0.2698
 2975TIP3    H130340   6.602   2.342  15.599 -0.1398  1.1299 -0.3274
 2975TIP3    H230341   6.556   2.225  15.515  0.3465  0.1232  0.7726
 2976TIP3   OH230342   0.354   6.119   5.267  0.1169  0.1942 -0.1310
 2976TIP3    H130343   0.295   6.103   5.341 -0.8649  0.5393 -0.8206
 2976TIP3    H230344   0.431   6.065   5.286 -0.3880 -0.2203  0.8210
 2977TIP3   OH230345   4.424   1.567   1.133 -0.3210 -0.8124  0.1836
 2977TIP3    H130346   4.492   1.630   1.110 -1.6707  0.3801 -0.7916
 2977TIP3    H230347   4.458   1.521   1.209  2.4408 -1.7421 -1.4892
 2978TIP3   OH230348   6.573   3.288  16.663  0.4855  0.7031 -0.4971
 2978TIP3    H130349   6.547   3.247  16.580  0.9401 -0.3460 -0.1402
 2978TIP3    H230350   6.669   3.283  16.663  0.5655  2.0052 -0.5465
 2979TIP3   OH230351   1.321   4.422   1.859  0.2740  0.1789  0.7715
 2979TIP3    H130352   1.302   4.332   1.886 -1.6403  0.1355 -0.5670
 2979TIP3    H230353   1.287   4.476   1.930  0.5806 -0.1144  1.1464
 2980TIP3   OH230354   3.844   1.088   5.254 -0.0008  0.3605  0.2187
 2980TIP3    H130355   3.791   1.128   5.323 -0.8530 -0.5631  0.1126
 2980TIP3    H230356   3.792   1.015   5.222  1.1928 -0.3705 -0.1264
 2981TIP3   OH230357   0.705   6.667  15.678 -0.0972  0.3798  0.1726
 2981TIP3    H130358   0.758   6.747  15.669  0.8274  0.0751  2.3231
 2981TIP3    H230359   0.676   6.647  15.588  0.4488  2.5662 -0.5536
 2982TIP3   OH230360   1.195   6.362   5.170 -0.6953  0.0849  0.0340
 2982TIP3    H130361   1.262   6.390   5.108 -0.4500 -0.3168  0.1120
 2982TIP3    H230362   1.142   6.440   5.185  1.8802  1.4892  2.8219
 2983TIP3   OH230363   4.629   5.230   1.331  0.0488  0.5126 -0.0312
 2983TIP3    H130364   4.704   5.287   1.348  0.3876  1.1639 -3.2097
 2983TIP3    H230365   4.654   5.146   1.372  1.8357  1.1397  0.2789
 2984TIP3   OH230366   2.882   2.925  15.459  0.1073 -0.0001 -0.4135
 2984TIP3    H130367   2.843   3.012  15.449  0.4906  0.0347 -1.6922
 2984TIP3    H230368   2.969   2.933  15.421  1.2908 -0.1879  2.0555
 2985TIP3   OH230369   2.975   0.748  16.053  0.5493 -0.1896 -0.0368
 2985TIP3    H130370   3.027   0.667  16.048 -0.6235 -0.8853 -2.1927
 2985TIP3    H230371   2.900   0.725  16.108  0.8757 -0.1365  0.4445
 2986TIP3   OH230372   1.658   4.765   2.853 -0.3035 -0.3106  0.3385
 2986TIP3    H130373   1.621   4.807   2.775  1.3293 -1.0900 -0.9508
 2986TIP3    H230374   1.677   4.837   2.913  0.5174  0.6168 -0.9604
 2987TIP3   OH230375   2.407   3.457   5.895 -0.1880 -0.0172  0.0178
 2987TIP3    H130376   2.446   3.541   5.921 -1.4749  0.5063  0.3233
 2987TIP3    H230377   2.376   3.419   5.978  0.3035 -0.7685 -0.1311
 2988TIP3   OH230378   1.874   0.224   2.580  0.3899 -0.2324  0.1392
 2988TIP3    H130379   1.926   0.286   2.631  0.3417 -0.0471 -0.0400
 2988TIP3    H230380   1.784   0.253   2.592  0.4345  0.2659 -0.6692
 2989TIP3   OH230381   1.528   1.055   4.641 -0.3686 -0.4797 -0.1636
 2989TIP3    H130382   1.458   1.121   4.636 -0.1083 -0.2166 -0.3765
 2989TIP3    H230383   1.543   1.030   4.550  0.7553  0.4681 -0.2655
 2990TIP3   OH230384   6.452   6.302  11.903 -0.4245  0.7413  0.1600
 2990TIP3    H130385   6.429   6.392  11.882 -0.6472  0.4563 -0.8437
 2990TIP3    H230386   6.439   6.253  11.822 -1.6359 -0.4664  1.0383
 2991TIP3   OH230387   2.176   5.967  11.173 -0.7543 -0.5130 -0.2481
 2991TIP3    H130388   2.140   5.878  11.166 -1.1978 -0.2313 -2.0506
 2991TIP3    H230389   2.263   5.954  11.211  0.3954 -2.1028 -3.0598
 2992TIP3   OH230390   0.261   2.158  14.297 -0.1265 -0.3134  0.2236
 2992TIP3    H130391   0.341   2.207  14.315  0.6605 -0.7472 -1.8732
 2992TIP3    H230392   0.193   2.225  14.289  0.9833  0.6062 -2.9202
 2993TIP3   OH230393   4.845   5.280  11.855  0.2173 -0.2465 -0.1479
 2993TIP3    H130394   4.815   5.331  11.779 -1.9301 -1.3787 -0.1308
 2993TIP3    H230395   4.919   5.331  11.890 -0.6995  1.9095 -1.1601
 2994TIP3   OH230396   3.649   0.121   5.389  0.7726  0.6413  0.0490
 2994TIP3    H130397   3.618   0.051   5.331  2.2296  0.0669 -0.0826
 2994TIP3    H230398   3.652   0.081   5.476 -0.4467  1.2042  0.3695
 2995TIP3   OH230399   0.575   5.641  12.128 -0.3284 -0.5623 -0.5124
 2995TIP3    H130400   0.571   5.729  12.090  0.7750  0.2091  1.0488
 2995TIP3    H230401   0.531   5.649  12.213 -1.0300 -1.7624 -0.7336
 2996TIP3   OH230402   5.385   3.553  14.145 -0.4566 -0.2861  0.0018
 2996TIP3    H130403   5.297   3.589  14.150 -0.5799 -0.3263 -1.3592
 2996TIP3    H230404   5.390   3.490  14.217 -1.7322 -0.6715 -0.2222
 2997TIP3   OH230405   1.662   4.043   2.985  0.3446 -0.6097  0.8640
 2997TIP3    H130406   1.617   4.001   3.059  0.2435 -1.2658  0.4403
 2997TIP3    H230407   1.723   4.105   3.026 -0.6550 -0.0004  1.4493
 2998TIP3   OH230408   1.263   2.017  12.258 -0.0347  0.3925  0.8866
 2998TIP3    H130409   1.270   1.959  12.182  0.3597 -0.7085  1.7212
 2998TIP3    H230410   1.175   2.053  12.253  0.2228  0.8919 -0.4604
 2999TIP3   OH230411   1.404   1.409  12.087  0.6153  0.1315 -0.1500
 2999TIP3    H130412   1.478   1.350  12.075  2.2294  2.0625 -0.1786
 2999TIP3    H230413   1.401   1.425  12.181 -0.1171 -0.3203 -0.0852
 3000TIP3   OH230414   3.349   2.528  12.476  1.2021  0.1780 -0.1634
 3000TIP3    H130415   3.304   2.444  12.488  1.2431  0.2163  0.2728
 3000TIP3    H230416   3.322   2.558  12.389  0.5539  0.0966  0.0065
 3001TIP3   OH230417   5.490   3.912   1.621  0.4959  0.2604 -0.2404
 3001TIP3    H130418   5.464   3.937   1.532 -0.7587 -1.0779 -0.2911
 3001TIP3    H230419   5.436   3.967   1.678  1.1761  0.9959 -0.2850
 3002TIP3   OH230420   2.256   5.662   3.498  0.8478  0.4526 -0.0552
 3002TIP3    H130421   2.293   5.597   3.557 -0.3167  0.9570  1.3000
 3002TIP3    H230422   2.269   5.746   3.543 -2.4920  0.6016  0.9061
 3003TIP3   OH230423   2.354   5.989   0.079  0.0585 -1.1061  0.6264
 3003TIP3    H130424   2.422   6.042   0.121  1.7352 -2.2971 -0.4440
 3003TIP3    H230425   2.360   6.011  -0.014 -3.3179  1.1875  0.7623
 3004TIP3   OH230426   0.019   6.132   1.582 -0.0329  0.0356  0.4079
 3004TIP3    H130427  -0.000   6.157   1.673 -2.9951  0.0109 -0.0994
 3004TIP3    H230428   0.048   6.213   1.541 -1.2907  0.7093  0.7807
 3005TIP3   OH230429   4.153   5.468   4.703 -0.3193  0.2609 -0.4030
 3005TIP3    H130430   4.154   5.515   4.619 -1.2494  1.8214  0.4119
 3005TIP3    H230431   4.241   5.482   4.739  0.0379 -0.2984 -1.0326
 3006TIP3   OH230432   5.789   5.173   6.307  0.0124 -0.2239  0.2928
 3006TIP3    H130433   5.796   5.118   6.229  0.2854  0.5441 -0.2393
 3006TIP3    H230434   5.855   5.139   6.367  0.3518 -0.3097 -0.1312
 3007TIP3   OH230435   0.525   5.529   3.080  0.3703  0.0240 -0.4402
 3007TIP3    H130436   0.505   5.557   3.169  2.1590  1.6597 -0.4996
 3007TIP3    H230437   0.473   5.587   3.024  1.0683  0.6162 -0.4873
 3008TIP3   OH230438   0.286   2.606  14.936  0.5846  0.3979  0.5852
 3008TIP3    H130439   0.378   2.616  14.958  0.5212  1.8976  0.3022
 3008TIP3    H230440   0.262   2.689  14.894 -1.2841  0.6821  2.0601
 3009TIP3   OH230441   0.421   2.447   4.754  0.1695 -0.4007  0.1209
 3009TIP3    H130442   0.404   2.515   4.689  2.0212 -0.7879 -0.8295
 3009TIP3    H230443   0.496   2.480   4.804  1.1684 -1.7571 -0.4280
 3010TIP3   OH230444   2.893   3.917  11.763 -0.2049  0.4288  0.2421
 3010TIP3    H130445   2.955   3.964  11.819 -0.7890  0.9461  0.4717
 3010TIP3    H230446   2.810   3.923  11.810 -0.6907  0.8350 -0.6568
 3011TIP3   OH230447   2.524   5.085  14.921  0.6763 -0.1780  0.1086
 3011TIP3    H130448   2.554   5.157  14.866 -0.6970 -0.4442 -1.0506
 3011TIP3    H230449   2.601   5.030  14.932  1.4940  0.9417  0.1897
 3012TIP3   OH230450   5.577   1.341  14.233 -0.9458  0.1399 -0.1880
 3012TIP3    H130451   5.566   1.344  14.328 -1.1022  0.0305 -0.2025
 3012TIP3    H230452   5.491   1.366  14.198 -1.3247 -1.2565 -0.3104
 3013TIP3   OH230453   0.136   5.096   4.030 -0.2453 -0.6607 -0.1449
 3013TIP3    H130454   0.165   5.006   4.019 -0.3190 -0.6633 -0.3175
 3013TIP3    H230455   0.166   5.142   3.952 -0.4606 -0.6000 -0.1924
 3014TIP3   OH230456   0.328   2.071   3.662  0.0639 -0.0822  0.4851
 3014TIP3    H130457   0.267   2.139   3.632  0.1209  0.1276  0.8429
 3014TIP3    H230458   0.273   1.996   3.684 -0.0795  0.1546  0.9392
 3015TIP3   OH230459   2.980   3.794   3.928 -0.4912  0.4048 -0.1135
 3015TIP3    H130460   2.885   3.807   3.936 -0.3815  0.4691  1.3228
 3015TIP3    H230461   3.019   3.869   3.973  0.1739 -1.2913  2.3691
 3016TIP3   OH230462   5.048   0.754   4.515 -0.4167  0.5455 -0.2892
 3016TIP3    H130463   5.094   0.688   4.567  0.7683  2.1548  0.7889
 3016TIP3    H230464   4.975   0.782   4.570 -2.1449 -1.2292 -1.5609
 3017TIP3   OH230465   4.473   4.899  13.575  0.2186  0.5088 -0.5045
 3017TIP3    H130466   4.548   4.856  13.533  0.8580  1.2074 -0.0926
 3017TIP3    H230467   4.413   4.918  13.502  0.0821 -0.7368 -0.7396
 3018TIP3   OH230468   3.509   5.573  12.370  0.0516  0.1812 -0.4659
 3018TIP3    H130469   3.493   5.662  12.338  0.9785  0.1809 -0.9521
 3018TIP3    H230470   3.421   5.536  12.382 -0.4088  1.7317  1.4442
 3019TIP3   OH230471   4.891   4.452  13.276 -0.0689 -0.3690 -0.6724
 3019TIP3    H130472   4.866   4.384  13.214 -1.6700  0.4350 -0.9806
 3019TIP3    H230473   4.830   4.442  13.349  1.4022 -0.9219  0.5419
 3020TIP3   OH230474   4.318   0.294  15.555 -0.2361  0.3220  0.5965
 3020TIP3    H130475   4.240   0.349  15.544  0.2338  0.5731 -2.3162
 3020TIP3    H230476   4.304   0.220  15.496  1.9529  0.7077 -0.5342
 3021TIP3   OH230477   2.770   1.845  12.673 -0.0975 -0.1407 -0.0297
 3021TIP3    H130478   2.804   1.815  12.758  0.3107  1.4381  0.4073
 3021TIP3    H230479   2.728   1.929  12.693  1.8206  1.3102 -1.6930
 3022TIP3   OH230480   5.478   3.034   3.058  0.3273  0.2806  0.2760
 3022TIP3    H130481   5.467   2.962   3.120  0.9064 -0.2342 -0.2068
 3022TIP3    H230482   5.413   3.016   2.989 -1.5470  1.7931  1.5536
 3023TIP3   OH230483   3.563   0.653  15.676  0.3199 -0.1961  0.5204
 3023TIP3    H130484   3.507   0.730  15.683 -0.6924 -0.8600  0.0239
 3023TIP3    H230485   3.642   0.675  15.726 -1.2589 -0.0253  3.1059
 3024TIP3   OH230486   5.849   5.458   6.224 -0.4454 -0.7361 -0.1264
 3024TIP3    H130487   5.931   5.486   6.265  1.6487 -0.4686 -4.0934
 3024TIP3    H230488   5.832   5.372   6.262  0.9866 -0.2985  1.6718
 3025TIP3   OH230489   6.243   2.388  14.241 -0.1554  0.3811 -0.5252
 3025TIP3    H130490   6.331   2.353  14.226 -0.5188 -0.0422 -1.8014
 3025TIP3    H230491   6.251   2.482  14.224 -0.1132  0.2174 -1.4481
 3026TIP3   OH230492   3.179   2.219   3.381  0.3047  0.4373  0.3709
 3026TIP3    H130493   3.185   2.156   3.309  0.9718 -0.6519  1.3519
 3026TIP3    H230494   3.130   2.174   3.449  1.4298  0.6743  1.3673
 3027TIP3   OH230495   3.719   3.542  13.821 -0.3421 -0.3682 -0.7380
 3027TIP3    H130496   3.649   3.590  13.776 -0.5304 -0.2375 -0.3190
 3027TIP3    H230497   3.688   3.535  13.912  0.7710  0.8343 -0.2401
 3028TIP3   OH230498   2.836   4.442   2.558  0.1764 -0.1787  0.5372
 3028TIP3    H130499   2.880   4.453   2.473 -2.5824 -0.1806 -1.0105
 3028TIP3    H230500   2.800   4.529   2.577 -0.8239 -0.6232  0.7245
 3029TIP3   OH230501   4.764   6.430  11.945  0.2889 -0.1514  0.3386
 3029TIP3    H130502   4.787   6.378  12.023  0.5287  0.8093  0.9315
 3029TIP3    H230503   4.760   6.366  11.874  0.3489 -1.0115  1.0881
 3030TIP3   OH230504   2.290   1.810  16.869 -0.1174  0.1027  0.4187
 3030TIP3    H130505   2.350   1.876  16.903 -0.1260  0.2987  0.0481
 3030TIP3    H230506   2.261   1.844  16.785 -1.3549  0.3687  0.9429
 3031TIP3   OH230507   2.767   4.453   1.486  0.0492 -0.2002  0.3409
 3031TIP3    H130508   2.776   4.387   1.555 -0.3924 -0.2576  0.3476
 3031TIP3    H230509   2.769   4.403   1.405  0.1966 -0.1705  0.3252
 3032TIP3   OH230510   3.654   2.741   3.977 -0.6756 -0.7794  0.2551
 3032TIP3    H130511   3.561   2.724   3.963 -1.1720  1.1385  0.9153
 3032TIP3    H230512   3.696   2.655   3.967 -2.5136 -1.7121  0.0963
 3033TIP3   OH230513   5.029   4.662  15.209  0.4806 -0.2870  0.3397
 3033TIP3    H130514   5.021   4.729  15.141 -2.0628 -1.5863 -0.7948
 3033TIP3    H230515   5.093   4.601  15.174  0.3784 -0.1199 -0.1580
 3034TIP3   OH230516   3.762   4.759  16.341  0.0564 -0.0502 -0.0135
 3034TIP3    H130517   3.714   4.771  16.259  0.7755 -0.1083 -0.4525
 3034TIP3    H230518   3.785   4.847  16.369  2.1344 -0.1291 -1.2988
 3035TIP3   OH230519   3.961   6.673  13.899 -0.3072  0.0687  0.2239
 3035TIP3    H130520   4.000   6.589  13.923 -0.0070  0.5614  1.5705
 3035TIP3    H230521   4.022   6.710  13.835  1.4710  0.7705  2.1982
 3036TIP3   OH230522   6.167   3.503  16.073  0.3706  0.4570  0.0111
 3036TIP3    H130523   6.084   3.523  16.029 -0.3481  0.6218  1.4040
 3036TIP3    H230524   6.225   3.477  16.002 -0.6835  0.9401 -1.0710
 3037TIP3   OH230525   1.084   4.621  12.429  0.6390  0.3506 -0.5051
 3037TIP3    H130526   1.006   4.677  12.423  0.4618  0.0116 -1.6565
 3037TIP3    H230527   1.050   4.536  12.459  0.7217  0.4890 -0.0104
 3038TIP3   OH230528   0.679   4.431  16.600 -0.3120  0.0771  0.4773
 3038TIP3    H130529   0.723   4.347  16.587 -1.9290 -1.4226  3.5851
 3038TIP3    H230530   0.671   4.440  16.695 -2.2883  2.6225  0.1939
 3039TIP3   OH230531   1.592   6.582   0.634  0.0637 -0.0059  0.3736
 3039TIP3    H130532   1.638   6.660   0.664  1.5358 -0.9501  0.6849
 3039TIP3    H230533   1.661   6.517   0.622 -1.1485 -1.3409  0.3796
 3040TIP3   OH230534   1.928   0.186   4.574  0.0307  0.1902 -0.3782
 3040TIP3    H130535   1.944   0.144   4.659 -0.9225  0.6035  0.0213
 3040TIP3    H230536   1.836   0.167   4.554 -0.4309  2.0218 -0.1985
 3041TIP3   OH230537   5.100   3.934   5.247 -0.4728 -0.3545  0.1500
 3041TIP3    H130538   5.068   3.856   5.203 -0.0341 -0.4562  0.0005
 3041TIP3    H230539   5.119   3.996   5.176 -1.8134  0.2804  0.3263
 3042TIP3   OH230540   5.114   4.831  11.371  0.1163 -0.9335  0.1922
 3042TIP3    H130541   5.049   4.762  11.367  1.2658 -2.0646  0.2699
 3042TIP3    H230542   5.130   4.856  11.280 -0.0378 -1.0357  0.1384
 3043TIP3   OH230543   1.502   0.779   4.843 -0.4128  0.4720  1.0569
 3043TIP3    H130544   1.545   0.823   4.770  0.6496  0.3208  1.5683
 3043TIP3    H230545   1.487   0.690   4.813 -0.6860  0.6191  0.7538
 3044TIP3   OH230546   5.212   5.493   5.704 -0.4538  0.2836  0.1171
 3044TIP3    H130547   5.173   5.577   5.729  0.8404  1.3288 -1.2011
 3044TIP3    H230548   5.237   5.453   5.788 -0.2648  1.6310  0.7338
 3045TIP3   OH230549   2.850   1.346   5.764  0.1427 -0.0765  0.0840
 3045TIP3    H130550   2.833   1.317   5.674  1.7291 -0.3104 -0.1685
 3045TIP3    H230551   2.790   1.419   5.777  1.0912  1.1235 -1.8077
 3046TIP3   OH230552   4.044   2.946   4.873  0.4741  0.4905 -0.0936
 3046TIP3    H130553   4.001   2.941   4.958  1.8566  0.4640  0.6401
 3046TIP3    H230554   4.076   3.036   4.868  2.0593 -0.0260  0.2854
 3047TIP3   OH230555   6.350   3.550  12.928  0.3407 -0.0404  0.5172
 3047TIP3    H130556   6.312   3.564  13.015  1.0144  0.7846  0.6898
 3047TIP3    H230557   6.429   3.499  12.944  0.3320 -0.1040  0.3619
 3048TIP3   OH230558   1.882   2.562   1.346 -0.2154  0.5844 -0.3132
 3048TIP3    H130559   1.798   2.587   1.307 -0.5292  1.7010  1.0141
 3048TIP3    H230560   1.902   2.631   1.409  1.0872 -0.3023  0.3116
 3049TIP3   OH230561   3.948   2.288  12.949 -0.0299 -0.0658  0.1774
 3049TIP3    H130562   4.001   2.209  12.943  0.1009  0.1063 -1.2362
 3049TIP3    H230563   3.990   2.340  13.018  1.2818 -0.1859 -0.5067
 3050TIP3   OH230564   4.803   1.026   2.186  0.1548  0.1465 -0.3512
 3050TIP3    H130565   4.791   0.943   2.232  2.5041 -0.9833 -1.5702
 3050TIP3    H230566   4.898   1.036   2.180 -0.0716  2.7260 -0.6572
 3051TIP3   OH230567   4.155   2.549  10.823 -0.3910  0.2643  0.0461
 3051TIP3    H130568   4.150   2.614  10.892  2.1593  0.7942 -0.1450
 3051TIP3    H230569   4.210   2.589  10.756  1.7988 -2.1941  0.1674
 3052TIP3   OH230570   3.591   3.643   3.667  0.7264 -0.0969 -0.1686
 3052TIP3    H130571   3.543   3.657   3.749  1.4971 -0.8424  0.4341
 3052TIP3    H230572   3.538   3.686   3.600 -0.1733  0.1013  0.6497
 3053TIP3   OH230573   6.761   2.039  11.715  0.1982  0.3490 -0.2596
 3053TIP3    H130574   6.666   2.049  11.716  0.1917  1.0214 -2.4639
 3053TIP3    H230575   6.782   2.006  11.802 -1.8741  1.7958  0.8961
 3054TIP3   OH230576   4.932   0.640  11.703 -0.4713  0.3772  0.1703
 3054TIP3    H130577   5.014   0.596  11.722  0.0975  1.0827 -0.5984
 3054TIP3    H230578   4.957   0.724  11.666 -1.5412  0.8395  0.4428
 3055TIP3   OH230579   0.641   2.481  13.528  0.3529 -0.2747  0.5046
 3055TIP3    H130580   0.586   2.433  13.589  1.1730 -1.9802 -0.0516
 3055TIP3    H230581   0.707   2.523  13.584  2.5829 -3.7615  0.7770
 3056TIP3   OH230582   6.158   5.557  13.893  0.7062  0.5050 -1.0249
 3056TIP3    H130583   6.142   5.477  13.841  1.9215 -0.2098 -0.3442
 3056TIP3    H230584   6.241   5.540  13.937  0.8093  2.0322 -0.6011
 3057TIP3   OH230585   4.707   3.156   4.682 -0.0392  0.3511  0.6694
 3057TIP3    H130586   4.660   3.178   4.601 -0.0920 -1.0250  0.3013
 3057TIP3    H230587   4.639   3.122   4.740  0.3415 -0.8068  0.4591
 3058TIP3   OH230588   6.542   5.049  13.320 -0.2700 -0.2078 -0.2688
 3058TIP3    H130589   6.519   5.085  13.234  0.1919 -1.2771 -0.8513
 3058TIP3    H230590   6.457   5.023  13.358 -0.3272 -1.5731 -1.2552
 3059TIP3   OH230591   1.086   1.523  16.467 -0.1020  0.4207 -0.2205
 3059TIP3    H130592   1.171   1.566  16.479  1.0393 -1.5179 -0.9490
 3059TIP3    H230593   1.079   1.463  16.541 -1.5838  1.6469  0.6825
 3060TIP3   OH230594   3.912   1.869  15.836 -0.0184  0.0968 -0.2732
 3060TIP3    H130595   3.842   1.821  15.792  0.4714  0.4982 -1.5470
 3060TIP3    H230596   3.890   1.961  15.824 -0.6346  0.2335  1.6278
 3061TIP3   OH230597   4.677   1.469   0.202 -0.5674  0.1131  0.0675
 3061TIP3    H130598   4.625   1.510   0.133 -2.6704 -0.1980  1.3703
 3061TIP3    H230599   4.634   1.384   0.217  1.1842 -0.7690  0.2594
 3062TIP3   OH230600   5.541   3.490   0.559 -0.9107 -0.0818  0.1489
 3062TIP3    H130601   5.624   3.521   0.596 -0.3192 -0.5120 -0.7729
 3062TIP3    H230602   5.555   3.396   0.545 -1.9959 -0.4031  1.1198
 3063TIP3   OH230603   3.608   4.154   1.144  0.1400  0.0981 -0.3838
 3063TIP3    H130604   3.678   4.182   1.203 -1.0967  1.1786  0.6176
 3063TIP3    H230605   3.617   4.211   1.067 -0.5229  1.2988  0.3862
 3064TIP3   OH230606   1.332   3.317   2.196  0.2627  0.3536  0.6234
 3064TIP3    H130607   1.390   3.387   2.167 -0.9695  1.0696 -0.2171
 3064TIP3    H230608   1.356   3.242   2.141 -1.3834  1.4115 -1.7234
 3065TIP3   OH230609   5.329   5.652  13.970  0.4575  0.0818  0.5826
 3065TIP3    H130610   5.317   5.742  13.999  0.1157  0.9077 -1.9047
 3065TIP3    H230611   5.252   5.634  13.916  0.6281 -1.6518  0.8604
 3066TIP3   OH230612   6.636   0.713  14.185 -0.2304  0.2135  0.3035
 3066TIP3    H130613   6.577   0.639  14.198  0.7551 -0.5054  0.8804
 3066TIP3    H230614   6.717   0.674  14.151  0.4597  0.9520  1.0241
 3067TIP3   OH230615   5.948   1.636   2.612 -0.4813 -0.8933 -0.6207
 3067TIP3    H130616   5.971   1.594   2.696 -1.2739 -0.5663 -0.2301
 3067TIP3    H230617   5.889   1.574   2.570  0.9637 -1.6873 -1.5796
 3068TIP3   OH230618   1.760   3.182  15.244 -0.2983  0.0847 -0.4056
 3068TIP3    H130619   1.786   3.127  15.169  1.5914  0.4857 -0.1038
 3068TIP3    H230620   1.734   3.120  15.311  0.6238 -0.4210 -0.4924
 3069TIP3   OH230621   0.326   0.416   5.416  0.1926  0.2262  0.1313
 3069TIP3    H130622   0.348   0.380   5.502  0.7134  2.2871  0.9282
 3069TIP3    H230623   0.403   0.398   5.362 -0.2458 -1.3191 -0.0125
 3070TIP3   OH230624   3.617   1.964   3.906  0.1692  0.0925  0.2406
 3070TIP3    H130625   3.581   1.898   3.965 -1.6377 -0.0266 -0.9392
 3070TIP3    H230626   3.660   1.913   3.837  1.4010  0.2221  0.8833
 3071TIP3   OH230627   5.155   0.968   5.496 -0.0788  0.1815 -0.3755
 3071TIP3    H130628   5.135   0.880   5.528 -1.1105  0.0680 -1.2670
 3071TIP3    H230629   5.200   1.011   5.569 -0.2839 -0.8210  0.3595
 3072TIP3   OH230630   1.444   1.222   0.313  0.1877  0.0566  0.0305
 3072TIP3    H130631   1.425   1.316   0.308  0.8062  0.5350  3.8303
 3072TIP3    H230632   1.521   1.216   0.369 -2.0462 -2.7710  3.1694
 3073TIP3   OH230633   5.229   5.875  13.560 -0.2972  0.1045 -0.0595
 3073TIP3    H130634   5.284   5.930  13.616 -1.8288 -0.1638  1.8328
 3073TIP3    H230635   5.287   5.805  13.529  0.7688  0.6822  0.5738
 3074TIP3   OH230636   4.999   3.348  12.544 -0.2106  1.1516 -0.0908
 3074TIP3    H130637   5.072   3.287  12.547 -0.5835  0.7119  1.9994
 3074TIP3    H230638   5.030   3.421  12.492  1.1245  0.2661 -0.5844
 3075TIP3   OH230639   3.500   4.994  14.309  0.6528  0.7459  0.4331
 3075TIP3    H130640   3.466   5.082  14.320 -1.6968  0.1488 -1.2718
 3075TIP3    H230641   3.461   4.944  14.380 -2.2732  0.0669 -1.5097
 3076TIP3   OH230642   2.726   4.527  14.353 -0.1563  0.1275  0.4644
 3076TIP3    H130643   2.706   4.617  14.381 -0.2468  0.0179  0.7564
 3076TIP3    H230644   2.641   4.484  14.350 -0.1122  0.0499  0.3260
 3077TIP3   OH230645   4.466   2.764   5.941  0.9456 -0.0744 -0.5855
 3077TIP3    H130646   4.376   2.737   5.960  1.2418 -1.8767 -1.5274
 3077TIP3    H230647   4.496   2.807   6.021  0.8138 -3.7301  1.6501
 3078TIP3   OH230648   5.217   5.646  10.880  0.0233 -0.3895 -0.6796
 3078TIP3    H130649   5.241   5.731  10.843 -1.4557 -0.3118 -1.5509
 3078TIP3    H230650   5.123   5.653  10.898  0.1722 -1.3345  0.6922
 3079TIP3   OH230651   5.827   6.610   5.656 -0.2505  0.1479 -0.1344
 3079TIP3    H130652   5.837   6.693   5.609  1.3364 -0.3475 -0.7564
 3079TIP3    H230653   5.880   6.620   5.735  1.1100 -0.7303 -0.8997
 3080TIP3   OH230654   0.569   0.034   1.095 -0.2052 -0.5561  0.2852
 3080TIP3    H130655   0.582  -0.033   1.028 -0.0114 -1.6693  1.3854
 3080TIP3    H230656   0.654   0.077   1.103  0.1922 -1.4023  0.8074
 3081TIP3   OH230657   4.732   4.638   3.808 -0.0960 -0.0830 -0.3053
 3081TIP3    H130658   4.773   4.676   3.730 -0.2255  0.4331 -0.1220
 3081TIP3    H230659   4.804   4.624   3.869 -0.2034  1.0225  0.0996
 3082TIP3   OH230660   0.633   0.491  13.440  0.1649 -0.4121 -0.3138
 3082TIP3    H130661   0.625   0.581  13.471 -0.5334 -0.7637  0.5679
 3082TIP3    H230662   0.547   0.452  13.457  0.7551 -1.5189  0.2611
 3083TIP3   OH230663   5.776   6.407   0.248  0.1881 -0.2497  0.1780
 3083TIP3    H130664   5.749   6.480   0.193 -1.2074  0.1279  1.2881
 3083TIP3    H230665   5.794   6.336   0.186  1.0366  0.8381 -0.8844
 3084TIP3   OH230666   0.165   0.855   4.139  0.0967 -0.1715  0.7411
 3084TIP3    H130667   0.126   0.813   4.215  1.5455 -1.2784  0.9221
 3084TIP3    H230668   0.242   0.901   4.173  1.5820 -1.8451 -0.1906
 3085TIP3   OH230669   1.500   2.421   4.943  0.3179 -0.1751 -0.2207
 3085TIP3    H130670   1.455   2.409   5.026 -2.2770  1.1011 -1.3366
 3085TIP3    H230671   1.461   2.355   4.885  4.6512 -3.6856  0.2694
 3086TIP3   OH230672   4.967   3.569   1.505 -0.6593  0.2001  0.4053
 3086TIP3    H130673   4.979   3.491   1.451  0.2170 -0.1171  1.0342
 3086TIP3    H230674   4.924   3.537   1.584 -2.0256  0.6774 -0.1247
 3087TIP3   OH230675   4.343   5.476  12.262 -0.2498 -0.1547  0.2543
 3087TIP3    H130676   4.315   5.436  12.179 -0.7837  0.2998  0.2111
 3087TIP3    H230677   4.418   5.531  12.238  1.4949 -2.2545  0.5493
 3088TIP3   OH230678   3.800   5.759   2.406  0.2503 -0.3172 -0.1002
 3088TIP3    H130679   3.763   5.776   2.493  1.4898 -0.4631  0.4781
 3088TIP3    H230680   3.894   5.767   2.418  0.4263  0.1265 -1.5515
 3089TIP3   OH230681   5.173   6.764   4.700  0.4166  0.1318 -0.7712
 3089TIP3    H130682   5.262   6.779   4.668  0.1325 -1.0430 -2.2531
 3089TIP3    H230683   5.140   6.694   4.644 -1.2605  0.1853  0.1087
 3090TIP3   OH230684   1.714   4.776   1.061 -0.9481 -0.2472  0.0574
 3090TIP3    H130685   1.764   4.704   1.022  1.2215  1.1964 -0.0144
 3090TIP3    H230686   1.695   4.834   0.988 -1.3996 -0.0268  0.3447
 3091TIP3   OH230687   6.657   2.716  14.126  0.0137 -0.4744 -0.1888
 3091TIP3    H130688   6.747   2.734  14.098  0.6498 -0.6172  1.6269
 3091TIP3    H230689   6.642   2.625  14.100  0.6223 -0.6422  0.0132
 3092TIP3   OH230690   1.302   2.709   5.231 -0.0151 -0.1085 -0.0337
 3092TIP3    H130691   1.228   2.699   5.291 -1.7295 -0.5460 -2.1318
 3092TIP3    H230692   1.374   2.665   5.276 -1.0523  0.1235  1.9700
 3093TIP3   OH230693   2.011   4.775   5.296  0.2174  0.4094 -0.6241
 3093TIP3    H130694   2.040   4.737   5.378 -0.5941 -1.2688 -1.0654
 3093TIP3    H230695   1.919   4.798   5.312 -0.0678 -0.3159 -1.1672
 3094TIP3   OH230696   3.562   0.316   4.698 -0.5871 -0.1509 -0.2142
 3094TIP3    H130697   3.610   0.354   4.625 -3.2013  3.2173 -0.4171
 3094TIP3    H230698   3.614   0.338   4.776  0.3428 -0.5077 -0.7162
 3095TIP3   OH230699   6.177   2.472  15.857  0.2031  0.2570 -0.1339
 3095TIP3    H130700   6.192   2.398  15.915 -2.0084  0.4416  0.7740
 3095TIP3    H230701   6.225   2.451  15.777  0.3306 -1.7209  0.4253
 3096TIP3   OH230702   6.498   1.551  14.412  0.3831  0.2443  0.1702
 3096TIP3    H130703   6.479   1.471  14.362  0.8540  0.8583 -1.0440
 3096TIP3    H230704   6.591   1.544  14.433  1.0486  1.5263 -2.0250
 3097TIP3   OH230705   5.600   4.224   0.757 -0.0561  0.2235  0.1716
 3097TIP3    H130706   5.605   4.280   0.679  0.6248 -0.6222 -0.4161
 3097TIP3    H230707   5.688   4.185   0.763 -0.8539 -1.7506 -0.1873
 3098TIP3   OH230708   4.110   5.043   6.152  0.3460  0.6746  0.2097
 3098TIP3    H130709   4.051   5.088   6.091 -0.7740 -0.3002  0.5430
 3098TIP3    H230710   4.142   5.113   6.209  0.7169  1.4605 -0.9104
 3099TIP3   OH230711   2.446   4.869   5.621  0.1331 -0.0026  0.0989
 3099TIP3    H130712   2.523   4.814   5.638 -0.8411 -0.7080  2.7654
 3099TIP3    H230713   2.443   4.878   5.526  2.0557 -2.0686 -0.2330
 3100TIP3   OH230714   1.235   4.995   1.173 -0.2689  0.0757  0.7075
 3100TIP3    H130715   1.167   4.990   1.240 -0.6991 -1.1383  0.2111
 3100TIP3    H230716   1.238   4.907   1.134  0.7106  0.4512 -0.1409
 3101TIP3   OH230717   6.048   0.072  13.817  0.2727  0.7327 -0.0437
 3101TIP3    H130718   6.023   0.148  13.870 -3.0823 -0.0064 -0.3316
 3101TIP3    H230719   6.048  -0.001  13.878 -0.9500  0.3149 -0.4975
 3102TIP3   OH230720   6.239   2.453   1.171  0.0689  0.0859  0.3416
 3102TIP3    H130721   6.257   2.431   1.079  0.8682  1.5884  0.1060
 3102TIP3    H230722   6.203   2.372   1.208  1.5044 -1.1637 -0.8052
 3103TIP3   OH230723   2.323   0.324  13.179 -0.5014 -0.2518  0.2051
 3103TIP3    H130724   2.266   0.394  13.149  0.8804  0.4483 -0.8989
 3103TIP3    H230725   2.391   0.318  13.113  0.3893 -1.4572  1.1766
 3104TIP3   OH230726   3.317   6.165  13.717  0.0193  0.6066 -0.4947
 3104TIP3    H130727   3.365   6.245  13.740 -1.5643  1.6986 -0.8231
 3104TIP3    H230728   3.323   6.159  13.622  0.4960  0.0692 -0.4396
 3105TIP3   OH230729   3.470   6.184  14.081  0.4277  0.1909 -0.6580
 3105TIP3    H130730   3.442   6.240  14.154  1.2989  1.8686 -1.5382
 3105TIP3    H230731   3.544   6.134  14.116  0.3452  0.4162 -0.1530
 3106TIP3   OH230732   1.437   1.129  12.985  0.4780 -0.7539 -0.0494
 3106TIP3    H130733   1.451   1.082  12.903  1.7711 -1.5941  0.6143
 3106TIP3    H230734   1.517   1.181  12.996  0.7453 -1.4056  1.1555
 3107TIP3   OH230735   1.304   2.429   3.332  0.1839  0.3978 -0.5772
 3107TIP3    H130736   1.320   2.336   3.317 -1.5198  0.2797 -1.9646
 3107TIP3    H230737   1.281   2.464   3.246 -2.6214  1.3531  0.4439
 3108TIP3   OH230738   5.782   0.692  12.819  0.5018  0.0188 -0.0276
 3108TIP3    H130739   5.720   0.626  12.789  1.4412 -0.7006 -0.4264
 3108TIP3    H230740   5.865   0.646  12.828  1.3653  1.2745 -1.0570
 3109TIP3   OH230741   2.717   3.933  16.093  0.0626 -0.6772  0.0863
 3109TIP3    H130742   2.788   3.880  16.128 -0.9931 -1.9458  0.3863
 3109TIP3    H230743   2.704   4.002  16.159  0.4910 -0.9046  0.4119
 3110TIP3   OH230744   6.565   1.689  17.120  0.4444 -0.2284  0.6618
 3110TIP3    H130745   6.532   1.762  17.067  1.0210  0.3132  1.0319
 3110TIP3    H230746   6.652   1.671  17.083  0.2677 -0.7906  0.5158
 3111TIP3   OH230747   3.481   0.270   5.746  0.1421 -0.2578  0.3825
 3111TIP3    H130748   3.560   0.219   5.731 -0.1888 -0.8241  0.5106
 3111TIP3    H230749   3.510   0.361   5.746  0.7197 -0.4378 -0.0072
 3112TIP3   OH230750   2.712   2.575   2.876  0.2863  0.0700 -0.2745
 3112TIP3    H130751   2.651   2.626   2.930 -1.0712 -2.0648  0.3078
 3112TIP3    H230752   2.762   2.641   2.829 -1.1700  1.9543  0.6668
 3113TIP3   OH230753   4.414   0.599   2.111  0.5220 -0.0148  0.0940
 3113TIP3    H130754   4.375   0.589   2.198  1.7720 -0.6924  0.6017
 3113TIP3    H230755   4.364   0.538   2.055  0.1993 -0.1266  0.4969
 3114TIP3   OH230756   4.487   0.990  16.588  0.1478  0.1239 -0.5906
 3114TIP3    H130757   4.461   1.083  16.591 -2.7262 -0.5936  1.0123
 3114TIP3    H230758   4.512   0.975  16.497 -0.1287  2.2751 -1.0914
 3115TIP3   OH230759   0.149   6.498   4.653 -0.2665  0.2201 -0.2518
 3115TIP3    H130760   0.109   6.491   4.567  1.1312  1.9995 -1.1142
 3115TIP3    H230761   0.105   6.573   4.693 -0.5480 -0.2799  0.3944
 3116TIP3   OH230762   6.574   5.162   3.349  0.2609  0.4172 -0.4349
 3116TIP3    H130763   6.485   5.165   3.383  0.1973 -1.5799 -0.3028
 3116TIP3    H230764   6.601   5.253   3.344 -1.3131  0.9888  0.7618
 3117TIP3   OH230765   5.952   3.069  11.269 -0.6034 -0.8208  0.2434
 3117TIP3    H130766   6.007   3.069  11.190 -0.6667  0.7316  0.1763
 3117TIP3    H230767   5.863   3.080  11.236 -0.9759 -2.9574  0.3781
 3118TIP3   OH230768   0.035   6.414  13.463 -0.3431  0.7709 -0.4475
 3118TIP3    H130769   0.010   6.323  13.474  2.9194 -0.3278 -1.2038
 3118TIP3    H230770   0.030   6.451  13.552 -3.2822  0.4445 -0.3713
 3119TIP3   OH230771   5.195   6.749   6.028 -0.3843 -0.0176  0.6067
 3119TIP3    H130772   5.116   6.782   6.071 -2.2290  1.3156 -3.3395
 3119TIP3    H230773   5.262   6.816   6.045 -1.0062  0.4070  1.4287
 3120TIP3   OH230774   4.239   0.540  13.553 -0.4280 -0.1504 -0.2463
 3120TIP3    H130775   4.152   0.507  13.575  0.2366 -1.4174  0.6518
 3120TIP3    H230776   4.260   0.602  13.623  0.0972 -1.2366  0.6079
 3121TIP3   OH230777   3.886   4.504   1.031 -0.1708  0.8441  0.1694
 3121TIP3    H130778   3.963   4.509   0.975 -0.5977 -2.5207 -0.8892
 3121TIP3    H230779   3.922   4.488   1.119  0.3581  0.6397 -0.0791
 3122TIP3   OH230780   3.591   6.595   5.846  0.4413  0.0183  0.4633
 3122TIP3    H130781   3.582   6.529   5.915 -0.3266  0.1928  0.5406
 3122TIP3    H230782   3.685   6.614   5.843  0.9694 -2.4352 -0.8423
 3123TIP3   OH230783   2.356   2.565  14.629 -0.6066  0.7102 -0.6046
 3123TIP3    H130784   2.440   2.605  14.606  0.2305  0.6317  1.9027
 3123TIP3    H230785   2.299   2.639  14.652 -0.6653  0.6953 -0.7036
 3124TIP3   OH230786   5.145   1.299  12.574  0.0343 -0.0674  0.0738
 3124TIP3    H130787   5.109   1.297  12.663 -0.9516  0.6047 -0.2816
 3124TIP3    H230788   5.235   1.329  12.585  0.1193 -0.5852  0.8915
 3125TIP3   OH230789   0.529   0.451   1.159  0.1925  0.1852 -0.0017
 3125TIP3    H130790   0.468   0.490   1.097  1.6103  0.2063 -1.4781
 3125TIP3    H230791   0.579   0.526   1.193 -1.0110  0.2535  1.7410
 3126TIP3   OH230792   4.270   4.889   5.485  0.0483 -0.1219  0.1820
 3126TIP3    H130793   4.304   4.978   5.498  0.2889 -0.4023  1.5892
 3126TIP3    H230794   4.343   4.841   5.445  0.2356  0.0728  0.2895
 3127TIP3   OH230795   2.561   4.821   3.715  0.0197  0.1233 -0.0290
 3127TIP3    H130796   2.618   4.895   3.734  0.2908 -0.3758  1.2144
 3127TIP3    H230797   2.621   4.747   3.700 -0.2660 -0.1619  0.2073
 3128TIP3   OH230798   5.490   6.684   5.348 -0.5352 -0.6776  0.1247
 3128TIP3    H130799   5.568   6.719   5.392 -0.4171  0.6258 -1.0542
 3128TIP3    H230800   5.418   6.733   5.386 -0.3409  1.2115 -1.7542
 3129TIP3   OH230801   3.543   4.091  15.835  0.4165 -0.1708 -0.3649
 3129TIP3    H130802   3.559   4.178  15.798 -1.1512  0.4187  0.2439
 3129TIP3    H230803   3.547   4.031  15.761  0.8420  0.5221 -0.9053
 3130TIP3   OH230804   2.637   5.458   1.903  0.4136  0.4926 -0.1075
 3130TIP3    H130805   2.647   5.464   1.808  1.4213 -0.1959 -0.0621
 3130TIP3    H230806   2.551   5.419   1.916 -0.0556  1.2885 -0.7079
 3131TIP3   OH230807   1.262   2.914  11.228  0.0028 -0.1439 -0.2637
 3131TIP3    H130808   1.244   2.847  11.295  1.5615  1.0210  1.3992
 3131TIP3    H230809   1.224   2.877  11.148 -2.5492 -1.3301  1.3230
 3132TIP3   OH230810   4.257   5.501  13.528  0.2286 -0.3998  0.1790
 3132TIP3    H130811   4.230   5.501  13.620 -0.0733  1.4100  0.1324
 3132TIP3    H230812   4.183   5.542  13.483  0.0823 -1.8753 -0.9958
 3133TIP3   OH230813   0.527   3.972  11.622 -0.3564  0.4928 -0.4765
 3133TIP3    H130814   0.579   3.894  11.599 -1.7027 -0.8001  0.6977
 3133TIP3    H230815   0.440   3.938  11.641 -0.9186  2.2764  0.3290
 3134TIP3   OH230816   6.375   1.673   1.198 -0.1989 -0.2216  0.1443
 3134TIP3    H130817   6.442   1.662   1.131  1.0673  0.5529  1.2321
 3134TIP3    H230818   6.408   1.743   1.254 -1.7703 -0.0483  0.9121
 3135TIP3   OH230819   5.965   0.471   2.866  0.1430  0.3549 -0.0362
 3135TIP3    H130820   5.941   0.562   2.882  2.1681  1.2104 -1.3480
 3135TIP3    H230821   6.058   0.467   2.887  0.0515 -1.4720  0.1487
 3136TIP3   OH230822   6.428   0.870  14.130  0.0560  0.9101  0.6229
 3136TIP3    H130823   6.380   0.802  14.177 -0.4889  1.0281  0.2612
 3136TIP3    H230824   6.520   0.849  14.143 -0.0829 -0.9802 -0.9836
 3137TIP3   OH230825   3.336   2.051   2.782  0.1027 -0.2774 -0.1526
 3137TIP3    H130826   3.360   2.053   2.689 -1.0073  0.0186 -0.4432
 3137TIP3    H230827   3.420   2.042   2.827  0.8307  1.2033 -1.1018
 3138TIP3   OH230828   0.300   6.578  11.924 -0.0666 -0.3058 -0.1398
 3138TIP3    H130829   0.339   6.638  11.861 -0.3089  0.3412  0.3067
 3138TIP3    H230830   0.206   6.597  11.921 -0.0049  0.2995  0.9587
 3139TIP3   OH230831   4.152   3.406  13.427 -0.1132 -0.1015 -0.1415
 3139TIP3    H130832   4.172   3.457  13.506  0.3476  0.4739 -0.6304
 3139TIP3    H230833   4.228   3.417  13.371 -0.6511 -0.1156 -0.8794
 3140TIP3   OH230834   5.443   4.347   4.307 -0.1604  0.4015  0.7133
 3140TIP3    H130835   5.417   4.263   4.344  0.0104  0.1984  0.3775
 3140TIP3    H230836   5.533   4.360   4.337  0.0216  0.1772  0.2716
 3141TIP3   OH230837   6.288   4.173  12.528  0.5541 -0.5963  0.0258
 3141TIP3    H130838   6.287   4.147  12.620  0.1287 -2.2155 -0.4010
 3141TIP3    H230839   6.325   4.261  12.528 -0.6678 -0.0205  1.8763
 3142TIP3   OH230840   2.584   4.357  13.068  0.2429 -0.2152 -0.2404
 3142TIP3    H130841   2.651   4.300  13.032 -0.6517 -2.5390  1.5296
 3142TIP3    H230842   2.502   4.308  13.057 -0.8330  1.4692 -0.1473
 3143TIP3   OH230843   6.434   5.425  14.046  0.1452  0.2791  0.6216
 3143TIP3    H130844   6.478   5.436  13.961  0.0813  3.0045  0.8804
 3143TIP3    H230845   6.505   5.406  14.107  0.5381  1.1305  0.4384
 3144TIP3   OH230846   5.317   0.287   5.793 -0.2260 -0.4921  0.2607
 3144TIP3    H130847   5.304   0.317   5.884 -0.4918 -0.5118  0.2297
 3144TIP3    H230848   5.399   0.328   5.766 -0.7707  0.5284  0.0988
 3145TIP3   OH230849   4.499   5.194  13.412  0.1311 -0.3393  0.4461
 3145TIP3    H130850   4.489   5.285  13.441  1.7504 -0.2018  0.6571
 3145TIP3    H230851   4.481   5.197  13.318 -2.2031 -0.2607  0.8406
 3146TIP3   OH230852   1.860   4.929   2.092 -0.3278  0.6269 -0.4319
 3146TIP3    H130853   1.839   4.923   2.185 -0.2109 -1.5387 -0.5027
 3146TIP3    H230854   1.777   4.909   2.047  0.3970 -2.0646 -0.7243
 3147TIP3   OH230855   1.723   1.039  16.492  0.1889  0.4231 -1.1012
 3147TIP3    H130856   1.731   0.971  16.425  0.1155  0.0646 -0.7523
 3147TIP3    H230857   1.687   0.993  16.568 -0.8957  1.0724 -1.2073
 3148TIP3   OH230858   3.061   1.347   1.454  0.2590  0.2732  0.4561
 3148TIP3    H130859   3.137   1.342   1.397 -0.4475  0.2025 -0.5036
 3148TIP3    H230860   2.992   1.301   1.406 -0.7097  1.3386  0.7941
 3149TIP3   OH230861   5.237   3.896   0.859  0.5262  0.6681  0.0837
 3149TIP3    H130862   5.190   3.860   0.783 -0.0106  2.3254 -0.4201
 3149TIP3    H230863   5.250   3.821   0.917 -3.4396  0.1651  0.6060
 3150TIP3   OH230864   3.591   4.497   4.566  0.3306 -0.7340 -0.3574
 3150TIP3    H130865   3.534   4.424   4.591  1.0064 -1.4364 -0.8517
 3150TIP3    H230866   3.531   4.563   4.532 -0.2387 -1.2829 -0.4423
 3151TIP3   OH230867   1.594   2.864   2.121  0.1978  0.2350  0.0056
 3151TIP3    H130868   1.660   2.921   2.160 -0.1312  0.1411  0.7076
 3151TIP3    H230869   1.641   2.782   2.101  0.5916  0.6235 -0.7025
 3152TIP3   OH230870   1.268   0.760  14.252  0.7634 -0.1703  0.0815
 3152TIP3    H130871   1.340   0.821  14.238  0.2902  0.3497 -0.1346
 3152TIP3    H230872   1.205   0.781  14.182  0.3063 -0.4589  0.4021
 3153TIP3   OH230873   1.619   0.014  13.404  0.2750  0.8685 -0.2887
 3153TIP3    H130874   1.612  -0.030  13.319  0.5355 -0.5605  0.4027
 3153TIP3    H230875   1.626  -0.057  13.467 -0.8571  1.8760  1.0412
 3154TIP3   OH230876   5.258   0.816   3.334  0.3359  0.2181  0.3737
 3154TIP3    H130877   5.265   0.721   3.338  1.7571  0.2748 -0.3671
 3154TIP3    H230878   5.165   0.833   3.348 -0.1532 -1.3514 -0.6710
 3155TIP3   OH230879   1.998   4.606  11.472  0.8878 -0.0776  0.3470
 3155TIP3    H130880   2.042   4.521  11.467  1.3949  0.0323  2.2738
 3155TIP3    H230881   2.060   4.668  11.435  1.1338 -0.3452  0.3108
 3156TIP3   OH230882   1.610   1.765  16.410  1.0139  0.4121  0.4826
 3156TIP3    H130883   1.574   1.807  16.489  1.1142 -0.1059  0.8106
 3156TIP3    H230884   1.674   1.828  16.377 -0.1273  1.3232 -0.0788
 3157TIP3   OH230885   2.790   2.753   2.572  0.4870  0.1308  0.0038
 3157TIP3    H130886   2.741   2.835   2.577  0.2040 -0.1256  3.1418
 3157TIP3    H230887   2.856   2.760   2.640 -0.0800 -2.5593  0.9488
 3158TIP3   OH230888   3.180   4.340   2.620 -0.0950 -0.4769  0.0227
 3158TIP3    H130889   3.222   4.396   2.555  1.8636  0.4353  1.9354
 3158TIP3    H230890   3.132   4.401   2.676 -1.0237 -1.1370 -0.0447
 3159TIP3   OH230891   2.854   2.353  13.807  0.0992  0.0018 -0.0700
 3159TIP3    H130892   2.823   2.263  13.801 -1.7803  0.6894 -2.5474
 3159TIP3    H230893   2.781   2.400  13.848  0.9508  0.4698  0.9455
 3160TIP3   OH230894   3.893   2.835   4.093 -0.7877  0.2955  0.0267
 3160TIP3    H130895   3.808   2.812   4.055 -1.4663  2.1215  0.3419
 3160TIP3    H230896   3.938   2.751   4.103 -1.7529 -0.5292 -1.9922
 3161TIP3   OH230897   6.657   2.862  10.807 -0.1510 -0.1159 -0.4697
 3161TIP3    H130898   6.700   2.776  10.802 -1.0972 -0.6957  0.8490
 3161TIP3    H230899   6.728   2.924  10.822  0.4892 -0.7210 -0.9235
 3162TIP3   OH230900   4.540   0.176  13.125 -0.3358  0.0527 -0.2058
 3162TIP3    H130901   4.613   0.235  13.105 -0.9657  0.4013 -1.5999
 3162TIP3    H230902   4.582   0.097  13.159  0.7021  0.2364 -1.0242
 3163TIP3   OH230903   5.333   3.380   4.038 -0.1918 -0.1419  0.1790
 3163TIP3    H130904   5.404   3.328   4.000  1.0364  2.1596 -0.8607
 3163TIP3    H230905   5.270   3.389   3.966  0.1420  0.7200 -0.0143
 3164TIP3   OH230906   1.228   0.716  13.554 -0.2148 -0.1451  0.2704
 3164TIP3    H130907   1.194   0.643  13.606  0.9797  0.2225  1.6555
 3164TIP3    H230908   1.198   0.794  13.601 -0.4230  0.2238 -0.4774
 3165TIP3   OH230909   0.656   3.993   1.796  0.1005  0.4614  0.2713
 3165TIP3    H130910   0.697   3.954   1.873 -0.5123  0.0623  0.4033
 3165TIP3    H230911   0.587   3.931   1.772  0.1894  0.6613 -0.5056
 3166TIP3   OH230912   4.710   1.072  16.957 -0.2694  0.2681  0.0214
 3166TIP3    H130913   4.784   1.061  17.017  0.5014  0.1344 -0.9455
 3166TIP3    H230914   4.724   1.157  16.916 -1.2184  0.7173  0.5850
 3167TIP3   OH230915   4.278   3.128   5.076  0.1620 -0.0864  0.0449
 3167TIP3    H130916   4.300   3.108   5.167  2.4992  1.4544 -0.0856
 3167TIP3    H230917   4.204   3.189   5.082 -0.8832 -1.3987  0.8019
 3168TIP3   OH230918   2.354   5.387  17.129 -0.3306 -0.4594  0.1323
 3168TIP3    H130919   2.300   5.325  17.177  0.8709 -2.0292 -0.4892
 3168TIP3    H230920   2.291   5.452  17.097 -2.5563 -3.9151 -3.4033
 3169TIP3   OH230921   2.409   2.196   4.883  0.2530  0.1545  0.3580
 3169TIP3    H130922   2.364   2.177   4.966 -1.7094  0.6722 -0.5359
 3169TIP3    H230923   2.360   2.147   4.817  1.4938  0.1369 -0.5852
 3170TIP3   OH230924   3.867   5.754   0.135  0.2376 -0.2005 -0.2323
 3170TIP3    H130925   3.956   5.783   0.112  0.1486  0.1095 -0.1864
 3170TIP3    H230926   3.831   5.722   0.053 -0.2989  1.4705 -0.6840
 3171TIP3   OH230927   2.988   2.196  10.852  0.5605  0.0229  0.1563
 3171TIP3    H130928   3.039   2.124  10.888 -0.3726 -0.2526  1.0101
 3171TIP3    H230929   3.009   2.197  10.759 -1.1468 -2.9146 -0.4022
 3172TIP3   OH230930   5.317   4.264   6.335 -0.1517 -0.6164  0.0296
 3172TIP3    H130931   5.297   4.329   6.403 -0.0973  0.6821 -1.1429
 3172TIP3    H230932   5.326   4.182   6.383  0.4703  0.3474  1.6772
 3173TIP3   OH230933   1.202   1.329   2.261 -0.2768  0.2116  0.8406
 3173TIP3    H130934   1.127   1.272   2.250 -0.5333  0.9745 -2.1211
 3173TIP3    H230935   1.269   1.274   2.302 -1.5606 -1.2186  1.0804
 3174TIP3   OH230936   3.642   6.604  16.697  0.3732  0.4767 -0.2027
 3174TIP3    H130937   3.654   6.649  16.614  1.7277 -0.7590 -0.7245
 3174TIP3    H230938   3.563   6.551  16.685  0.3181  0.6355 -0.5366
 3175TIP3   OH230939   4.464   3.455   2.423 -0.1355 -0.0899 -0.2280
 3175TIP3    H130940   4.444   3.364   2.447  0.7015 -0.0013  0.8983
 3175TIP3    H230941   4.415   3.508   2.485  0.9867  0.1687  0.4784
 3176TIP3   OH230942   2.869   3.188  12.446 -0.2835  0.7242 -0.0730
 3176TIP3    H130943   2.825   3.125  12.504 -0.7394  0.1633 -1.0080
 3176TIP3    H230944   2.847   3.273  12.484 -0.6056  0.3718  0.5611
 3177TIP3   OH230945   4.369   1.028  15.523  0.2866  0.1560 -0.3324
 3177TIP3    H130946   4.406   1.045  15.609 -1.4406  0.6788  0.3395
 3177TIP3    H230947   4.327   0.943  15.532  1.2473 -0.4331 -1.0932
 3178TIP3   OH230948   3.610   5.687  15.568 -0.1969  0.2210  0.0869
 3178TIP3    H130949   3.570   5.665  15.652 -0.7993  2.1439  0.3422
 3178TIP3    H230950   3.668   5.761  15.588  0.3797  0.0971 -1.0364
 3179TIP3   OH230951   3.395   4.636   6.033 -0.1891 -0.3576 -0.0988
 3179TIP3    H130952   3.389   4.666   6.124  0.9817 -0.4863  0.0395
 3179TIP3    H230953   3.376   4.714   5.981  2.1479  0.5407  0.2621
 3180TIP3   OH230954   1.564   3.698   3.844  0.4707 -0.3288 -0.0593
 3180TIP3    H130955   1.584   3.738   3.928 -0.4204 -1.4937  0.7438
 3180TIP3    H230956   1.527   3.769   3.792  1.3208  0.4744  0.4129
 3181TIP3   OH230957   1.940   5.120  14.723  0.1573 -0.1583  0.2552
 3181TIP3    H130958   1.991   5.051  14.680  1.2915  0.4880  0.5304
 3181TIP3    H230959   1.887   5.074  14.788  1.3169 -0.7226  0.8292
 3182TIP3   OH230960   2.744   1.473   3.032 -0.0954  0.0941 -0.4073
 3182TIP3    H130961   2.694   1.550   3.002 -1.3248 -0.2163  0.7266
 3182TIP3    H230962   2.688   1.399   3.011  0.4789 -0.3808 -0.2698
 3183TIP3   OH230963   4.305   6.632   4.465 -0.4365 -0.0168 -0.0269
 3183TIP3    H130964   4.292   6.713   4.416  0.5945  0.6818  0.7999
 3183TIP3    H230965   4.328   6.661   4.553 -0.2510 -1.2173  0.3393
 3184TIP3   OH230966   2.856   4.763   4.394  0.3019  0.0512  0.1644
 3184TIP3    H130967   2.950   4.757   4.376  0.3651  0.9021  0.1929
 3184TIP3    H230968   2.846   4.845   4.441 -0.4247 -0.1699  0.4036
 3185TIP3   OH230969   1.174   3.106   2.521 -0.0602  0.3289  0.1740
 3185TIP3    H130970   1.089   3.147   2.509  0.2569  1.4223  1.4945
 3185TIP3    H230971   1.237   3.178   2.519  0.6362 -0.2209  1.2351
 3186TIP3   OH230972   2.382   1.281  14.883  0.1320  0.2973  0.0994
 3186TIP3    H130973   2.379   1.279  14.788  0.4085  0.1234  0.0907
 3186TIP3    H230974   2.291   1.288  14.911  0.1106  1.2825 -0.1888
 3187TIP3   OH230975   6.355   0.318   5.203 -0.4171 -0.1535 -0.6873
 3187TIP3    H130976   6.281   0.289   5.255  0.4574 -1.8228 -0.2885
 3187TIP3    H230977   6.326   0.400   5.162 -1.6650  0.3920  1.1817
 3188TIP3   OH230978   5.756   6.586   0.045 -0.5721 -0.9524 -0.6274
 3188TIP3    H130979   5.685   6.615  -0.012 -0.7554 -0.3859 -0.1169
 3188TIP3    H230980   5.829   6.645   0.025  0.3618 -2.5825 -2.3878
 3189TIP3   OH230981   2.523   3.559   5.319  0.0190  0.0114  0.8167
 3189TIP3    H130982   2.446   3.616   5.312 -0.8401 -1.1956 -0.1540
 3189TIP3    H230983   2.590   3.614   5.359 -0.6193  1.8588 -0.4902
 3190TIP3   OH230984   3.926   5.481   4.423  0.0574  0.0516 -0.0632
 3190TIP3    H130985   4.020   5.468   4.429 -0.4175 -3.5865  2.0983
 3190TIP3    H230986   3.898   5.422   4.353 -0.6230  1.7800 -1.3337
 3191TIP3   OH230987   6.154   5.155  13.251  0.6446 -0.3940 -0.5746
 3191TIP3    H130988   6.188   5.077  13.207  0.1944 -0.4291 -0.8615
 3191TIP3    H230989   6.137   5.217  13.180 -0.7906 -0.7169 -0.5279
 3192TIP3   OH230990   4.551   4.691   5.324  0.0147 -0.1334  0.4844
 3192TIP3    H130991   4.609   4.660   5.394  0.9008 -1.1677 -0.6506
 3192TIP3    H230992   4.591   4.773   5.294  0.2479 -0.2469  0.4834
 3193TIP3   OH230993   0.458   2.867  16.824  0.8274 -0.0762  0.0361
 3193TIP3    H130994   0.518   2.881  16.897  0.8919 -0.3140  0.0275
 3193TIP3    H230995   0.515   2.846  16.750  0.7385 -0.2069  0.0055
 3194TIP3   OH230996   4.921   4.846  14.323  0.5854 -0.2941  0.2729
 3194TIP3    H130997   5.004   4.810  14.292  0.0793 -0.5527 -0.8031
 3194TIP3    H230998   4.907   4.924  14.269  0.2886 -0.0533  0.6888
 3195TIP3   OH230999   6.680   0.907   2.735 -0.0865  0.4356  0.4062
 3195TIP3    H131000   6.610   0.947   2.785  0.1476 -0.7941  1.7914
 3195TIP3    H231001   6.759   0.956   2.758 -0.1344  0.4727  0.4886
 3196TIP3   OH231002   1.251   3.709  15.855  0.2962 -0.3683  0.2397
 3196TIP3    H131003   1.195   3.669  15.921  1.0455 -2.4199 -0.2809
 3196TIP3    H231004   1.338   3.710  15.895  0.0357  2.5592  0.9476
 3197TIP3   OH231005   5.249   2.084  13.825  0.6075 -0.1711  0.3324
 3197TIP3    H131006   5.162   2.049  13.845  0.6882 -0.0972  0.8169
 3197TIP3    H231007   5.306   2.043  13.890  1.0173 -0.5996 -0.2936
 3198TIP3   OH231008   0.876   1.990   1.275  0.2126 -0.0509  0.3145
 3198TIP3    H131009   0.867   2.050   1.349 -1.0595  1.4483 -0.9746
 3198TIP3    H231010   0.787   1.958   1.260  0.9330 -2.6839  1.2563
 3199TIP3   OH231011   0.358   6.480  13.060 -0.6265 -0.5168  0.0730
 3199TIP3    H131012   0.425   6.547  13.071 -0.4677 -0.9388  1.9982
 3199TIP3    H231013   0.283   6.513  13.110 -2.1833  0.2464 -2.5283
 3200TIP3   OH231014   3.700   3.892  12.025  0.1371  0.3385 -0.0020
 3200TIP3    H131015   3.773   3.949  12.002  0.6502 -0.0232  0.6833
 3200TIP3    H231016   3.726   3.806  11.990  0.8362 -0.1715  1.6856
 3201TIP3   OH231017   4.161   4.940   0.574  0.5042  0.0021 -0.6030
 3201TIP3    H131018   4.176   5.021   0.524  0.6328  0.8545  0.7483
 3201TIP3    H231019   4.108   4.968   0.649  0.9224 -1.0939  0.1251
 3202TIP3   OH231020   3.772   0.260  16.390 -0.0952 -0.0380 -0.0913
 3202TIP3    H131021   3.850   0.209  16.410  1.6435  1.6785 -2.0623
 3202TIP3    H231022   3.803   0.351  16.385 -2.0877  0.6293 -1.4739
 3203TIP3   OH231023   3.106   2.160  16.540  0.3938 -0.2254 -0.3667
 3203TIP3    H131024   3.103   2.131  16.449 -0.4605 -2.3676  0.2971
 3203TIP3    H231025   3.061   2.244  16.539  0.9621  0.1024 -2.0013
 3204TIP3   OH231026   1.990   1.241  14.674  0.1303  0.1990 -0.2755
 3204TIP3    H131027   1.977   1.222  14.767 -1.1445 -1.3255 -0.7123
 3204TIP3    H231028   2.085   1.244  14.663  0.3007  1.0465  1.1733
 3205TIP3   OH231029   6.222   3.504  17.129  0.1720 -0.3395 -0.7763
 3205TIP3    H131030   6.204   3.597  17.113  1.4314  0.0991  0.2269
 3205TIP3    H231031   6.238   3.468  17.042 -1.5250  0.0935 -1.3042
 3206TIP3   OH231032   0.341   2.401   2.312 -0.0404 -0.8415 -0.4880
 3206TIP3    H131033   0.265   2.348   2.338 -0.2403 -0.0614  0.5902
 3206TIP3    H231034   0.359   2.456   2.388  1.8961 -1.3181 -0.5295
 3207TIP3   OH231035   2.904   6.185   0.136  0.0664 -0.0739 -0.9456
 3207TIP3    H131036   2.810   6.183   0.122  0.1441 -0.9553 -1.4626
 3207TIP3    H231037   2.941   6.146   0.056  0.7812 -0.9937 -0.1940
 3208TIP3   OH231038   3.257   6.443   5.363 -0.1435 -0.3560  0.4822
 3208TIP3    H131039   3.183   6.383   5.357  0.7513 -1.5463  0.7750
 3208TIP3    H231040   3.333   6.390   5.336  0.6570  0.6911  0.6080
 3209TIP3   OH231041   2.409   1.356   5.431 -0.9804 -0.3684 -0.1107
 3209TIP3    H131042   2.426   1.393   5.518  2.4483  0.7972 -1.1251
 3209TIP3    H231043   2.429   1.427   5.370 -1.9354 -1.5730 -1.9316
 3210TIP3   OH231044   3.807   0.913   5.946 -0.1356 -0.2140  0.3093
 3210TIP3    H131045   3.720   0.886   5.973 -0.8896  1.0628 -0.7589
 3210TIP3    H231046   3.801   1.007   5.932  0.2628 -0.5873 -3.6900
 3211TIP3   OH231047   3.038   0.008  11.227  0.0041  0.1120 -0.2047
 3211TIP3    H131048   2.989   0.088  11.210 -1.2326 -0.8527 -1.4585
 3211TIP3    H231049   3.060  -0.026  11.140  2.3790  0.1667  0.3163
 3212TIP3   OH231050   1.862   2.397  11.027  0.4693 -0.3036 -0.2961
 3212TIP3    H131051   1.826   2.314  10.994 -0.6092  0.1515 -0.3116
 3212TIP3    H231052   1.800   2.423  11.095  1.4589 -0.1064  0.5582
 3213TIP3   OH231053   4.406   0.930   4.768  0.2141  0.4333 -0.0712
 3213TIP3    H131054   4.312   0.947   4.756  0.5191  1.8357 -0.7026
 3213TIP3    H231055   4.411   0.878   4.848 -1.1282  0.0002 -0.2456
 3214TIP3   OH231056   4.227   4.853   3.789 -0.0314 -0.0889  0.2244
 3214TIP3    H131057   4.259   4.880   3.703 -0.2211  0.5639  0.3477
 3214TIP3    H231058   4.302   4.808   3.829 -0.2275 -1.1839 -0.6071
 3215TIP3   OH231059   2.145   0.521   0.604 -0.1014 -0.0859 -0.0136
 3215TIP3    H131060   2.141   0.512   0.699 -1.4154  2.7230  0.2840
 3215TIP3    H231061   2.067   0.476   0.572  0.0655 -0.5824  0.2683
 3216TIP3   OH231062   2.263   2.852  11.931 -0.0726 -0.1232 -0.3144
 3216TIP3    H131063   2.251   2.946  11.919  0.0266  0.1296  1.3615
 3216TIP3    H231064   2.211   2.830  12.008  3.9837 -0.3646  2.6812
 3217TIP3   OH231065   3.972   0.455   4.692 -0.5126  0.5718  0.7422
 3217TIP3    H131066   3.987   0.375   4.741 -0.2507  0.1394 -0.0253
 3217TIP3    H231067   4.052   0.467   4.640  0.7703  2.9400  2.9892
 3218TIP3   OH231068   0.352   2.941   1.842 -0.4771 -0.3760 -0.5453
 3218TIP3    H131069   0.430   2.942   1.787 -1.6043 -1.7301 -2.3112
 3218TIP3    H231070   0.326   2.849   1.844 -1.2633 -0.1535  1.1570
 3219TIP3   OH231071   4.288   3.714  13.090  0.3037 -0.1297  0.6095
 3219TIP3    H131072   4.293   3.787  13.029 -1.0848 -1.1879 -0.8351
 3219TIP3    H231073   4.277   3.636  13.035  1.0501 -1.3809  2.1283
 3220TIP3   OH231074   3.127   5.170  12.701 -0.5389 -0.2583 -0.1449
 3220TIP3    H131075   3.090   5.095  12.655  2.5845 -1.2256 -1.3999
 3220TIP3    H231076   3.113   5.243  12.641 -0.7427 -0.5135 -0.4134
 3221TIP3   OH231077   3.167   4.589  10.846  0.1159 -0.3688  0.9460
 3221TIP3    H131078   3.221   4.668  10.841 -1.9838  1.3693  3.0000
 3221TIP3    H231079   3.096   4.605  10.784  0.7271 -1.6434 -0.1349
 3222TIP3   OH231080   3.091   6.416  14.458 -0.1345 -0.1558  0.3866
 3222TIP3    H131081   3.067   6.478  14.527 -0.1640  0.4505 -0.1585
 3222TIP3    H231082   3.141   6.348  14.503 -0.5098  0.0093  1.0718
 3223TIP3   OH231083   0.643   4.097  13.079 -0.1215 -0.3269  0.1496
 3223TIP3    H131084   0.681   4.054  13.003 -0.3573 -0.1747 -0.0553
 3223TIP3    H231085   0.651   4.191  13.061  0.9310 -0.2634  0.8548
 3224TIP3   OH231086   3.230   6.149  12.890  0.0574 -0.6674  0.4514
 3224TIP3    H131087   3.202   6.153  12.981 -0.6910  4.5268  0.2888
 3224TIP3    H231088   3.149   6.137  12.840  0.0157 -0.0964  0.3811
 3225TIP3   OH231089   4.121   3.608   0.842  0.5077 -0.1995 -0.0951
 3225TIP3    H131090   4.194   3.627   0.783  0.3686  2.6536  0.4640
 3225TIP3    H231091   4.044   3.639   0.795  0.4887  2.9831  1.7348
 3226TIP3   OH231092   5.235   0.299   2.232  0.0464 -0.3127  0.2752
 3226TIP3    H131093   5.321   0.257   2.232  0.2352  0.0691  0.2816
 3226TIP3    H231094   5.183   0.246   2.293  0.2899 -0.5164  0.3093
 3227TIP3   OH231095   1.977   0.439  12.366  0.3867 -0.5244 -0.2225
 3227TIP3    H131096   2.021   0.374  12.420 -0.7217 -1.5064 -0.4515
 3227TIP3    H231097   1.923   0.388  12.306  1.8030  0.5108 -2.5194
 3228TIP3   OH231098   1.201   2.533  13.405 -0.0854 -0.2474 -0.1235
 3228TIP3    H131099   1.211   2.538  13.310 -0.1294 -4.1543 -0.4912
 3228TIP3    H231100   1.111   2.559  13.422  0.1017  1.0908 -1.0072
 3229TIP3   OH231101   5.139   1.886   1.568 -0.0772  0.2450 -0.1597
 3229TIP3    H131102   5.082   1.832   1.513  0.1697  0.8652 -1.0563
 3229TIP3    H231103   5.180   1.824   1.628 -1.5271 -0.2385  0.3669
 3230TIP3   OH231104   5.480   3.593  12.062 -0.0495 -0.7049  0.1810
 3230TIP3    H131105   5.529   3.515  12.036  0.4508 -0.5681  0.7027
 3230TIP3    H231106   5.527   3.665  12.021  0.6097 -0.5085  1.2671
 3231TIP3   OH231107   5.499   1.034   4.236  0.3717 -0.1012 -0.2216
 3231TIP3    H131108   5.535   1.020   4.323 -0.2045  1.9312  0.4071
 3231TIP3    H231109   5.423   1.090   4.250 -1.0271 -1.4937 -1.8553
 3232TIP3   OH231110   6.592   4.359  14.917 -0.4113 -0.4658 -0.2450
 3232TIP3    H131111   6.649   4.306  14.861  1.0490 -1.1725  1.7650
 3232TIP3    H231112   6.617   4.449  14.898 -0.9385 -0.6068 -1.7020
 3233TIP3   OH231113   5.740   2.292   4.094  0.7064 -0.0007  0.2903
 3233TIP3    H131114   5.660   2.298   4.146  0.4476  0.7692 -0.1888
 3233TIP3    H231115   5.773   2.381   4.089  1.7337 -0.3389  0.6750
 3234TIP3   OH231116   6.525   4.549  13.748  0.0686 -0.1659 -0.1256
 3234TIP3    H131117   6.606   4.547  13.798  1.4515 -0.0530 -2.2439
 3234TIP3    H231118   6.497   4.640  13.750  0.0946 -0.1672  0.4319
 3235TIP3   OH231119   3.359   6.302  14.938 -0.0420  0.1699 -0.6140
 3235TIP3    H131120   3.390   6.258  14.859  0.5139 -0.5698  0.0121
 3235TIP3    H231121   3.302   6.372  14.905 -0.2974 -0.5033 -1.6485
 3236TIP3   OH231122   0.748   6.747   2.460 -0.1422 -0.1951 -0.2104
 3236TIP3    H131123   0.697   6.707   2.531  0.8962  0.1912  0.7935
 3236TIP3    H231124   0.832   6.769   2.501  0.2813  0.5507 -1.4338
 3237TIP3   OH231125   5.954   2.115  16.398  0.0161  0.1898 -0.1530
 3237TIP3    H131126   5.874   2.166  16.382  0.2251  0.2987 -0.8546
 3237TIP3    H231127   5.955   2.050  16.328  0.2556 -0.1766  0.1856
 3238TIP3   OH231128   4.410   6.404   6.022 -0.3415 -0.3795 -0.6805
 3238TIP3    H131129   4.503   6.404   6.045 -0.4404  1.2524 -0.1716
 3238TIP3    H231130   4.371   6.337   6.078  0.0033  1.1862  1.5457
 3239TIP3   OH231131   2.978   5.592   4.023  0.1979 -0.2262 -0.0352
 3239TIP3    H131132   2.957   5.602   3.930 -0.6633  0.2849  0.2022
 3239TIP3    H231133   3.073   5.603   4.027  0.0081  2.4290 -0.5678
 3240TIP3   OH231134   3.815   1.514   3.774  0.0449  0.3791 -0.2437
 3240TIP3    H131135   3.806   1.453   3.847 -0.1956  0.6364 -0.0558
 3240TIP3    H231136   3.899   1.557   3.789 -0.5412  1.2965  0.5537
 3241TIP3   OH231137   1.806   1.293  17.003  0.6367 -0.5211 -0.2170
 3241TIP3    H131138   1.746   1.303  17.076 -1.3392 -0.0576 -1.8032
 3241TIP3    H231139   1.846   1.206  17.015 -1.3866 -1.4410  0.2076
 3242TIP3   OH231140   1.147   3.240  16.953 -0.3174  0.1157 -0.0259
 3242TIP3    H131141   1.052   3.241  16.967 -0.7583 -0.8302 -2.3881
 3242TIP3    H231142   1.167   3.328  16.922 -0.4321  0.2919  0.3933
 3243TIP3   OH231143   1.071   2.923  14.671 -0.1175 -0.3469  0.1172
 3243TIP3    H131144   1.095   2.830  14.665  0.3709 -0.1363 -1.8572
 3243TIP3    H231145   1.139   2.962  14.726 -0.9017 -1.2952  1.8570
 3244TIP3   OH231146   4.649   2.989  11.790  0.3085  0.2157 -0.4196
 3244TIP3    H131147   4.639   3.083  11.806  0.4282  0.1881 -0.1836
 3244TIP3    H231148   4.652   2.981  11.694  0.5446  0.4764 -0.4339
 3245TIP3   OH231149   2.755   5.779  11.042  0.1433  0.1271 -0.3827
 3245TIP3    H131150   2.683   5.836  11.015  0.8679  2.2539  1.8002
 3245TIP3    H231151   2.712   5.705  11.086 -0.7846  1.5354  1.1979
 3246TIP3   OH231152   3.218   4.848  14.150 -0.1253  0.2428  0.9383
 3246TIP3    H131153   3.223   4.889  14.237 -0.4355  0.4973  0.8364
 3246TIP3    H231154   3.306   4.814  14.135 -0.4334 -1.0960  1.9826
 3247TIP3   OH231155   1.231   2.474  12.889 -0.1461 -0.1002 -0.1668
 3247TIP3    H131156   1.159   2.412  12.884  1.0627 -1.4833 -1.6031
 3247TIP3    H231157   1.199   2.552  12.842 -0.9743 -0.3802 -0.0835
 3248TIP3   OH231158   2.536   0.648   3.474  0.4206 -0.4989  0.2410
 3248TIP3    H131159   2.487   0.569   3.452  0.7556 -1.1400  1.6632
 3248TIP3    H231160   2.488   0.686   3.547  1.3556 -0.4840  0.8633
 3249TIP3   OH231161   4.424   6.073   1.433  0.7346 -0.4692  0.1299
 3249TIP3    H131162   4.386   6.067   1.521 -0.0031 -2.4871 -0.2615
 3249TIP3    H231163   4.380   6.147   1.393  0.8914  0.3238  1.3641
 3250TIP3   OH231164   0.132   6.701  10.776 -1.1205 -1.1225 -0.4812
 3250TIP3    H131165   0.208   6.663  10.818 -0.4856 -0.3212 -0.8789
 3250TIP3    H231166   0.064   6.701  10.844 -0.4573 -0.8989  0.1891
 3251TIP3   OH231167   1.586   1.438   0.793  0.4608 -0.1380  0.4567
 3251TIP3    H131168   1.536   1.446   0.712  2.2394  0.4934 -0.6287
 3251TIP3    H231169   1.577   1.523   0.836 -3.0999 -1.3786  2.6495
 3252TIP3   OH231170   4.234   5.357  11.996 -0.4386  0.4607 -0.9175
 3252TIP3    H131171   4.198   5.269  11.997 -0.9623  0.5744  2.5014
 3252TIP3    H231172   4.158   5.414  12.010  0.2540  1.1700  0.1245
 3253TIP3   OH231173   1.748   2.500  16.401  0.0713 -0.3741 -0.3749
 3253TIP3    H131174   1.737   2.509  16.306  0.0499  1.6824 -0.2096
 3253TIP3    H231175   1.793   2.580  16.428 -1.3600 -0.1652  1.5738
 3254TIP3   OH231176   0.173   6.486   2.849 -0.8913  0.0497  0.3279
 3254TIP3    H131177   0.144   6.489   2.941 -0.6901 -0.1144  0.3956
 3254TIP3    H231178   0.200   6.576   2.830  0.2863 -0.1818  0.8226
 3255TIP3   OH231179   2.933   5.255   4.334 -0.5535  0.0074  0.2811
 3255TIP3    H131180   3.010   5.200   4.320 -1.6818 -1.4942 -0.4211
 3255TIP3    H231181   2.968   5.338   4.365  1.2353 -1.2169  1.8084
 3256TIP3   OH231182   5.767   4.201   0.347 -0.1291 -0.2204 -0.0502
 3256TIP3    H131183   5.707   4.242   0.409 -2.8515 -1.6522 -1.5637
 3256TIP3    H231184   5.758   4.107   0.363  0.4886 -0.5438 -1.4112
 3257TIP3   OH231185   1.649   2.613   1.169  0.1135  0.2004 -0.3977
 3257TIP3    H131186   1.625   2.548   1.235  1.3057  0.1284 -0.0015
 3257TIP3    H231187   1.568   2.659   1.150 -0.3509 -0.0959  0.7718
 3258TIP3   OH231188   6.040   5.623   3.806 -0.1267 -0.5078  0.2812
 3258TIP3    H131189   5.950   5.591   3.809 -0.4035  0.2673  2.1723
 3258TIP3    H231190   6.035   5.706   3.759 -0.1193 -1.1511 -0.8971
 3259TIP3   OH231191   5.758   2.410   2.725 -0.2576  0.3590 -0.0376
 3259TIP3    H131192   5.831   2.429   2.786  2.1756  0.7670 -2.8412
 3259TIP3    H231193   5.764   2.316   2.710 -2.0227 -0.0756  1.6007
 3260TIP3   OH231194   3.024   3.667   6.175  0.3414 -0.3361  0.1811
 3260TIP3    H131195   3.096   3.668   6.112 -1.9171  0.9884 -2.6187
 3260TIP3    H231196   3.031   3.750   6.222 -0.0649  0.4219 -1.0462
 3261TIP3   OH231197   1.936   2.029   5.593  0.3164 -0.0760  0.1293
 3261TIP3    H131198   1.957   2.117   5.562  2.4111 -0.5970 -0.0860
 3261TIP3    H231199   1.893   2.043   5.678  1.8398  1.1328  0.7415
 3262TIP3   OH231200   3.422   1.376  15.289 -0.2610  0.0990 -0.3503
 3262TIP3    H131201   3.421   1.465  15.324  0.6668  0.6491 -1.6644
 3262TIP3    H231202   3.513   1.360  15.267 -0.3759 -1.3023  0.1088
 3263TIP3   OH231203   1.973   2.548   3.745 -0.1934  0.4485 -0.1455
 3263TIP3    H131204   1.878   2.545   3.738 -0.0825 -0.0108 -1.9824
 3263TIP3    H231205   2.004   2.484   3.681  1.3490 -0.1728  1.1545
 3264TIP3   OH231206   3.624   2.869  12.606 -0.8106  0.3646  0.3608
 3264TIP3    H131207   3.529   2.883  12.606 -0.7759  1.1264  2.5577
 3264TIP3    H231208   3.657   2.931  12.671  1.0873 -0.5919  0.3911
 3265TIP3   OH231209   1.087   1.680  13.604  0.0792 -0.4448 -0.4150
 3265TIP3    H131210   1.073   1.761  13.653 -1.9593 -1.4652  0.8253
 3265TIP3    H231211   1.078   1.705  13.512  1.9566  1.1341 -0.2355
 3266TIP3   OH231212   0.635   2.419   2.568  0.6771  0.3289 -0.5022
 3266TIP3    H131213   0.575   2.383   2.502 -1.6535  2.7932  0.0801
 3266TIP3    H231214   0.722   2.396   2.537 -0.4792 -3.6174 -1.3238
 3267TIP3   OH231215   2.903   1.415  12.909 -0.4900  0.4028  0.2738
 3267TIP3    H131216   2.823   1.363  12.922  0.1085 -1.0879 -1.6165
 3267TIP3    H231217   2.954   1.399  12.988 -1.3344 -0.0135  0.7553
 3268TIP3   OH231218   1.212   3.699   4.303  0.1508  0.9603 -0.4142
 3268TIP3    H131219   1.131   3.712   4.252 -0.2686  1.3877  0.3393
 3268TIP3    H231220   1.183   3.653   4.381  0.9546 -0.6144 -1.0178
 3269TIP3   OH231221   0.949   6.198   3.154  0.1129 -0.4620  0.4271
 3269TIP3    H131222   0.885   6.241   3.097  0.5100  0.2025  0.4652
 3269TIP3    H231223   1.021   6.261   3.161  1.5401 -1.8575 -0.9329
 3270TIP3   OH231224   2.556   0.819  16.493 -0.1329  0.0632 -0.2293
 3270TIP3    H131225   2.506   0.877  16.435  0.9454  1.0454 -0.2275
 3270TIP3    H231226   2.494   0.793  16.561 -0.9606  0.2567 -0.8924
 3271TIP3   OH231227   2.101   3.740  17.235  0.5400 -0.1355 -0.6449
 3271TIP3    H131228   2.019   3.722  17.189  0.0369  2.3675 -0.8679
 3271TIP3    H231229   2.167   3.737  17.166 -0.1333  2.9881 -1.6117
 3272TIP3   OH231230   4.302   4.558   4.362  0.3197  0.0819 -0.3067
 3272TIP3    H131231   4.218   4.555   4.409  0.6379 -0.9302  0.2327
 3272TIP3    H231232   4.361   4.504   4.415  1.0044 -0.1451 -1.2736
 3273TIP3   OH231233   2.417   5.396   1.287  0.5787  0.4934 -0.2526
 3273TIP3    H131234   2.482   5.341   1.331  0.0870  0.6803  0.7300
 3273TIP3    H231235   2.430   5.483   1.327  1.3613  1.1142 -1.7916
 3274TIP3   OH231236   5.878   2.998  12.312 -0.6277  0.2557  0.2035
 3274TIP3    H131237   5.957   2.945  12.305 -1.2470 -0.6515 -0.1002
 3274TIP3    H231238   5.850   3.012  12.222 -0.0979  1.7038  0.2446
 3275TIP3   OH231239   3.131   6.378   3.521 -0.5889  0.0683  0.0339
 3275TIP3    H131240   3.100   6.326   3.596 -0.2243  0.9251  0.7877
 3275TIP3    H231241   3.051   6.418   3.486 -0.4564  2.1137  1.8546
 3276TIP3   OH231242   6.516   3.484   2.451 -0.5529  0.5036  0.6488
 3276TIP3    H131243   6.434   3.442   2.424 -0.2539  0.8884 -0.9335
 3276TIP3    H231244   6.552   3.424   2.516 -0.4140 -1.4645 -1.1289
 3277TIP3   OH231245   3.963   6.745   4.072 -0.4507 -0.5537 -0.6161
 3277TIP3    H131246   4.055   6.731   4.091  0.5698  3.8171 -1.2677
 3277TIP3    H231247   3.918   6.729   4.156  1.3025  0.0205  0.4734
 3278TIP3   OH231248   5.069   6.313  12.665  0.0472  0.6583 -0.3589
 3278TIP3    H131249   5.052   6.230  12.710  0.8709  0.1802 -0.8963
 3278TIP3    H231250   5.022   6.378  12.716 -1.5869 -0.2880 -0.5892
 3279TIP3   OH231251   3.725   0.194   4.099  0.7108  0.1392 -0.0551
 3279TIP3    H131252   3.772   0.150   4.028  1.7753 -2.0597  1.8786
 3279TIP3    H231253   3.789   0.200   4.171 -0.5050  1.6934  0.9808
 3280TIP3   OH231254   6.200   1.210  14.657 -0.2132  0.8459  0.2302
 3280TIP3    H131255   6.164   1.124  14.636  1.4666  0.1466  0.0612
 3280TIP3    H231256   6.151   1.270  14.600 -0.3427 -0.1876 -0.7896
 3281TIP3   OH231257   2.879   0.309   5.870  0.1143 -0.4638  0.2268
 3281TIP3    H131258   2.873   0.213   5.873  0.2951 -0.4894 -0.2212
 3281TIP3    H231259   2.834   0.338   5.949  0.6166 -0.9477  0.6997
 3282TIP3   OH231260   1.111   2.945   0.144  0.1640 -0.8720  0.2371
 3282TIP3    H131261   1.177   3.011   0.123  0.1321 -1.0094 -0.3217
 3282TIP3    H231262   1.074   2.921   0.059  0.1265 -1.5569  0.4464
 3283TIP3   OH231263   0.771   1.356   2.163 -0.1387 -0.2274 -0.1063
 3283TIP3    H131264   0.788   1.420   2.232  0.8253 -0.6767  0.0877
 3283TIP3    H231265   0.806   1.274   2.198 -0.3726 -0.6310 -0.8039
 3284TIP3   OH231266   4.506   3.661  14.761  0.2049 -0.8891  0.4249
 3284TIP3    H131267   4.501   3.610  14.841 -1.6338  0.1849  1.0667
 3284TIP3    H231268   4.542   3.745  14.789 -4.1628  1.0503  1.1669
 3285TIP3   OH231269   1.302   2.544   3.087 -0.4356 -0.2616  0.2589
 3285TIP3    H131270   1.298   2.481   3.015  1.8151 -0.6790  0.4224
 3285TIP3    H231271   1.354   2.617   3.053  1.6016 -0.9439  1.7146
 3286TIP3   OH231272   3.818   1.113   3.434  0.1676 -0.1922  0.5623
 3286TIP3    H131273   3.903   1.129   3.475  1.3905 -2.5438 -0.8294
 3286TIP3    H231274   3.790   1.028   3.468 -0.7797 -0.2608 -0.3238
 3287TIP3   OH231275   0.822   2.041   3.185  0.6288 -0.4731 -0.2503
 3287TIP3    H131276   0.882   1.997   3.125  1.1319  0.2962 -0.3271
 3287TIP3    H231277   0.831   1.993   3.267  3.3625  1.1675  0.5405
 3288TIP3   OH231278   4.224   0.105  11.644 -0.7012  0.4502 -0.3195
 3288TIP3    H131279   4.157   0.157  11.600 -0.3922  0.0047 -1.3540
 3288TIP3    H231280   4.184   0.078  11.727 -1.9658 -0.1569 -1.1046
 3289TIP3   OH231281   5.800   0.695   2.856  0.1143  0.0052  0.1723
 3289TIP3    H131282   5.799   0.717   2.763 -0.2958 -0.5279  0.0451
 3289TIP3    H231283   5.707   0.688   2.880  0.1784  1.4787  0.9539
 3290TIP3   OH231284   5.720   5.736  11.655 -0.3598  0.7590  0.1651
 3290TIP3    H131285   5.715   5.786  11.737 -0.1794  1.7435 -0.4071
 3290TIP3    H231286   5.720   5.645  11.683 -1.3383  1.0575  1.2090
 3291TIP3   OH231287   5.677   5.323  12.972  0.5204  0.0655  0.6333
 3291TIP3    H131288   5.719   5.262  12.911  0.6565 -0.0011  0.7905
 3291TIP3    H231289   5.605   5.273  13.011 -0.4549  0.5520 -0.5057
 3292TIP3   OH231290   6.637   3.312  13.519 -0.4466  0.3111 -0.2099
 3292TIP3    H131291   6.685   3.243  13.565 -1.0440  1.3874  2.2032
 3292TIP3    H231292   6.692   3.333  13.443  0.7774 -1.3570  0.1523
 3293TIP3   OH231293   4.427   3.825  11.422  0.9969 -0.4170  0.6571
 3293TIP3    H131294   4.421   3.781  11.337 -1.0783 -0.4138  0.7644
 3293TIP3    H231295   4.337   3.834  11.451  1.4645  2.1553  1.5726
 3294TIP3   OH231296   6.652   4.415  13.270 -0.2447  0.1226 -0.1966
 3294TIP3    H131297   6.718   4.368  13.320  0.6943  0.2963 -1.2218
 3294TIP3    H231298   6.583   4.351  13.255 -0.3688 -0.0301  0.9897
 3295TIP3   OH231299   0.613   3.168  12.182 -0.1521 -0.3732 -0.0859
 3295TIP3    H131300   0.533   3.197  12.139  0.5150 -1.3415 -2.1665
 3295TIP3    H231301   0.652   3.248  12.218 -1.0771  0.4062 -0.7790
 3296TIP3   OH231302   0.393   5.013   5.579 -0.3308 -0.3963  0.1838
 3296TIP3    H131303   0.376   4.976   5.666  2.4332 -0.1489  0.9210
 3296TIP3    H231304   0.468   4.964   5.546  1.0978  2.0010 -0.3892
 3297TIP3   OH231305   2.279   4.324   3.816 -0.6606  0.3402  0.2410
 3297TIP3    H131306   2.257   4.246   3.766  0.4356  0.8115 -1.0168
 3297TIP3    H231307   2.276   4.295   3.908  2.5079 -2.0248 -0.2131
 3298TIP3   OH231308   0.904   5.675  15.812  0.1567  0.1957  0.3475
 3298TIP3    H131309   0.946   5.592  15.835  0.2789  0.4442  1.0446
 3298TIP3    H231310   0.833   5.684  15.876  1.1045  1.3684  1.2658
 3299TIP3   OH231311   3.436   4.007   3.361 -0.0746  0.4342 -0.2711
 3299TIP3    H131312   3.353   3.977   3.326 -1.0193  2.6680 -0.0834
 3299TIP3    H231313   3.427   3.999   3.456  0.5691 -0.8107 -0.2874
 3300TIP3   OH231314   1.332   6.390   0.183  0.2871  0.0315 -0.4204
 3300TIP3    H131315   1.364   6.329   0.117  0.8009  0.6639 -0.7694
 3300TIP3    H231316   1.369   6.358   0.265 -1.8206 -1.8373 -0.0931
 3301TIP3   OH231317   0.464   5.713   0.669 -0.3217  0.4424 -0.5139
 3301TIP3    H131318   0.527   5.757   0.725 -0.6228 -0.2174  0.3527
 3301TIP3    H231319   0.391   5.775   0.662 -0.5627  0.2637  0.3553
 3302TIP3   OH231320   5.038   4.128   0.209 -0.2521 -0.2865 -0.4563
 3302TIP3    H131321   5.054   4.201   0.149  0.5761 -0.4029 -0.3855
 3302TIP3    H231322   4.980   4.165   0.277  0.6550  0.4846 -0.0801
 3303TIP3   OH231323   5.864   2.093   1.285  0.3457  0.0838 -0.5536
 3303TIP3    H131324   5.785   2.051   1.252 -0.3947  1.5372 -0.7202
 3303TIP3    H231325   5.870   2.064   1.376 -1.5168  1.4652  0.0647
 3304TIP3   OH231326   1.972   6.407  11.631  0.1327  0.4504  0.7461
 3304TIP3    H131327   1.884   6.440  11.611  0.3275  0.5385  0.0018
 3304TIP3    H231328   1.981   6.328  11.578  0.6982  0.7322  0.4103
 3305TIP3   OH231329   4.267   2.243  16.116 -0.2801 -0.1266  0.8637
 3305TIP3    H131330   4.296   2.179  16.052 -0.6857 -0.5459  1.0893
 3305TIP3    H231331   4.311   2.325  16.091  0.0352 -0.4306  0.4211
 3306TIP3   OH231332   2.431   0.326  15.469 -0.2120  0.0225  0.0056
 3306TIP3    H131333   2.447   0.329  15.375 -1.5875 -3.0307 -0.4492
 3306TIP3    H231334   2.364   0.392  15.485  0.2945  0.8191 -1.0615
 3307TIP3   OH231335   1.664   2.063  15.656 -0.2057 -0.4683  0.7542
 3307TIP3    H131336   1.643   2.007  15.730 -2.8328  0.9450  1.2313
 3307TIP3    H231337   1.589   2.054  15.597  0.4532  0.6568 -0.3118
 3308TIP3   OH231338   3.097   0.130  15.059  0.3836 -0.0512 -0.1690
 3308TIP3    H131339   3.135   0.195  15.001 -0.0355 -0.1635 -0.5797
 3308TIP3    H231340   3.168   0.104  15.117  0.6676  0.4473 -0.2908
 3309TIP3   OH231341   2.038   0.650   1.992  0.5749  0.1551 -0.9451
 3309TIP3    H131342   2.118   0.613   2.029 -0.4162 -1.3839 -0.2294
 3309TIP3    H231343   2.008   0.584   1.929  0.2349  1.0349 -1.7244
 3310TIP3   OH231344   5.385   1.728  12.185 -0.5745 -0.1782  0.4951
 3310TIP3    H131345   5.382   1.712  12.279 -0.5807  1.2083  0.7464
 3310TIP3    H231346   5.385   1.640  12.146  0.4162 -0.8018  1.8062
 3311TIP3   OH231347   4.199   5.658  12.826 -0.1220 -0.3347 -0.2611
 3311TIP3    H131348   4.278   5.659  12.772  0.0480 -1.4117 -0.0622
 3311TIP3    H231349   4.131   5.698  12.772  0.4656  0.2412 -0.5834
 3312TIP3   OH231350   5.787   5.130   1.615  0.5699 -0.5724  0.0294
 3312TIP3    H131351   5.723   5.068   1.581  0.6283 -0.1719 -0.8387
 3312TIP3    H231352   5.818   5.178   1.538 -0.4673  1.4786  0.7941
 3313TIP3   OH231353   2.837   1.612   5.078  0.0590  0.1016  0.1262
 3313TIP3    H131354   2.826   1.680   5.144  2.8303  0.2921  0.4903
 3313TIP3    H231355   2.840   1.530   5.127 -1.2622 -0.1388 -0.1371
 3314TIP3   OH231356   0.839   2.025   5.405  0.0413  0.7152 -0.5676
 3314TIP3    H131357   0.831   1.986   5.318 -0.0938  1.2462 -0.7950
 3314TIP3    H231358   0.856   2.117   5.388 -0.6464  0.9451 -0.0246
 3315TIP3   OH231359   0.548   6.221   2.332  0.3164 -0.3605  0.1335
 3315TIP3    H131360   0.611   6.291   2.315  0.6276 -0.8893 -0.9764
 3315TIP3    H231361   0.570   6.153   2.268 -0.8488 -0.9007  0.2850
 3316TIP3   OH231362   6.195   3.105   1.559 -0.1189  0.0931 -0.1358
 3316TIP3    H131363   6.106   3.091   1.593 -0.0441 -1.3869 -0.4790
 3316TIP3    H231364   6.202   3.044   1.485  1.2505  0.0532  0.0065
 3317TIP3   OH231365   1.807   2.761  15.806 -0.3372  1.2484  0.6970
 3317TIP3    H131366   1.784   2.850  15.781 -1.8347  0.8035  0.3717
 3317TIP3    H231367   1.741   2.706  15.762  0.5269 -0.0163  0.9158
 3318TIP3   OH231368   3.473   5.257  15.960  0.1051  0.2789  0.1748
 3318TIP3    H131369   3.410   5.229  16.026 -1.8005  1.6777 -0.9256
 3318TIP3    H231370   3.460   5.352  15.954  2.2074  0.5829 -0.2617
 3319TIP3   OH231371   6.437   2.080  15.932  0.0432  0.0452  0.2480
 3319TIP3    H131372   6.442   2.160  15.984 -1.9019 -0.0769  0.6896
 3319TIP3    H231373   6.507   2.024  15.968 -0.6378  0.3253  2.1084
 3320TIP3   OH231374   0.176   2.255  15.495 -0.0944  0.4027  0.1962
 3320TIP3    H131375   0.112   2.263  15.565 -0.3020  3.0951 -0.2020
 3320TIP3    H231376   0.251   2.306  15.525  0.0949  0.9843 -1.1740
 3321TIP3   OH231377   3.255   0.734   2.573 -0.3772 -0.3239 -0.0926
 3321TIP3    H131378   3.288   0.786   2.499 -2.1771  0.8758 -0.1160
 3321TIP3    H231379   3.310   0.760   2.647 -1.0779  1.4930 -0.1572
 3322TIP3   OH231380   2.037   0.413   4.712 -0.1243 -0.3675 -0.3845
 3322TIP3    H131381   1.996   0.366   4.639 -0.5457  0.4242 -0.6689
 3322TIP3    H231382   1.974   0.405   4.784 -0.0299 -0.5510 -0.3225
 3323TIP3   OH231383   6.785   5.651   5.939 -0.1703  0.1728  0.0617
 3323TIP3    H131384   6.858   5.713   5.933  0.2963 -0.4709 -1.3529
 3323TIP3    H231385   6.826   5.566   5.955 -0.5129 -0.3198 -1.5035
 3324TIP3   OH231386   0.118   1.933   6.154  0.3300  0.8355 -0.0646
 3324TIP3    H131387   0.149   1.843   6.146 -0.9024  0.5441 -2.3144
 3324TIP3    H231388   0.192   1.981   6.193  1.1680 -1.0249  0.7485
 3325TIP3   OH231389   4.798   3.568  14.813  0.3661 -0.0932 -0.2153
 3325TIP3    H131390   4.720   3.605  14.772 -0.6953  0.1095  1.8830
 3325TIP3    H231391   4.777   3.475  14.826  1.2748 -0.4978 -1.3729
 3326TIP3   OH231392   5.431   5.038  11.288 -0.4628 -0.1395 -0.5860
 3326TIP3    H131393   5.381   5.114  11.258 -0.8457 -0.3276 -0.4259
 3326TIP3    H231394   5.425   4.975  11.216  0.1796  0.1255 -0.8814
 3327TIP3   OH231395   5.839   1.409  14.698  0.0212  0.1120 -0.1566
 3327TIP3    H131396   5.799   1.333  14.656 -0.0131  0.3284 -0.5148
 3327TIP3    H231397   5.804   1.407  14.787 -0.5163  0.0985 -0.3620
 3328TIP3   OH231398   5.667   2.879  14.124  0.0235  0.2794 -0.5325
 3328TIP3    H131399   5.661   2.955  14.182 -0.2423 -0.5393  0.5317
 3328TIP3    H231400   5.703   2.809  14.178 -0.9251 -0.7170 -1.1407
 3329TIP3   OH231401   3.688   4.083  16.829  0.1484  0.2251  0.0336
 3329TIP3    H131402   3.778   4.112  16.837  0.4270 -0.0419 -1.6416
 3329TIP3    H231403   3.636   4.163  16.828  0.4895  0.4438 -0.2216
 3330TIP3   OH231404   0.420   3.242  16.905  0.3305 -0.8070 -0.6846
 3330TIP3    H131405   0.447   3.157  16.942  0.2279 -0.1392  1.0069
 3330TIP3    H231406   0.332   3.257  16.941  0.3722  0.0350 -0.9161
 3331TIP3   OH231407   0.007   4.519  15.904 -0.4417  0.5251  0.5169
 3331TIP3    H131408  -0.086   4.506  15.922 -0.4948  0.7335  0.4016
 3331TIP3    H231409   0.031   4.595  15.958 -0.1730  0.0528  1.0734
 3332TIP3   OH231410   4.317   2.437   2.351  0.1755 -0.0733  0.4971
 3332TIP3    H131411   4.387   2.390   2.307 -0.5065  1.0580 -2.0161
 3332TIP3    H231412   4.236   2.401   2.314 -0.4194  1.2881  0.3902
 3333TIP3   OH231413   6.723   6.025  15.008  0.1212  0.1182 -0.4376
 3333TIP3    H131414   6.761   6.057  15.090  2.8981 -0.1636 -1.5105
 3333TIP3    H231415   6.648   6.082  14.993  1.8178  2.7289  0.3615
 3334TIP3   OH231416   3.995   5.496  14.476  0.3691 -0.5756  0.2035
 3334TIP3    H131417   3.966   5.545  14.399  0.5412  0.0197  0.5108
 3334TIP3    H231418   4.005   5.563  14.544  2.0072 -0.8218  0.2321
 3335TIP3   OH231419   2.105   6.442   1.016 -0.0691  0.7418  0.1587
 3335TIP3    H131420   2.178   6.384   0.996 -0.4092  0.1103  0.7019
 3335TIP3    H231421   2.052   6.443   0.937  0.8000  1.6465 -0.4408
 3336TIP3   OH231422   6.027   0.288  12.000 -0.0293  0.5847 -0.1400
 3336TIP3    H131423   5.947   0.322  11.960  0.0604  1.1996  0.1837
 3336TIP3    H231424   6.027   0.325  12.088  0.6188  0.6068 -0.1417
 3337TIP3   OH231425   0.183   2.997   3.959 -0.4920 -0.2238  0.1780
 3337TIP3    H131426   0.255   3.050   3.924 -2.2125  3.0345  1.1385
 3337TIP3    H231427   0.226   2.933   4.015  1.7294  1.5202  0.6263
 3338TIP3   OH231428   6.258   2.105  15.268  0.3440  0.0417  0.1739
 3338TIP3    H131429   6.188   2.096  15.202  1.9901  1.3461 -1.9118
 3338TIP3    H231430   6.314   2.029  15.255  1.7989  1.2944 -1.5169
 3339TIP3   OH231431   3.374   4.648   5.263  0.6808 -0.0162 -0.5876
 3339TIP3    H131432   3.372   4.588   5.337  2.0229 -2.8438 -2.6432
 3339TIP3    H231433   3.283   4.675   5.251  0.1473 -1.0672  0.8846
 3340TIP3   OH231434   3.471   5.683   3.884  0.5623 -0.5149  0.1428
 3340TIP3    H131435   3.508   5.618   3.825  0.2725 -1.7715  1.2929
 3340TIP3    H231436   3.519   5.671   3.966 -1.9761 -1.8885  1.5467
 3341TIP3   OH231437   1.866   1.406  11.625  0.0070  0.1881  0.1104
 3341TIP3    H131438   1.921   1.484  11.627 -1.0649  0.9638  1.8863
 3341TIP3    H231439   1.776   1.440  11.618 -0.5824 -0.7576  2.1620
 3342TIP3   OH231440   1.447   1.663   5.018 -0.0870  0.4557  0.2989
 3342TIP3    H131441   1.415   1.617   4.940  0.3621 -0.0314  0.3887
 3342TIP3    H231442   1.464   1.593   5.081 -0.3703  0.8441  0.8026
 3343TIP3   OH231443   2.247   5.278  10.603 -0.0717  0.3011  0.1070
 3343TIP3    H131444   2.151   5.277  10.605 -0.0709 -1.1963  0.4169
 3343TIP3    H231445   2.270   5.221  10.530  0.5831  0.2223  0.3669
 3344TIP3   OH231446   1.624   1.473  10.551  0.2828  1.1343 -0.4745
 3344TIP3    H131447   1.697   1.493  10.492  0.9695  0.9460  0.3037
 3344TIP3    H231448   1.610   1.379  10.540  0.7624  0.9968  0.0473
 3345TIP3   OH231449   4.460   4.166   0.792 -0.2866  0.2751 -0.2931
 3345TIP3    H131450   4.420   4.183   0.707  0.8378 -1.5498 -1.2659
 3345TIP3    H231451   4.515   4.242   0.809  0.4454  0.1259 -1.8223
 3346TIP3   OH231452   2.666   1.656  15.671 -0.1575 -0.3440 -0.5083
 3346TIP3    H131453   2.749   1.656  15.623 -1.1231  0.2404 -2.2938
 3346TIP3    H231454   2.600   1.660  15.603 -1.7227 -1.9719  0.8312
 3347TIP3   OH231455   2.145   2.018   1.161  0.0670 -0.0646 -0.2155
 3347TIP3    H131456   2.194   2.100   1.148  0.1204 -0.0537  0.0557
 3347TIP3    H231457   2.110   2.025   1.250 -0.3713 -0.1025 -0.3846
 3348TIP3   OH231458   2.751   0.459   5.203  0.1121 -0.3640  0.6967
 3348TIP3    H131459   2.804   0.419   5.271  0.0047  1.4370  1.9161
 3348TIP3    H231460   2.686   0.392   5.181  1.2925 -1.6580  0.9997
 3349TIP3   OH231461   2.188   0.150   5.512 -0.3506  0.3425  0.1228
 3349TIP3    H131462   2.155   0.069   5.551  0.3951  0.5500  1.2483
 3349TIP3    H231463   2.119   0.214   5.528 -1.2478 -0.2167 -1.4002
 3350TIP3   OH231464   6.189   3.275   5.292  0.1939 -0.2210  0.3715
 3350TIP3    H131465   6.220   3.366   5.284 -1.6590  0.4313  0.0465
 3350TIP3    H231466   6.144   3.272   5.376 -1.0086 -0.4194 -0.2672
 3351TIP3   OH231467   6.289   6.772   2.863 -0.2878  0.3616  0.3092
 3351TIP3    H131468   6.347   6.840   2.896  0.8309 -1.7050  3.0008
 3351TIP3    H231469   6.226   6.758   2.933 -0.6891 -1.1100 -0.3014
 3352TIP3   OH231470   4.268   3.762  11.760 -0.3402  0.6496 -0.3220
 3352TIP3    H131471   4.237   3.780  11.672  0.1299 -0.1725 -0.6636
 3352TIP3    H231472   4.349   3.713  11.748 -0.8217 -0.4163  0.5579
 3353TIP3   OH231473   5.448   4.141  13.947 -0.2362  0.0953 -0.5659
 3353TIP3    H131474   5.513   4.154  14.016 -2.3197  0.5224  1.4574
 3353TIP3    H231475   5.482   4.067  13.895  0.4373 -1.7192  2.2313
 3354TIP3   OH231476   0.506   6.541   5.488 -0.2075  0.0790 -0.4309
 3354TIP3    H131477   0.475   6.451   5.482  0.4237 -0.0608 -2.2385
 3354TIP3    H231478   0.514   6.557   5.582  0.7130 -2.1196 -0.0717
 3355TIP3   OH231479   0.822   1.812  14.589  0.0008  0.0011  0.3956
 3355TIP3    H131480   0.788   1.897  14.617 -0.4601  0.3438 -1.0806
 3355TIP3    H231481   0.744   1.761  14.567  0.3067 -0.5056  0.4646
 3356TIP3   OH231482   2.336   0.613  16.127  0.0188  0.2659  0.2770
 3356TIP3    H131483   2.387   0.620  16.046 -2.0047  0.8706 -1.0162
 3356TIP3    H231484   2.329   0.518  16.142 -0.5788  0.1055 -0.9271
 3357TIP3   OH231485   3.071   5.499   4.399  0.1597 -0.1214 -0.4149
 3357TIP3    H131486   3.093   5.538   4.314 -0.7588  0.7594 -0.2742
 3357TIP3    H231487   3.139   5.531   4.458  0.1693  0.1739 -0.5838
 3358TIP3   OH231488   5.758   5.228  15.672 -0.1798  0.7957  0.5353
 3358TIP3    H131489   5.791   5.186  15.593 -1.9472 -0.4163  0.3772
 3358TIP3    H231490   5.773   5.164  15.742  1.6061  1.9572  1.2874
 3359TIP3   OH231491   3.641   3.472  12.844  0.3614 -0.1665  0.1959
 3359TIP3    H131492   3.642   3.556  12.798 -0.5283  0.1532  0.7205
 3359TIP3    H231493   3.705   3.418  12.798 -0.0507  0.3448 -1.0281
 3360TIP3   OH231494   6.718   2.605   1.044 -0.0140  0.0410  0.1453
 3360TIP3    H131495   6.676   2.687   1.020  0.6588  0.5108  0.5652
 3360TIP3    H231496   6.757   2.573   0.962  0.9732  0.8762  0.2800
 3361TIP3   OH231497   5.099   3.821  10.497 -0.2662  0.1881  0.1907
 3361TIP3    H131498   5.027   3.763  10.472 -0.1833  1.1562 -2.5518
 3361TIP3    H231499   5.178   3.769  10.484 -0.3475 -0.2658  1.3989
 3362TIP3   OH231500   0.317   1.190   2.782 -0.1876  0.4772  0.3236
 3362TIP3    H131501   0.324   1.130   2.855 -0.6357 -2.0288 -1.5606
 3362TIP3    H231502   0.406   1.222   2.767  0.8284 -2.5443 -0.7703
 3363TIP3   OH231503   2.142   0.071  15.926 -0.1065 -0.1416  0.3290
 3363TIP3    H131504   2.236   0.080  15.942  0.1369 -0.4209 -0.8404
 3363TIP3    H231505   2.103   0.145  15.973  0.8352  0.7895 -0.3052
 3364TIP3   OH231506   4.581   1.645   2.026 -0.0308  0.1007  0.4937
 3364TIP3    H131507   4.536   1.615   1.947  0.9715 -0.5907  0.1768
 3364TIP3    H231508   4.655   1.586   2.036 -1.5105 -1.5002  3.3955
 3365TIP3   OH231509   5.564   0.265   3.566  0.5331 -0.7732 -0.0239
 3365TIP3    H131510   5.501   0.227   3.504  0.6573 -0.3361 -0.4219
 3365TIP3    H231511   5.513   0.326   3.618  0.7343  0.0268 -0.7424
 3366TIP3   OH231512   1.326   6.631  13.912  0.1347  0.6354  0.4948
 3366TIP3    H131513   1.359   6.696  13.850 -1.1465  0.5572 -0.3086
 3366TIP3    H231514   1.298   6.557  13.858  0.8203 -0.2673  1.3367
 3367TIP3   OH231515   2.059   4.096   1.499 -0.1888  0.0080 -0.4444
 3367TIP3    H131516   2.154   4.107   1.494 -0.3656  1.6636 -0.9524
 3367TIP3    H231517   2.046   4.019   1.554  1.4527 -1.1804 -1.6254
 3368TIP3   OH231518   5.405   4.127  16.791  0.3894  0.8729  0.1453
 3368TIP3    H131519   5.466   4.177  16.845  0.0625  1.7530 -0.2785
 3368TIP3    H231520   5.448   4.120  16.706  0.8619 -0.4300  0.4658
 3369TIP3   OH231521   4.981   3.413   3.539  0.2534 -0.0383  0.3403
 3369TIP3    H131522   4.910   3.428   3.477  1.4871  2.0771 -0.7017
 3369TIP3    H231523   4.951   3.453   3.620  0.1861  0.7287 -0.0552
 3370TIP3   OH231524   1.115   5.813   6.367  0.0239  0.3846  0.3352
 3370TIP3    H131525   1.199   5.844   6.400  0.4851 -0.1053 -0.3569
 3370TIP3    H231526   1.078   5.762   6.439  0.2940  0.6454  0.6598
 3371TIP3   OH231527   2.691   5.426  14.034  0.0487 -0.3187  0.7451
 3371TIP3    H131528   2.601   5.405  14.007  0.0896 -0.1132  0.4402
 3371TIP3    H231529   2.712   5.507  13.987  0.8348 -1.0356 -0.1960
 3372TIP3   OH231530   6.024   0.743   4.834  0.6512 -0.2919  0.4968
 3372TIP3    H131531   6.038   0.785   4.919  2.4407 -1.7846  1.0169
 3372TIP3    H231532   6.032   0.649   4.853  1.2707 -0.6473 -1.3529
 3373TIP3   OH231533   2.532   5.229  12.037 -0.1579  0.0945  0.4506
 3373TIP3    H131534   2.466   5.159  12.046  0.3168 -0.5687 -0.9870
 3373TIP3    H231535   2.592   5.196  11.971 -0.0599  1.9958 -0.4466
 3374TIP3   OH231536   6.272   1.410  15.576 -0.2059  0.0050  0.1357
 3374TIP3    H131537   6.355   1.437  15.536  0.5404 -0.6953  1.1449
 3374TIP3    H231538   6.297   1.379  15.663 -1.8155  2.1665  1.4747
 3375TIP3   OH231539   0.246   3.718   4.048  0.3511 -0.5685  0.0190
 3375TIP3    H131540   0.235   3.804   4.009  0.4609 -0.8765 -0.7122
 3375TIP3    H231541   0.272   3.661   3.975 -0.2972 -1.3447  0.3673
 3376TIP3   OH231542   3.210   2.919   1.184  0.3578 -0.3697  0.4175
 3376TIP3    H131543   3.245   2.899   1.098  0.9022 -0.0206  0.5547
 3376TIP3    H231544   3.286   2.919   1.242 -0.1941 -2.2015  1.2170
 3377TIP3   OH231545   4.149   4.411  11.674 -0.7492  0.0553  0.2189
 3377TIP3    H131546   4.131   4.483  11.734 -1.1523  0.4772 -0.3869
 3377TIP3    H231547   4.135   4.449  11.587  0.6814 -0.2846 -0.1856
 3378TIP3   OH231548   5.786   2.124   0.340 -0.3225 -0.0419  0.2018
 3378TIP3    H131549   5.704   2.172   0.325 -1.2195 -1.3811  0.6312
 3378TIP3    H231550   5.758   2.040   0.377  1.1382 -1.1726 -1.1221
 3379TIP3   OH231551   5.124   5.250   0.648  0.4219 -0.3584 -0.6677
 3379TIP3    H131552   5.093   5.192   0.718 -0.0327  2.6631  1.8724
 3379TIP3    H231553   5.045   5.271   0.598  0.2137 -0.3987 -0.3602
 3380TIP3   OH231554   6.432   4.234  13.211  0.2149  0.2712 -0.2014
 3380TIP3    H131555   6.498   4.190  13.157  1.2625  1.1175  0.3516
 3380TIP3    H231556   6.357   4.244  13.153  0.0700 -1.8818 -0.4499
 3381TIP3   OH231557   2.744   3.953   0.733  0.1681 -0.0965 -0.1177
 3381TIP3    H131558   2.707   3.891   0.796  1.5851 -2.6232 -1.5910
 3381TIP3    H231559   2.800   4.010   0.784  0.1920 -1.1726  1.0892
 3382TIP3   OH231560   5.885   6.545   3.365 -0.0384 -0.0817  0.5608
 3382TIP3    H131561   5.829   6.467   3.370  1.1498 -0.9635  0.4616
 3382TIP3    H231562   5.892   6.575   3.456  0.2730 -0.6558  0.7294
 3383TIP3   OH231563   6.428   6.135   4.614 -0.2355 -0.6076 -0.8552
 3383TIP3    H131564   6.421   6.094   4.700  0.2565 -1.4877 -1.2236
 3383TIP3    H231565   6.516   6.173   4.612 -1.1280  1.7025 -0.0113
 3384TIP3   OH231566   5.964   4.046  14.711 -0.5110  0.1848  0.0115
 3384TIP3    H131567   6.059   4.049  14.698 -0.4985  2.6224  0.0427
 3384TIP3    H231568   5.953   4.050  14.806 -0.6177  1.4086 -0.0380
 3385TIP3   OH231569   3.990   3.964  12.286 -0.3581  0.0036  0.1643
 3385TIP3    H131570   3.946   4.005  12.361 -0.9357  4.9976 -2.5167
 3385TIP3    H231571   4.083   3.974  12.306 -0.4900  0.3832  0.6152
 3386TIP3   OH231572   3.818   4.194  11.497  0.0112  0.2187 -0.5749
 3386TIP3    H131573   3.914   4.186  11.499  0.1152  1.2848  0.5523
 3386TIP3    H231574   3.793   4.195  11.589 -1.0403  0.4460 -0.8558
 3387TIP3   OH231575   0.852   2.344  14.125  0.1753  0.8067 -0.2008
 3387TIP3    H131576   0.920   2.287  14.088 -0.4105 -0.1263  0.1131
 3387TIP3    H231577   0.892   2.381  14.203 -0.1041 -0.8437  0.7806
 3388TIP3   OH231578   5.441   0.670  12.316 -0.0433 -0.6629  0.2458
 3388TIP3    H131579   5.491   0.700  12.392 -0.3117 -0.8232  0.4881
 3388TIP3    H231580   5.503   0.676  12.243  1.1009 -3.0317  0.9089
 3389TIP3   OH231581   3.893   1.308  15.616 -0.4084 -0.5519 -0.2189
 3389TIP3    H131582   3.944   1.385  15.642  1.3983 -2.0101  0.7464
 3389TIP3    H231583   3.876   1.322  15.523  1.3770  0.2320 -0.4782
 3390TIP3   OH231584   1.807   5.536   1.977 -0.2809  0.1839 -0.1844
 3390TIP3    H131585   1.723   5.578   1.999 -0.3397 -0.3570  0.6959
 3390TIP3    H231586   1.871   5.607   1.980 -0.5581  0.4253  0.1423
 3391TIP3   OH231587   2.569   4.940  15.619  0.2951 -0.1836  0.0016
 3391TIP3    H131588   2.520   5.022  15.621 -0.5750 -0.6253 -1.6427
 3391TIP3    H231589   2.509   4.875  15.654  1.0846 -0.1155  1.5793
 3392TIP3   OH231590   5.847   0.490  15.855 -0.0677  0.0581  0.0025
 3392TIP3    H131591   5.778   0.425  15.841  1.3936 -0.9918 -3.7282
 3392TIP3    H231592   5.902   0.453  15.924 -0.0485 -2.0960 -1.0783
 3393TIP3   OH231593   5.106   2.611  11.971  0.1154 -0.2567 -0.5418
 3393TIP3    H131594   5.082   2.704  11.973  0.0110 -0.2314  2.3158
 3393TIP3    H231595   5.201   2.611  11.980  0.0955 -0.3945 -0.3088
 3394TIP3   OH231596   5.170   4.892   2.786 -0.1589 -0.2474  0.2684
 3394TIP3    H131597   5.250   4.914   2.739 -0.7269 -0.6182 -0.9066
 3394TIP3    H231598   5.184   4.926   2.875  1.4316 -0.6337  0.1854
 3395TIP3   OH231599   6.740   0.034   0.409 -0.2424 -0.8210 -0.0004
 3395TIP3    H131600   6.713  -0.033   0.345  1.8474 -2.5663  0.8483
 3395TIP3    H231601   6.775   0.105   0.355 -0.3679 -1.3880 -0.8629
 3396TIP3   OH231602   0.102   4.918  16.599  0.0131  0.4272  0.4156
 3396TIP3    H131603   0.036   4.871  16.651 -0.6628  0.9922  0.0865
 3396TIP3    H231604   0.054   4.991  16.560 -0.1089 -1.2161 -2.8834
 3397TIP3   OH231605   1.954   0.990   0.615  0.0243  0.0912 -0.3016
 3397TIP3    H131606   2.001   0.916   0.576  1.0332  1.3466 -1.5485
 3397TIP3    H231607   1.930   1.045   0.541 -0.3617  1.2290  0.6376
 3398TIP3   OH231608   5.888   4.369  13.321 -0.6162  0.4226 -0.5231
 3398TIP3    H131609   5.865   4.319  13.399  0.3930 -0.3154 -0.6715
 3398TIP3    H231610   5.921   4.303  13.259 -0.0429  1.1635 -1.0319
 3399TIP3   OH231611   3.524   5.732   3.253  0.2603  0.2100 -0.0756
 3399TIP3    H131612   3.542   5.715   3.346  0.0240 -0.0201 -0.0712
 3399TIP3    H231613   3.473   5.813   3.254 -1.2220 -0.6835  0.1329
 3400TIP3   OH231614   4.845   3.506  14.110 -0.1702  0.3989  0.6339
 3400TIP3    H131615   4.762   3.514  14.062  0.9050 -0.6413 -1.5737
 3400TIP3    H231616   4.827   3.445  14.181 -1.1041 -0.5939 -0.4155
 3401TIP3   OH231617   1.937   5.745   5.364 -0.0664 -0.0561  0.4339
 3401TIP3    H131618   1.884   5.816   5.326  0.6171 -0.4466 -1.3585
 3401TIP3    H231619   2.027   5.774   5.351  0.2175  0.0417  2.3523
 3402TIP3   OH231620   2.782   6.522   1.884 -0.3349 -0.3846  0.0370
 3402TIP3    H131621   2.793   6.458   1.954 -2.2034 -0.2796  0.4966
 3402TIP3    H231622   2.737   6.474   1.815  0.0101 -0.0568 -0.4224
 3403TIP3   OH231623   5.855   5.500  12.827 -0.1916 -0.1575 -0.1201
 3403TIP3    H131624   5.795   5.449  12.881 -0.6401  0.6611  0.1759
 3403TIP3    H231625   5.843   5.466  12.739 -1.0694 -0.0320 -0.0582
 3404TIP3   OH231626   6.471   0.642  13.008  0.1268  0.1590  0.2153
 3404TIP3    H131627   6.497   0.728  12.976 -1.4378  0.2482 -0.8984
 3404TIP3    H231628   6.553   0.601  13.035  1.3862  0.6836 -2.4840
 3405TIP3   OH231629   5.487   6.093   0.244  0.0602  0.1620  0.6337
 3405TIP3    H131630   5.423   6.049   0.300  0.9124 -0.3522  1.2262
 3405TIP3    H231631   5.501   6.179   0.285 -2.3871  1.5217 -1.0915
 3406TIP3   OH231632   5.939   4.337   6.291  0.6022  0.3061  0.0847
 3406TIP3    H131633   5.866   4.377   6.245  1.2132  2.0677  0.5503
 3406TIP3    H231634   5.905   4.254   6.325 -0.4146 -0.1004 -1.8073
 3407TIP3   OH231635   3.889   1.005  15.626 -0.4585 -0.1209 -0.2349
 3407TIP3    H131636   3.903   1.099  15.633 -2.0072  0.0610  0.9237
 3407TIP3    H231637   3.829   0.995  15.552 -0.4387 -0.1860 -0.2420
 3408TIP3   OH231638   1.145   2.978   6.445  0.0001  0.5755 -0.5314
 3408TIP3    H131639   1.164   2.892   6.406  0.9059  0.0793  0.9007
 3408TIP3    H231640   1.053   2.994   6.425 -0.3470 -1.0047 -0.3308
 3409TIP3   OH231641   5.442   3.387   1.400  0.2139  0.7465 -0.3190
 3409TIP3    H131642   5.415   3.335   1.325 -0.2989  0.0179  0.3608
 3409TIP3    H231643   5.488   3.326   1.457 -0.5224  0.9794  0.5550
 3410TIP3   OH231644   3.371   2.124  12.879  0.8909 -0.2370  0.0931
 3410TIP3    H131645   3.289   2.163  12.909  1.9664  0.4024  2.4539
 3410TIP3    H231646   3.353   2.097  12.789 -1.2729  1.6771 -0.1529
 3411TIP3   OH231647   5.207   3.162  12.534 -0.1137  0.4067 -0.2394
 3411TIP3    H131648   5.242   3.160  12.623 -0.3994  0.4846 -0.1258
 3411TIP3    H231649   5.255   3.092  12.488 -1.4831 -1.1122  0.5400
 3412TIP3   OH231650   5.550   4.624   2.593 -0.2739 -0.3908 -0.1169
 3412TIP3    H131651   5.588   4.711   2.578 -0.1083 -0.3040  0.7616
 3412TIP3    H231652   5.508   4.602   2.510  0.3935  0.1706 -0.6125
 3413TIP3   OH231653   1.524   0.398   1.158 -0.6622 -0.0984  0.1731
 3413TIP3    H131654   1.535   0.411   1.252  0.2938  0.3012  0.0259
 3413TIP3    H231655   1.612   0.410   1.122 -1.0715  0.0924 -0.8111
 3414TIP3   OH231656   0.267   2.057   2.618  0.4183  0.4932  0.2685
 3414TIP3    H131657   0.325   2.131   2.634 -0.1383  1.2140 -0.9228
 3414TIP3    H231658   0.326   1.982   2.610  1.0638  0.9607  0.5623
 3415TIP3   OH231659   4.550   2.002  15.964  0.0269 -0.3961  0.2284
 3415TIP3    H131660   4.629   1.955  15.939  0.2458  0.6021 -1.0486
 3415TIP3    H231661   4.483   1.971  15.903 -0.2780 -0.4086  0.5673
 3416TIP3   OH231662   0.925   4.428   1.089 -0.3290  0.5816  0.4714
 3416TIP3    H131663   0.981   4.378   1.029 -1.6094  0.6418 -0.8143
 3416TIP3    H231664   0.918   4.373   1.167  0.1562 -0.1914 -0.0147
 3417TIP3   OH231665   4.994   4.683  13.193 -0.3903 -0.3372  0.0087
 3417TIP3    H131666   4.959   4.596  13.213  0.3967 -0.4612  0.9447
 3417TIP3    H231667   5.038   4.710  13.274 -1.4545  1.3540  0.0822
 3418TIP3   OH231668   0.525   6.439  14.364 -0.2387 -0.2059 -0.6160
 3418TIP3    H131669   0.534   6.462  14.271  0.2477  1.0332 -0.2776
 3418TIP3    H231670   0.521   6.343  14.364  2.6503 -0.4283 -1.7022
 3419TIP3   OH231671   2.254   6.392   5.350 -0.1800 -0.0774  0.2136
 3419TIP3    H131672   2.233   6.483   5.373 -1.2185 -0.3295  0.2992
 3419TIP3    H231673   2.177   6.360   5.304 -0.4590 -1.3944  1.5287
 3420TIP3   OH231674   3.309   3.143   3.079  0.0145  0.3400  0.6302
 3420TIP3    H131675   3.354   3.211   3.129 -1.3823 -0.1785  2.7016
 3420TIP3    H231676   3.377   3.078   3.060  1.3347  2.1198 -1.2298
 3421TIP3   OH231677   3.966   4.741  16.615 -0.0817  0.3777 -0.3735
 3421TIP3    H131678   4.038   4.737  16.678 -0.1102 -1.4785 -0.3879
 3421TIP3    H231679   4.003   4.784  16.538 -0.0060  2.5407  0.8064
 3422TIP3   OH231680   0.707   6.491   2.775  0.5044  0.0759 -0.7591
 3422TIP3    H131681   0.790   6.462   2.736  1.9695  0.8257  1.5688
 3422TIP3    H231682   0.714   6.464   2.867 -0.0921  3.4832  0.4223
 3423TIP3   OH231683   1.557   0.971  11.887  0.1291  0.4937  0.7598
 3423TIP3    H131684   1.628   0.908  11.904  0.1609  0.2542 -0.2077
 3423TIP3    H231685   1.493   0.921  11.836 -0.1590  1.0597  0.5654
 3424TIP3   OH231686   5.536   5.780   3.368 -0.5951  0.4963 -0.0207
 3424TIP3    H131687   5.449   5.802   3.336 -0.0182  0.2611 -1.8327
 3424TIP3    H231688   5.596   5.834   3.316  0.4215 -0.3233  0.2579
 3425TIP3   OH231689   4.443   4.616  15.242  0.3515 -0.0923 -0.2301
 3425TIP3    H131690   4.422   4.628  15.149  1.1556 -0.0246 -0.4102
 3425TIP3    H231691   4.533   4.647  15.250  0.6714 -1.1501  0.3567
 3426TIP3   OH231692   3.545   2.689  13.625 -0.0454  0.0208  0.0412
 3426TIP3    H131693   3.611   2.704  13.557  1.9569 -0.8015  1.6666
 3426TIP3    H231694   3.487   2.622  13.588 -0.1404  0.9344 -1.5407
 3427TIP3   OH231695   1.305   0.068  15.939 -0.2550  0.2992 -0.2721
 3427TIP3    H131696   1.367   0.104  15.875  0.3952  0.5489  0.4725
 3427TIP3    H231697   1.358   0.009  15.993 -0.7528  0.2226  0.1405
 3428TIP3   OH231698   4.599   5.184  16.900 -0.2531 -0.1787  0.4072
 3428TIP3    H131699   4.617   5.211  16.990 -0.1033 -0.3641  0.4319
 3428TIP3    H231700   4.653   5.107  16.887 -1.2994 -0.9636  0.6036
 3429TIP3   OH231701   4.119   4.308   6.253  0.0382  1.0163 -0.1258
 3429TIP3    H131702   4.124   4.375   6.185 -1.6888  1.6881  0.3630
 3429TIP3    H231703   4.154   4.352   6.331  2.3888  0.1244 -0.5952
 3430TIP3   OH231704   4.647   0.960   1.969 -1.4149  0.2419  0.1742
 3430TIP3    H131705   4.643   0.870   1.999 -0.8243  0.0061 -0.4327
 3430TIP3    H231706   4.688   1.008   2.040 -3.0727  0.3328  1.1325
 3431TIP3   OH231707   0.537   2.431   1.011 -0.0765  0.5435  0.0162
 3431TIP3    H131708   0.609   2.493   1.019  0.4080  0.1264 -0.9961
 3431TIP3    H231709   0.562   2.357   1.066  1.0661 -0.3124 -1.5772
 3432TIP3   OH231710   2.416   4.262  14.590  0.0885 -0.7906  0.3185
 3432TIP3    H131711   2.454   4.341  14.550 -0.5341 -0.7482 -0.2079
 3432TIP3    H231712   2.392   4.207  14.516 -0.5350 -0.9771  0.6527
 3433TIP3   OH231713   4.032   2.305   6.512 -0.0557  0.1322  0.2642
 3433TIP3    H131714   4.069   2.291   6.599  0.2236  2.0732  0.4905
 3433TIP3    H231715   4.037   2.219   6.470  1.4940 -0.4381  1.5138
 3434TIP3   OH231716   4.178   3.464   5.919 -0.3317 -0.3228  0.6261
 3434TIP3    H131717   4.148   3.508   5.999 -1.2338 -0.3439  0.3174
 3434TIP3    H231718   4.110   3.398   5.902  0.6276 -1.3503  0.6779
 3435TIP3   OH231719   4.669   5.398   2.761 -0.0365 -0.2489 -0.3948
 3435TIP3    H131720   4.588   5.439   2.793 -0.8828 -0.5522 -2.0281
 3435TIP3    H231721   4.658   5.305   2.780 -0.6912 -0.4778 -1.7841
 3436TIP3   OH231722   5.354   5.658   1.112 -0.4944  0.3238  0.6278
 3436TIP3    H131723   5.389   5.573   1.084 -1.4411 -0.3424  1.3643
 3436TIP3    H231724   5.343   5.707   1.032 -1.9739 -1.0694 -0.0740
 3437TIP3   OH231725   1.138   3.973  11.700  0.2440 -0.5248 -0.1401
 3437TIP3    H131726   1.106   3.909  11.637 -1.2910 -0.3372  0.4174
 3437TIP3    H231727   1.070   3.979  11.766 -0.0010  2.1266 -0.4904
 3438TIP3   OH231728   2.023   5.890  12.647  0.1530 -0.1971 -0.0364
 3438TIP3    H131729   1.985   5.881  12.559 -1.5249  1.7774  0.4015
 3438TIP3    H231730   1.948   5.912  12.703  1.5856  1.5401  1.3205
 3439TIP3   OH231731   2.628   2.983  16.290 -0.0153 -0.4908 -0.3469
 3439TIP3    H131732   2.593   2.948  16.371  0.5407 -2.2112 -0.8213
 3439TIP3    H231733   2.558   2.973  16.226 -0.5762  1.1748 -0.0455
 3440TIP3   OH231734   4.980   5.876  16.730  0.5448 -0.4896 -0.0689
 3440TIP3    H131735   4.943   5.891  16.644 -1.2863 -2.2362  0.3504
 3440TIP3    H231736   4.905   5.875  16.790  1.9090  3.3383  2.0795
 3441TIP3   OH231737   3.791   5.079  16.943  0.4484  0.0848  0.3140
 3441TIP3    H131738   3.747   5.012  16.889  0.7903  0.4748 -0.4626
 3441TIP3    H231739   3.883   5.073  16.918  0.3960  1.2603 -0.2180
 3442TIP3   OH231740   4.995   3.068  12.788  0.3156  0.2734 -0.3997
 3442TIP3    H131741   5.070   3.010  12.775 -0.8042 -1.2008 -0.4795
 3442TIP3    H231742   5.027   3.134  12.849  1.9054  0.1406 -1.0141
 3443TIP3   OH231743   1.916   1.145  10.759  0.2163  0.1576 -0.4765
 3443TIP3    H131744   1.934   1.203  10.685  2.3859 -0.0022 -0.1374
 3443TIP3    H231745   1.931   1.057  10.725  1.7547  0.1125  0.2481
 3444TIP3   OH231746   0.218   2.011  12.378  0.6084 -0.0233  0.2128
 3444TIP3    H131747   0.203   2.103  12.358 -0.3280  0.1254  1.5306
 3444TIP3    H231748   0.201   1.966  12.295  2.2362  1.0684 -0.7687
 3445TIP3   OH231749   3.805   0.905  14.703 -0.5190 -0.0516 -0.2659
 3445TIP3    H131750   3.738   0.969  14.679 -1.1683 -0.5027  0.2838
 3445TIP3    H231751   3.817   0.853  14.624  1.2792  1.7863 -1.2880
 3446TIP3   OH231752   0.442   4.257   3.364  0.5107  0.1169  0.0860
 3446TIP3    H131753   0.409   4.321   3.427  1.4784  0.2431  0.4705
 3446TIP3    H231754   0.366   4.202   3.344 -0.3491  1.3898 -0.2855
 3447TIP3   OH231755   6.511   3.127   6.046  0.3559 -0.0485  0.0891
 3447TIP3    H131756   6.538   3.081   6.126 -0.6724 -0.7209  0.0675
 3447TIP3    H231757   6.416   3.119   6.045  0.3112  0.4733 -0.9080
 3448TIP3   OH231758   2.171   3.114  14.422 -0.8844  0.2219 -0.2883
 3448TIP3    H131759   2.178   3.132  14.329 -0.9441  1.4877 -0.0592
 3448TIP3    H231760   2.255   3.074  14.446 -0.6225  0.4899 -0.7552
 3449TIP3   OH231761   1.472   4.044   2.369  1.1232  0.1508 -0.0869
 3449TIP3    H131762   1.479   4.126   2.321  1.3620 -0.3244 -0.8723
 3449TIP3    H231763   1.469   4.071   2.461  0.7836  1.0601 -0.3504
 3450TIP3   OH231764   3.281   4.656  15.371 -0.1746 -0.3514  0.0896
 3450TIP3    H131765   3.223   4.705  15.313  1.7771 -0.7138 -2.3368
 3450TIP3    H231766   3.267   4.565  15.348 -1.2395 -0.7647  2.1161
 3451TIP3   OH231767   6.354   4.181  14.917  0.0181 -0.0466 -0.3570
 3451TIP3    H131768   6.412   4.258  14.920  1.3606 -0.9529 -1.5566
 3451TIP3    H231769   6.355   4.154  14.825 -1.8264 -0.4850 -0.2758
 3452TIP3   OH231770   0.631   4.343  11.363  0.6455  0.3032 -0.7068
 3452TIP3    H131771   0.543   4.381  11.361  0.6092  0.2035 -1.0351
 3452TIP3    H231772   0.632   4.280  11.291  1.5714  1.6544 -1.9441
 3453TIP3   OH231773   1.532   0.681   4.193  0.3714  0.5495  0.0654
 3453TIP3    H131774   1.500   0.631   4.268 -0.8375 -1.5325 -1.7324
 3453TIP3    H231775   1.620   0.647   4.176  0.1801  0.1561 -0.1611
 3454TIP3   OH231776   3.935   3.664  12.873 -0.2031 -0.2629 -0.4312
 3454TIP3    H131777   3.853   3.691  12.831  0.0351 -2.3220 -2.3806
 3454TIP3    H231778   4.002   3.676  12.807  1.0074  0.6835  0.9023
 3455TIP3   OH231779   0.359   5.927  15.507  0.7845  0.2814 -0.3785
 3455TIP3    H131780   0.443   5.971  15.519  2.6589 -3.2731  1.3097
 3455TIP3    H231781   0.367   5.883  15.422 -0.2404  1.4503 -1.1169
 3456TIP3   OH231782   6.720   1.465  11.417  0.4267  0.0814 -0.3428
 3456TIP3    H131783   6.732   1.387  11.363  1.2903 -0.8362  1.1116
 3456TIP3    H231784   6.687   1.432  11.500  0.7008  1.2820  0.2695
 3457TIP3   OH231785   2.702   3.998   1.108  0.9737 -0.5674  0.7057
 3457TIP3    H131786   2.655   3.915   1.110 -0.1259  0.0578  2.3308
 3457TIP3    H231787   2.701   4.029   1.199  0.3280  1.7805 -0.0320
 3458TIP3   OH231788   5.652   0.364  11.475 -0.1671  0.3384 -0.9739
 3458TIP3    H131789   5.612   0.426  11.535  1.4935 -0.2495  0.8524
 3458TIP3    H231790   5.589   0.292  11.469  0.2075 -0.2625  1.2999
 3459TIP3   OH231791   4.034   0.352   5.477  0.4217  0.0768 -0.0186
 3459TIP3    H131792   4.077   0.332   5.560  0.0903 -1.6839 -0.2240
 3459TIP3    H231793   3.949   0.387   5.501  0.3159 -0.4500  0.3938
 3460TIP3   OH231794   2.964   4.391  11.314 -1.0071  0.4989 -0.2309
 3460TIP3    H131795   3.009   4.428  11.238 -0.6260 -0.3835 -0.4427
 3460TIP3    H231796   3.032   4.381  11.380 -1.0664  0.0047 -0.2417
 3461TIP3   OH231797   5.440   3.636   1.768 -0.5376 -0.0110 -0.2465
 3461TIP3    H131798   5.473   3.691   1.839  0.5882 -1.3994  0.3374
 3461TIP3    H231799   5.347   3.657   1.764 -0.6675  0.0274  1.7336
 3462TIP3   OH231800   3.498   1.496  14.378 -0.4570  0.1133  0.0034
 3462TIP3    H131801   3.435   1.431  14.410 -2.3593  0.7698 -2.1471
 3462TIP3    H231802   3.477   1.505  14.285  1.8259  1.5526 -0.4407
 3463TIP3   OH231803   1.206   5.936  16.184 -0.1083 -0.1594 -0.1339
 3463TIP3    H131804   1.200   5.979  16.098 -1.9182 -1.1261 -0.5386
 3463TIP3    H231805   1.141   5.866  16.180 -0.1300 -0.3093  1.9891
 3464TIP3   OH231806   4.219   0.606  15.279 -0.2224 -0.0182  0.4002
 3464TIP3    H131807   4.282   0.568  15.340 -1.4710 -0.6330  1.3698
 3464TIP3    H231808   4.262   0.684  15.244  0.9630 -0.2953  1.1988
 3465TIP3   OH231809   6.755   2.675   6.483 -0.3186 -0.6207 -0.5806
 3465TIP3    H131810   6.823   2.612   6.507 -0.2987 -0.2667  0.3632
 3465TIP3    H231811   6.673   2.633   6.510 -0.2753 -0.1064  0.4171
 3466TIP3   OH231812   2.562   0.488   2.636 -0.1819  0.2953  0.1113
 3466TIP3    H131813   2.587   0.572   2.674  1.1839  0.0397 -0.1603
 3466TIP3    H231814   2.542   0.508   2.544 -0.7318  0.4546  0.2602
 3467TIP3   OH231815   3.663   2.413   1.396 -0.0705  0.2476 -0.4055
 3467TIP3    H131816   3.598   2.483   1.399  0.9846  1.2314  0.4365
 3467TIP3    H231817   3.747   2.458   1.409  0.4947 -1.3641  2.1223
 3468TIP3   OH231818   5.269   0.621  11.644  0.1724 -0.0156  0.5213
 3468TIP3    H131819   5.217   0.697  11.671  0.5331  0.6223 -0.5311
 3468TIP3    H231820   5.239   0.601  11.555  0.7987 -0.4604  0.3991
 3469TIP3   OH231821   4.617   2.288  15.118 -0.2415  0.1044  0.1528
 3469TIP3    H131822   4.568   2.241  15.051 -2.3197  1.4493  0.6127
 3469TIP3    H231823   4.692   2.326  15.072 -0.4695 -0.7370 -0.9460
 3470TIP3   OH231824   0.325   6.643  14.745  0.4633 -0.5037  0.3568
 3470TIP3    H131825   0.367   6.722  14.710  1.0578 -0.6925  0.6157
 3470TIP3    H231826   0.298   6.594  14.668 -0.1852  0.0850  0.1932
 3471TIP3   OH231827   1.279   5.924   1.488  0.2892  0.1840  0.0637
 3471TIP3    H131828   1.328   6.004   1.469  1.2726 -0.1155  1.2112
 3471TIP3    H231829   1.234   5.942   1.570  1.5771 -0.8526  1.0512
 3472TIP3   OH231830   2.113   1.089   2.529 -0.8929 -0.0843  0.2924
 3472TIP3    H131831   2.140   1.142   2.454  0.1627 -0.5582  0.3112
 3472TIP3    H231832   2.194   1.077   2.580 -1.4264 -0.4477  1.0767
 3473TIP3   OH231833   3.624   5.565  14.339 -0.4452 -0.2934  0.3001
 3473TIP3    H131834   3.551   5.625  14.323  0.2666  1.0464  1.7926
 3473TIP3    H231835   3.637   5.567  14.434  1.4350 -0.6241  0.0932
 3474TIP3   OH231836   1.423   6.646  12.349 -0.3123 -0.3576  0.2482
 3474TIP3    H131837   1.420   6.680  12.259 -1.6357 -1.2838 -0.0851
 3474TIP3    H231838   1.492   6.581  12.347 -0.1318 -0.1620 -0.0179
 3475TIP3   OH231839   0.124   0.940  15.773  0.3251  0.6989 -0.3311
 3475TIP3    H131840   0.141   0.848  15.790 -0.9220  0.4433 -0.3635
 3475TIP3    H231841   0.090   0.943  15.684 -1.3335  0.9181  0.2553
 3476TIP3   OH231842   2.559   2.277   3.144 -0.2115 -0.2788  1.3551
 3476TIP3    H131843   2.535   2.235   3.062 -0.7613 -1.1784  1.9540
 3476TIP3    H231844   2.557   2.206   3.209  0.2889  0.3921  2.1307
 3477TIP3   OH231845   5.868   3.333   4.614  0.4178 -0.0387 -0.6896
 3477TIP3    H131846   5.806   3.301   4.679  0.6464  2.0556  0.6712
 3477TIP3    H231847   5.944   3.276   4.623  1.3600  1.4959  2.6172
 3478TIP3   OH231848   3.971   4.787  15.248  0.1127  0.3270 -0.6052
 3478TIP3    H131849   4.030   4.834  15.189  0.6575 -0.4302 -0.6777
 3478TIP3    H231850   4.009   4.799  15.334  0.3384 -0.0952 -0.6423
 3479TIP3   OH231851   3.025   6.024  14.239 -0.1420 -0.6510 -0.3546
 3479TIP3    H131852   3.051   5.992  14.326 -0.1917  2.1394  0.7863
 3479TIP3    H231853   3.108   6.032  14.192  0.0635 -0.7372 -0.0153
 3480TIP3   OH231854   5.072   2.148   5.454  0.6765 -0.4821 -0.3330
 3480TIP3    H131855   5.039   2.078   5.398 -1.1011 -0.2128  0.2877
 3480TIP3    H231856   5.035   2.128   5.540  1.6485  0.2363  0.2678
 3481TIP3   OH231857   3.058   5.722   2.028  0.2399 -0.3418  0.3742
 3481TIP3    H131858   3.144   5.761   2.014  0.3699 -0.5929  0.4621
 3481TIP3    H231859   3.048   5.720   2.123  0.5129 -1.1087  0.3978
 3482TIP3   OH231860   1.214   6.360  15.453  0.2028  0.2873 -0.5164
 3482TIP3    H131861   1.301   6.325  15.471  0.7852  2.1336  0.4329
 3482TIP3    H231862   1.168   6.354  15.537 -0.0522  0.7948 -0.6183
 3483TIP3   OH231863   5.972   5.746   2.877 -0.2122  0.4705 -0.0454
 3483TIP3    H131864   5.960   5.827   2.926 -0.3476 -0.5309  1.6454
 3483TIP3    H231865   6.027   5.771   2.802  0.3029  1.9745  0.8024
 3484TIP3   OH231866   4.446   6.349  11.530 -0.2277  0.5602  0.4849
 3484TIP3    H131867   4.375   6.337  11.467  0.6673  0.8906 -0.6167
 3484TIP3    H231868   4.443   6.442  11.554  0.3143  0.7539 -0.1712
 3485TIP3   OH231869   2.514   4.657   3.210  0.0396 -0.5585 -0.4498
 3485TIP3    H131870   2.511   4.596   3.136 -1.9541 -0.1767 -0.7444
 3485TIP3    H231871   2.490   4.603   3.286 -2.1913 -0.1246 -0.7801
 3486TIP3   OH231872   4.644   1.080  14.771  0.2068 -0.3261 -0.6065
 3486TIP3    H131873   4.694   1.016  14.721  0.9351  0.5848 -1.0782
 3486TIP3    H231874   4.568   1.100  14.716  0.2671 -0.3777 -0.7091
 3487TIP3   OH231875   5.372   5.329  10.983  0.5204  0.1172  0.2779
 3487TIP3    H131876   5.380   5.425  10.985  1.3243  0.0642 -0.2678
 3487TIP3    H231877   5.346   5.309  10.893 -0.6691 -0.1158  0.6484
 3488TIP3   OH231878   3.656   1.842   5.744  0.0348 -0.6819  0.1385
 3488TIP3    H131879   3.633   1.869   5.833 -0.0486 -0.6141  0.0977
 3488TIP3    H231880   3.629   1.916   5.690 -0.4129 -0.9422 -0.0023
 3489TIP3   OH231881   6.507   5.548   0.756 -0.4356  0.0609  0.2772
 3489TIP3    H131882   6.417   5.522   0.737 -0.3902 -1.4057  1.7510
 3489TIP3    H231883   6.560   5.506   0.688 -0.8055  0.3320 -0.1769
 3490TIP3   OH231884   5.316   3.157   0.699 -0.0602  0.0125  0.6611
 3490TIP3    H131885   5.246   3.216   0.726 -1.8102 -1.6951  0.1776
 3490TIP3    H231886   5.326   3.174   0.605 -0.1994 -0.0740  0.6290
 3491TIP3   OH231887   6.365   5.198   2.146  0.2938 -0.0359  0.0222
 3491TIP3    H131888   6.375   5.116   2.194  1.0545 -0.5562 -1.0010
 3491TIP3    H231889   6.316   5.175   2.068  0.5319  0.4739 -0.2850
 3492TIP3   OH231890   3.190   0.215   4.081  0.1460  0.1222  0.2882
 3492TIP3    H131891   3.285   0.215   4.067  0.1894  0.6164  0.5375
 3492TIP3    H231892   3.174   0.293   4.135 -0.4464  0.2514 -0.0667
 3493TIP3   OH231893   2.637   6.520  13.245 -0.3642  0.3252 -0.1451
 3493TIP3    H131894   2.565   6.506  13.306  0.7474 -0.0849  1.1433
 3493TIP3    H231895   2.649   6.436  13.201  0.6831 -0.2891  1.2255
 3494TIP3   OH231896   1.738   4.448   5.690 -0.6495  0.2037  0.0930
 3494TIP3    H131897   1.783   4.436   5.774 -0.1941 -2.1638 -0.4212
 3494TIP3    H231898   1.698   4.362   5.672 -0.6006  0.6069 -2.1845
 3495TIP3   OH231899   6.001   2.892  13.991  0.5043  0.4517  0.3550
 3495TIP3    H131900   5.944   2.927  13.923 -0.0328 -0.6023  0.2412
 3495TIP3    H231901   6.035   2.810  13.955 -0.5725 -0.6356  1.6890
 3496TIP3   OH231902   2.117   4.868  11.961 -0.0365 -0.8248  0.1260
 3496TIP3    H131903   2.128   4.824  12.045 -0.0496 -0.3958  0.3582
 3496TIP3    H231904   2.023   4.881  11.952  0.0590  0.5014  0.7783
 3497TIP3   OH231905   4.829   5.850  15.182 -0.7990  0.1404  0.3965
 3497TIP3    H131906   4.797   5.761  15.171 -2.0955  0.5025  0.9795
 3497TIP3    H231907   4.750   5.903  15.191 -0.0388  1.2201  1.0034
 3498TIP3   OH231908   3.565   2.985   4.445 -0.2225 -0.2167  0.0529
 3498TIP3    H131909   3.569   2.969   4.350 -0.0421  2.9946 -0.5738
 3498TIP3    H231910   3.477   2.958   4.470 -0.5499 -0.3456 -1.1801
 3499TIP3   OH231911   1.729   5.502   2.755 -0.7862 -0.6854  0.5937
 3499TIP3    H131912   1.779   5.580   2.732 -2.0349 -0.4646 -1.7895
 3499TIP3    H231913   1.701   5.517   2.845 -1.0887  1.7233  0.1761
 3500TIP3   OH231914   6.699   5.256   5.146  0.4403  0.4713  0.0197
 3500TIP3    H131915   6.682   5.172   5.103 -0.8247  1.3086 -1.2128
 3500TIP3    H231916   6.675   5.241   5.238  0.8460 -0.6830 -0.0522
 3501TIP3   OH231917   0.415   5.506   3.879 -0.2726  0.0191 -0.0945
 3501TIP3    H131918   0.322   5.508   3.900 -0.0510  0.6708  0.9125
 3501TIP3    H231919   0.458   5.485   3.963  0.6147  1.9855  0.0125
 3502TIP3   OH231920   0.113   3.351   4.435 -0.3729  0.4512 -0.1005
 3502TIP3    H131921   0.018   3.344   4.446 -0.5555  0.0651 -1.7032
 3502TIP3    H231922   0.124   3.418   4.367  0.3868 -0.8527 -1.3147
 3503TIP3   OH231923   1.349   3.345   2.457 -0.1669  0.0224  0.4052
 3503TIP3    H131924   1.339   3.332   2.362  0.3936 -0.9657  0.4630
 3503TIP3    H231925   1.291   3.418   2.478  0.7201  1.1481 -0.9232
 3504TIP3   OH231926   3.170   4.657  16.715 -0.3585  0.3079  0.0298
 3504TIP3    H131927   3.216   4.582  16.679 -0.2268  0.7344 -0.7138
 3504TIP3    H231928   3.083   4.654  16.675  0.4123  1.9000 -1.9821
 3505TIP3   OH231929   3.733   2.659   1.750 -0.2687  0.7560 -0.3643
 3505TIP3    H131930   3.803   2.711   1.789 -0.0163  0.4413 -0.3935
 3505TIP3    H231931   3.652   2.701   1.781 -0.1642 -0.9015  2.5554
 3506TIP3   OH231932   3.777   5.228   0.381 -0.7589 -0.1539  0.2784
 3506TIP3    H131933   3.808   5.299   0.437  0.3292 -0.3565 -0.0533
 3506TIP3    H231934   3.681   5.238   0.381 -0.5765  3.1960 -2.1315
 3507TIP3   OH231935   4.672   5.248  16.232 -0.2522  0.5332 -0.1164
 3507TIP3    H131936   4.765   5.267  16.219 -0.7563  3.6928  0.0156
 3507TIP3    H231937   4.640   5.225  16.145  0.4486  0.5970 -0.3979
 3508TIP3   OH231938   4.148   1.852  11.591  0.1331 -0.2848 -0.3403
 3508TIP3    H131939   4.167   1.900  11.672  1.5480  2.2824 -2.0349
 3508TIP3    H231940   4.230   1.808  11.569 -0.2935 -1.1005 -0.3283
 3509TIP3   OH231941   2.934   5.118  11.879 -0.7370 -0.2399 -0.2802
 3509TIP3    H131942   2.862   5.166  11.839 -0.4200 -0.2382 -0.8546
 3509TIP3    H231943   2.990   5.093  11.806 -0.7162 -1.1854  0.0391
 3510TIP3   OH231944   0.329   5.873   3.547  0.0471  0.0511  0.0337
 3510TIP3    H131945   0.255   5.812   3.544 -0.9631  1.2340  0.2351
 3510TIP3    H231946   0.383   5.840   3.619  0.1845 -1.3280 -0.6676
 3511TIP3   OH231947   5.797   4.434   4.692 -0.8508  0.5043  0.4545
 3511TIP3    H131948   5.747   4.367   4.738 -0.5720 -0.6848 -0.8976
 3511TIP3    H231949   5.872   4.451   4.749 -0.8895 -0.3818  0.7960
 3512TIP3   OH231950   1.619   2.084   5.681  0.1734  0.0485 -0.1024
 3512TIP3    H131951   1.673   2.047   5.752 -0.4712  0.6239  0.7025
 3512TIP3    H231952   1.632   2.024   5.608  1.7474  0.0593  0.1356
 3513TIP3   OH231953   2.638   1.772   4.915  0.3870  0.3179  0.4385
 3513TIP3    H131954   2.553   1.734   4.893 -0.4483  0.6001  2.8583
 3513TIP3    H231955   2.700   1.700   4.905 -0.3074 -0.1939 -0.2535
 3514TIP3   OH231956   1.934   1.409   0.421 -0.0178  0.4367 -0.5266
 3514TIP3    H131957   1.862   1.444   0.369  1.2586  1.7113 -1.5389
 3514TIP3    H231958   1.898   1.400   0.509 -1.8194 -0.3852 -1.2920
 3515TIP3   OH231959   0.528   1.149   2.207  0.2038 -0.2334 -0.1013
 3515TIP3    H131960   0.611   1.114   2.236  0.4157  0.3275 -0.0173
 3515TIP3    H231961   0.536   1.154   2.111  0.2762 -0.1465 -0.0899
 3516TIP3   OH231962   2.913   6.603  13.972 -0.5563 -0.3730  0.0295
 3516TIP3    H131963   2.994   6.566  13.937 -1.4264 -1.9950 -0.3835
 3516TIP3    H231964   2.907   6.690  13.933  0.4903 -0.6210 -0.7218
 3517TIP3   OH231965   2.949   0.945   6.045 -0.1758  0.0057  0.4233
 3517TIP3    H131966   3.041   0.920   6.038  0.1950  1.5861 -1.5166
 3517TIP3    H231967   2.929   0.987   5.960 -3.0423 -1.3660  0.3049
 3518TIP3   OH231968   2.084   5.501  13.379  0.0435 -0.8416  0.3533
 3518TIP3    H131969   2.161   5.558  13.385 -0.2418 -0.3031 -0.7532
 3518TIP3    H231970   2.053   5.492  13.469  0.7176 -0.1197  0.6714
 3519TIP3   OH231971   2.973   2.609   3.331 -0.3137 -0.2903 -0.4296
 3519TIP3    H131972   3.038   2.560   3.381  0.6227  1.1674 -0.1571
 3519TIP3    H231973   2.926   2.542   3.281  1.7215 -1.3695 -1.0221
 3520TIP3   OH231974   0.581   4.794  13.207 -0.8054 -0.1509 -0.2795
 3520TIP3    H131975   0.637   4.753  13.273  1.0197  2.1814 -0.2361
 3520TIP3    H231976   0.493   4.786  13.242 -0.1788 -1.3344  1.1280
 3521TIP3   OH231977   2.859   5.306  15.346  0.0019  0.7496 -0.2375
 3521TIP3    H131978   2.781   5.358  15.327 -0.6299 -0.2689 -0.5313
 3521TIP3    H231979   2.831   5.246  15.415  1.2208  1.9297  1.3598
 3522TIP3   OH231980   2.828   2.797  14.702 -0.3724 -0.1789  0.2240
 3522TIP3    H131981   2.801   2.774  14.791 -2.6493 -0.9159 -0.5805
 3522TIP3    H231982   2.813   2.892  14.697 -0.2705 -0.1392  0.6022
 3523TIP3   OH231983   2.452   1.100  14.126  0.3738 -0.1302 -0.3634
 3523TIP3    H131984   2.518   1.122  14.060  1.1648  0.5711  0.6189
 3523TIP3    H231985   2.415   1.017  14.097  1.4233 -0.3453 -1.1470
 3524TIP3   OH231986   0.214   5.766  15.297  0.0837  0.3350 -0.3369
 3524TIP3    H131987   0.259   5.682  15.297  0.0642  0.1810  2.9769
 3524TIP3    H231988   0.137   5.752  15.353 -0.5115  2.2837 -0.5786
 3525TIP3   OH231989   1.216   1.384   5.094 -0.5917  0.0437  0.2422
 3525TIP3    H131990   1.265   1.310   5.131 -1.2761 -0.3044  0.4662
 3525TIP3    H231991   1.198   1.441   5.169 -2.0089 -0.6789  0.4872
 3526TIP3   OH231992   0.864   2.628  15.975 -0.1984  0.0583  0.4775
 3526TIP3    H131993   0.840   2.594  15.889  1.2202  0.5234 -0.1290
 3526TIP3    H231994   0.795   2.596  16.034 -1.1619 -0.3031 -0.8111
 3527TIP3   OH231995   0.178   3.951   4.546  0.1286 -0.6636  0.0623
 3527TIP3    H131996   0.216   3.871   4.581 -1.0421 -0.7488  1.2278
 3527TIP3    H231997   0.179   4.012   4.620 -0.0786  0.0085 -0.4768
 3528TIP3   OH231998   5.325   4.889   0.926 -0.3213 -0.9407  0.5235
 3528TIP3    H131999   5.399   4.919   0.978  1.1903 -1.5229 -1.1823
 3528TIP3    H232000   5.266   4.965   0.923  1.3932  0.4435 -0.1246
 3529TIP3   OH232001   2.253   4.723   5.775 -0.4681 -0.2377 -0.4570
 3529TIP3    H132002   2.299   4.672   5.841 -1.5325  1.0027  1.3378
 3529TIP3    H232003   2.322   4.753   5.716  0.3136 -2.7421 -0.9527
 3530TIP3   OH232004   3.834   5.094   3.260  0.5525 -0.0073 -0.3321
 3530TIP3    H132005   3.762   5.143   3.220  2.0239  2.1002 -0.6035
 3530TIP3    H232006   3.896   5.079   3.188  0.1394 -2.4383 -0.2666
 3531TIP3   OH232007   3.102   5.758   3.301  0.0122  0.1907 -0.2955
 3531TIP3    H132008   3.177   5.787   3.352 -1.2014  0.8908  1.1556
 3531TIP3    H232009   3.116   5.796   3.214  2.0882 -0.9785 -0.5284
 3532TIP3   OH232010   3.990   3.729  15.252  0.2185 -0.4174 -0.1570
 3532TIP3    H132011   3.920   3.750  15.314  0.9328  1.0897  0.1830
 3532TIP3    H232012   3.962   3.769  15.170 -0.1105 -1.2885 -0.4782
 3533TIP3   OH232013   6.411   0.054   3.218  0.0948  0.4416  0.3211
 3533TIP3    H132014   6.424   0.112   3.143 -2.6460  1.1293  0.2978
 3533TIP3    H232015   6.470  -0.019   3.202 -0.0499  0.8086 -2.2556
 3534TIP3   OH232016   4.147   2.544   3.084 -0.7561  0.3844  0.0391
 3534TIP3    H132017   4.176   2.571   2.996  3.0983  1.7753  1.5104
 3534TIP3    H232018   4.103   2.621   3.119  0.9278  1.2062  0.4951
 3535TIP3   OH232019   3.806   2.321   5.603 -0.4949 -0.0548 -0.1216
 3535TIP3    H132020   3.756   2.345   5.525 -0.4532  1.0100  0.1701
 3535TIP3    H232021   3.808   2.401   5.656 -0.2619 -0.6759  0.8325
 3536TIP3   OH232022   1.975   6.068  16.926  0.0517  0.5691 -0.1175
 3536TIP3    H132023   1.984   6.034  16.837  2.0859  1.1194 -0.1868
 3536TIP3    H232024   2.029   6.147  16.927  0.5114  0.2859  1.7386
 3537TIP3   OH232025   3.432   5.305  13.333  0.2544  0.3271 -0.0366
 3537TIP3    H132026   3.444   5.242  13.404  1.5084  1.2518  0.6246
 3537TIP3    H232027   3.376   5.260  13.270 -1.7730 -0.1740  1.9599
 3538TIP3   OH232028   4.100   1.640  16.077  0.1287  0.0426  0.0704
 3538TIP3    H132029   4.121   1.558  16.122  0.0306 -0.4782 -0.8115
 3538TIP3    H232030   4.137   1.630  15.989 -0.6408  0.5904 -0.3288
 3539TIP3   OH232031   2.743   2.954  15.021 -0.6479 -0.4830  0.4056
 3539TIP3    H132032   2.794   2.874  15.013 -0.2915 -0.1911 -0.3063
 3539TIP3    H232033   2.760   3.002  14.940 -1.3310  0.0385  0.5571
 3540TIP3   OH232034   4.699   6.546   2.036  0.4843 -0.1239 -0.1605
 3540TIP3    H132035   4.651   6.475   2.080  0.8775  0.7383  1.7834
 3540TIP3    H232036   4.635   6.617   2.028  0.3152 -0.3850 -1.3925
 3541TIP3   OH232037   6.005   2.784   1.024 -0.0879  0.1804 -0.0630
 3541TIP3    H132038   6.080   2.790   0.965 -0.1783 -3.4451 -0.7914
 3541TIP3    H232039   6.042   2.753   1.107 -0.3516  2.3599  0.9404
 3542TIP3   OH232040   2.627   3.659  11.668  0.2318  0.2702 -0.0836
 3542TIP3    H132041   2.665   3.717  11.602 -0.2731 -1.3092 -1.8541
 3542TIP3    H232042   2.546   3.627  11.628 -0.5218 -0.1169  1.6510
 3543TIP3   OH232043   5.005   3.454   3.199  0.1907 -0.3047 -0.1121
 3543TIP3    H132044   5.070   3.522   3.217 -0.1970  0.2509 -0.7341
 3543TIP3    H232045   4.932   3.475   3.258  0.3596 -0.6056  0.2026
 3544TIP3   OH232046   5.418   1.118   3.649  0.6399 -0.4918  0.3905
 3544TIP3    H132047   5.511   1.097   3.637  0.4941 -0.7761 -0.2898
 3544TIP3    H232048   5.393   1.071   3.728  1.8149  1.9916  2.3971
 3545TIP3   OH232049   1.824   1.187  12.769  0.0562  0.3942 -0.1362
 3545TIP3    H132050   1.883   1.161  12.698  1.5176  1.3209  0.7044
 3545TIP3    H232051   1.848   1.277  12.789 -0.2016  0.1018  1.6607
 3546TIP3   OH232052   1.341   1.970  10.917 -0.3808  0.3893 -0.4212
 3546TIP3    H132053   1.269   2.027  10.890 -0.9457 -1.1292 -2.3887
 3546TIP3    H232054   1.407   1.981  10.848  0.2937  0.0383  0.1593
 3547TIP3   OH232055   5.375   1.432  15.450  0.4523 -0.0871 -0.3785
 3547TIP3    H132056   5.323   1.438  15.370 -1.1491 -1.5168  0.5025
 3547TIP3    H232057   5.445   1.371  15.428  0.2261 -0.2049 -0.7901
 3548TIP3   OH232058   4.640   6.175   0.199 -0.0804  0.2860  0.1211
 3548TIP3    H132059   4.727   6.140   0.180 -0.6170  0.2340 -2.6883
 3548TIP3    H232060   4.621   6.235   0.126 -1.7690  1.5468  1.4953
 3549TIP3   OH232061   0.278   6.113  12.405 -0.2875 -0.4934  0.6043
 3549TIP3    H132062   0.243   6.077  12.486 -1.9821  1.5145  0.8504
 3549TIP3    H232063   0.298   6.204  12.425 -0.5229 -0.0036 -1.1519
 3550TIP3   OH232064   4.659   0.812   5.124  0.1509 -0.2362  0.2886
 3550TIP3    H132065   4.661   0.755   5.201 -3.8015  1.8474  2.1862
 3550TIP3    H232066   4.723   0.881   5.143  0.6068 -0.7688  0.7263
 3551TIP3   OH232067   0.921   5.128  10.950  0.2041  0.2556 -0.0985
 3551TIP3    H132068   0.894   5.172  10.870 -1.7131 -0.0387  0.3263
 3551TIP3    H232069   0.866   5.166  11.019  0.4402 -0.8296  0.7357
 3552TIP3   OH232070   2.651   3.472  16.755 -0.1673  0.1415  0.1779
 3552TIP3    H132071   2.687   3.560  16.744  0.2167 -0.0802 -0.3677
 3552TIP3    H232072   2.640   3.463  16.850  0.3028  0.5750  0.2798
 3553TIP3   OH232073   2.875   3.948  11.306 -0.0501  0.4652 -0.1257
 3553TIP3    H132074   2.897   4.028  11.258  0.5454 -0.3352 -1.2223
 3553TIP3    H232075   2.851   3.885  11.239 -1.0000 -0.1484  0.7583
 3554TIP3   OH232076   1.233   3.687  15.579  0.2890 -0.3708 -0.5745
 3554TIP3    H132077   1.262   3.686  15.671 -1.6989  0.2078  0.1008
 3554TIP3    H232078   1.303   3.733  15.533  0.4089  1.1323  1.0109
 3555TIP3   OH232079   6.430   0.222  10.608 -0.4097 -0.2265  0.0949
 3555TIP3    H132080   6.432   0.300  10.663  1.3410 -0.2545  0.1465
 3555TIP3    H232081   6.407   0.151  10.668 -1.2896  0.1397  0.1975
 3556TIP3   OH232082   0.591   1.520   0.109  0.0757 -0.2136 -0.3028
 3556TIP3    H132083   0.535   1.577   0.162  0.0622 -1.2629  0.8405
 3556TIP3    H232084   0.562   1.536   0.019  1.0121  2.6302 -0.2053
 3557TIP3   OH232085   4.641   1.824  13.395 -0.6440 -0.1887  0.1904
 3557TIP3    H132086   4.577   1.841  13.326 -1.2738  1.2301  1.0584
 3557TIP3    H232087   4.590   1.831  13.476 -0.0606 -2.4592  0.8148
 3558TIP3   OH232088   1.387   3.357  15.778 -0.1364  0.3173 -0.2650
 3558TIP3    H132089   1.305   3.316  15.805  0.0417  0.0622 -0.1063
 3558TIP3    H232090   1.397   3.334  15.686 -1.2694  2.0457 -0.8731
 3559TIP3   OH232091   0.927   0.976   0.425 -0.3867 -0.2806  0.0411
 3559TIP3    H132092   1.017   0.943   0.418  0.7293  2.5757 -1.1235
 3559TIP3    H232093   0.900   0.953   0.513  0.7551 -2.8044 -0.1731
 3560TIP3   OH232094   4.113   5.282  13.032  0.4123  0.1257  0.4535
 3560TIP3    H132095   4.114   5.340  13.108  0.0542  0.8648 -0.0980
 3560TIP3    H232096   4.063   5.206  13.061  0.6172  0.2188  1.0812
 3561TIP3   OH232097   5.599   3.298  15.849  0.4619 -0.2945 -0.3554
 3561TIP3    H132098   5.684   3.328  15.818  1.5388 -1.4482  1.3249
 3561TIP3    H232099   5.611   3.284  15.943 -1.2060 -1.7251 -0.3096
 3562TIP3   OH232100   6.156   4.473  13.334 -0.3581  0.1033 -0.2604
 3562TIP3    H132101   6.070   4.438  13.358 -0.1930  0.9162  1.6503
 3562TIP3    H232102   6.185   4.521  13.411 -0.0776  3.5861 -2.3492
 3563TIP3   OH232103   5.062   1.903   5.933  0.0924 -0.2542 -0.3266
 3563TIP3    H132104   5.023   1.939   6.013  1.9923 -0.9676  1.0033
 3563TIP3    H232105   5.044   1.809   5.938 -0.6633 -0.1816 -1.3100
 3564TIP3   OH232106   1.388   0.441   2.540  0.8733  0.4264 -0.0308
 3564TIP3    H132107   1.321   0.503   2.568  0.0515 -0.4532  0.0173
 3564TIP3    H232108   1.367   0.425   2.448 -0.0633 -1.1448  0.4180
 3565TIP3   OH232109   5.536   1.287  12.896  0.2220  0.1792  0.0272
 3565TIP3    H132110   5.538   1.352  12.966  0.2978 -0.2255  0.4087
 3565TIP3    H232111   5.615   1.234  12.911  1.7204  1.7051 -1.9344
 3566TIP3   OH232112   3.616   3.816   6.733 -0.0206  0.0490  0.6580
 3566TIP3    H132113   3.702   3.852   6.712  0.2141 -0.2592  1.0507
 3566TIP3    H232114   3.556   3.855   6.670  0.3090  0.7272  0.7628
 3567TIP3   OH232115   3.007   0.498  16.861 -0.5573 -0.8643  0.2941
 3567TIP3    H132116   2.934   0.506  16.800 -0.2791  1.8948  0.2151
 3567TIP3    H232117   3.016   0.403  16.875 -2.2480 -1.4352 -1.9276
 3568TIP3   OH232118   3.734   2.083  15.849 -0.2819 -0.0035 -0.2627
 3568TIP3    H132119   3.664   2.059  15.909  1.4301 -2.9501  0.7219
 3568TIP3    H232120   3.775   2.159  15.890  0.3073 -1.4210  1.9710
 3569TIP3   OH232121   4.799   5.872  11.699 -0.8220  0.2030  0.4485
 3569TIP3    H132122   4.711   5.909  11.690 -1.5362 -0.6993  2.7787
 3569TIP3    H232123   4.799   5.796  11.640 -1.8581 -0.1261  0.8411
 3570TIP3   OH232124   0.883   3.098  16.705 -0.1334  0.1982  0.0381
 3570TIP3    H132125   0.900   3.009  16.737 -1.0214  0.1109  0.2862
 3570TIP3    H232126   0.808   3.088  16.647 -0.1066  0.7617 -0.0941
 3571TIP3   OH232127   4.731   4.720   1.305 -0.6642 -0.2771  0.0358
 3571TIP3    H132128   4.780   4.801   1.291 -2.0884  0.5959 -0.0999
 3571TIP3    H232129   4.767   4.684   1.386 -1.1641  1.4299  1.0785
 3572TIP3   OH232130   6.287   2.350   3.539  0.5112  0.4178 -0.2534
 3572TIP3    H132131   6.202   2.308   3.522  0.9880 -0.2322 -1.1577
 3572TIP3    H232132   6.291   2.359   3.634 -0.2416 -0.2692 -0.1456
 3573TIP3   OH232133   5.520   0.480   5.024  0.4265 -0.1937 -0.2183
 3573TIP3    H132134   5.482   0.557   4.981  0.0662  0.1134  0.6243
 3573TIP3    H232135   5.452   0.451   5.085  0.9217 -0.6234  0.1363
 3574TIP3   OH232136   2.193   6.044   3.373  0.0883  0.4722  0.3463
 3574TIP3    H132137   2.256   6.116   3.377  1.6943 -0.9084  2.3878
 3574TIP3    H232138   2.123   6.069   3.434 -0.1290  0.9602 -0.1017
 3575TIP3   OH232139   5.428   5.046   1.744  0.2277 -0.2031  0.1092
 3575TIP3    H132140   5.476   5.112   1.694 -1.0392  0.1238 -0.7477
 3575TIP3    H232141   5.462   5.053   1.833  1.7151  0.0177 -0.4566
 3576TIP3   OH232142   5.458   6.786  13.790 -0.1109 -0.0826 -0.3267
 3576TIP3    H132143   5.435   6.867  13.745 -1.1293 -1.1819 -1.8708
 3576TIP3    H232144   5.407   6.719  13.746  2.1397 -1.8778 -0.3874
 3577TIP3   OH232145   1.524   6.677  15.310 -0.2577  1.0292 -0.3919
 3577TIP3    H132146   1.541   6.585  15.292  0.6002  1.2280 -0.6526
 3577TIP3    H232147   1.459   6.703  15.245 -0.7816  0.5179 -0.0786
 3578TIP3   OH232148   4.706   3.320  13.898 -0.4917 -0.9528 -0.5696
 3578TIP3    H132149   4.750   3.255  13.844 -2.1429  0.0765 -3.3709
 3578TIP3    H232150   4.658   3.375  13.836 -1.8491  0.9018  1.9101
 3579TIP3   OH232151   2.960   1.023   0.191  0.1760  0.6936  0.0065
 3579TIP3    H132152   2.959   0.978   0.107  0.0526  0.7681 -0.0323
 3579TIP3    H232153   2.871   1.015   0.224  0.1101  1.0624 -0.0833
 3580TIP3   OH232154   1.258   3.930   3.333 -0.1127 -0.7849  0.3327
 3580TIP3    H132155   1.307   4.008   3.361  1.3034 -0.9204 -1.5541
 3580TIP3    H232156   1.184   3.965   3.284 -0.6926 -0.6145  1.3067
 3581TIP3   OH232157   5.874   0.009  13.123 -0.4351 -0.5778 -0.4888
 3581TIP3    H132158   5.884  -0.086  13.116  0.5153 -0.7294  1.9400
 3581TIP3    H232159   5.956   0.039  13.162  0.0611  1.5537 -2.8642
 3582TIP3   OH232160   0.320   5.519  15.292 -0.2706 -0.3626 -0.2775
 3582TIP3    H132161   0.267   5.457  15.242 -0.2880 -1.2141  0.7579
 3582TIP3    H232162   0.381   5.464  15.341 -1.7325  0.1961  2.4162
 3583TIP3   OH232163   0.680   2.129  12.444 -0.0949 -0.1630 -0.0719
 3583TIP3    H132164   0.589   2.136  12.473 -0.1546 -2.9558  0.6850
 3583TIP3    H232165   0.678   2.145  12.350 -0.8931  2.5058  0.3142
 3584TIP3   OH232166   3.274   6.059   5.357 -0.2354 -0.4483  0.0564
 3584TIP3    H132167   3.361   6.092   5.380 -0.5870 -0.5155  1.6457
 3584TIP3    H232168   3.291   5.992   5.290  0.8110  0.3589 -0.5198
 3585TIP3   OH232169   2.056   6.518   5.808 -0.2509  0.6512  0.2278
 3585TIP3    H132170   2.054   6.480   5.896  2.1254  2.6942  1.2663
 3585TIP3    H232171   2.132   6.477   5.766 -0.4874  0.8014 -0.3598
 3586TIP3   OH232172   5.882   5.907  16.113  0.3269 -0.1112 -0.1812
 3586TIP3    H132173   5.925   5.901  16.028 -0.6312 -3.1223 -0.5971
 3586TIP3    H232174   5.791   5.885  16.095 -0.9791  3.5783  1.0608
 3587TIP3   OH232175   2.642   0.943  15.978 -0.2956 -0.2969  0.5180
 3587TIP3    H132176   2.627   0.887  16.054 -2.6781 -2.3780 -1.3078
 3587TIP3    H232177   2.574   1.011  15.985  0.1144  0.0910  0.7478
 3588TIP3   OH232178   4.208   3.915  10.944  0.1304 -0.2773 -0.3324
 3588TIP3    H132179   4.134   3.948  10.893  0.6613 -1.6375 -2.0774
 3588TIP3    H232180   4.171   3.842  10.995 -0.0607  0.0766  0.0430
 3589TIP3   OH232181   4.191   4.099  11.221  0.0444 -0.4823 -0.3691
 3589TIP3    H132182   4.154   4.049  11.147 -1.9480  0.5082 -0.1034
 3589TIP3    H232183   4.285   4.098  11.205 -0.2591 -0.9919 -2.4915
 3590TIP3   OH232184   0.673   0.462  11.312 -0.4290  0.5414  0.0537
 3590TIP3    H132185   0.766   0.445  11.327 -0.3471  0.2117 -0.7565
 3590TIP3    H232186   0.628   0.401  11.370 -0.1304 -0.1671 -0.4384
 3591TIP3   OH232187   6.666   3.295  13.911  0.1815  0.1369  0.2960
 3591TIP3    H132188   6.744   3.271  13.860  0.7273  1.7070  0.3233
 3591TIP3    H232189   6.594   3.286  13.849  0.6369  0.4549 -0.2984
 3592TIP3   OH232190   2.783   6.356  12.875 -0.3816 -0.3094 -0.5338
 3592TIP3    H132191   2.732   6.313  12.944  2.0953 -1.1992  0.8895
 3592TIP3    H232192   2.737   6.438  12.859 -1.6680 -0.5877  1.3866
 3593TIP3   OH232193   0.915   2.773   0.623 -0.4554 -0.3276  0.4962
 3593TIP3    H132194   0.908   2.768   0.528  0.7932 -0.4770  0.3928
 3593TIP3    H232195   0.832   2.810   0.652 -1.6614 -2.1405 -0.4785
 3594TIP3   OH232196   2.198   0.317  14.521 -0.3205 -0.1359  0.3304
 3594TIP3    H132197   2.187   0.409  14.543 -0.3845  0.1979 -1.0445
 3594TIP3    H232198   2.278   0.313  14.469 -0.2526 -0.8738  0.4746
 3595TIP3   OH232199   0.750   6.281   0.645  0.4133 -0.0882  0.0270
 3595TIP3    H132200   0.773   6.210   0.705 -1.2424 -0.8226 -0.1470
 3595TIP3    H232201   0.745   6.238   0.559  0.7073  0.5239 -0.3025
 3596TIP3   OH232202   2.211   4.396   3.414  0.2812 -0.0653 -0.0023
 3596TIP3    H132203   2.157   4.452   3.469  0.3338 -0.5027  0.4973
 3596TIP3    H232204   2.298   4.434   3.420 -0.0024  0.8229 -1.0480
 3597TIP3   OH232205   5.779   6.349   4.856 -0.2415 -0.3131  0.1854
 3597TIP3    H132206   5.770   6.357   4.951  0.2488 -2.6912  0.4927
 3597TIP3    H232207   5.872   6.369   4.840 -0.8490  2.6005 -0.1856
 3598TIP3   OH232208   3.434   5.699   0.417  0.2898 -0.4416 -0.3098
 3598TIP3    H132209   3.491   5.630   0.450  0.7970 -2.0587 -4.1518
 3598TIP3    H232210   3.345   5.670   0.439  0.6345  0.0144  1.9756
 3599TIP3   OH232211   6.434   5.815  16.149 -0.5321 -0.0915  0.8607
 3599TIP3    H132212   6.488   5.882  16.106 -0.3138 -0.7458  0.0907
 3599TIP3    H232213   6.449   5.736  16.097 -1.2010 -0.6077  1.4453
 3600TIP3   OH232214   2.956   4.216   2.962  0.0941  0.3039 -0.2545
 3600TIP3    H132215   2.999   4.301   2.972 -0.5492  0.8168 -1.6124
 3600TIP3    H232216   2.938   4.209   2.868 -2.9803  0.2293  0.2510
 3601TIP3   OH232217   4.964   5.549  13.265 -0.5768  0.0061 -0.2726
 3601TIP3    H132218   4.900   5.620  13.259  0.2905  0.8435 -0.0569
 3601TIP3    H232219   4.948   5.494  13.189 -1.9807 -0.1810  0.1425
 3602TIP3   OH232220   4.273   2.098   6.477  0.1978 -0.8925  0.1183
 3602TIP3    H132221   4.305   2.189   6.481 -0.8859 -0.4634 -0.4949
 3602TIP3    H232222   4.199   2.102   6.416 -1.8820 -1.5630  2.4081
 3603TIP3   OH232223   2.210   0.915  14.631  0.1156  0.1616 -0.5176
 3603TIP3    H132224   2.123   0.893  14.599 -0.1592  0.8094 -0.2402
 3603TIP3    H232225   2.244   0.979  14.569  1.4697 -1.9777 -2.1024
 3604TIP3   OH232226   4.854   1.879   1.838  0.0687 -0.3046 -0.5662
 3604TIP3    H132227   4.830   1.877   1.745 -0.4942 -0.5866 -0.4230
 3604TIP3    H232228   4.919   1.809   1.847 -0.0785 -0.4609 -0.6993
 3605TIP3   OH232229   5.758   6.531  16.354 -0.2330 -0.1132  0.1199
 3605TIP3    H132230   5.782   6.462  16.415 -0.6451 -0.9884 -0.6863
 3605TIP3    H232231   5.841   6.573  16.332  0.0462 -0.4610  0.4939
 3606TIP3   OH232232   4.491   1.171  10.853 -0.1547  0.3973 -0.5940
 3606TIP3    H132233   4.535   1.255  10.839  0.2898 -0.0981 -2.3141
 3606TIP3    H232234   4.532   1.111  10.791 -0.6891 -1.0313  0.3771
 3607TIP3   OH232235   0.885   3.099  13.200 -0.8807  0.7032 -0.2188
 3607TIP3    H132236   0.980   3.098  13.203 -0.9136  0.7716  1.1772
 3607TIP3    H232237   0.862   3.013  13.165 -0.3325 -0.1046  1.3034
 3608TIP3   OH232238   0.096   0.163   5.807  0.5946 -0.0167  0.2900
 3608TIP3    H132239   0.125   0.255   5.809 -2.1650  0.9746 -1.1899
 3608TIP3    H232240   0.143   0.123   5.881  0.5631  2.9956  2.1398
 3609TIP3   OH232241   2.453   1.351  13.955  0.0695 -0.9753 -0.0523
 3609TIP3    H132242   2.503   1.413  13.903  0.8613  0.0528  1.8285
 3609TIP3    H232243   2.436   1.397  14.037 -3.1329 -1.6592 -0.1944
 3610TIP3   OH232244   4.025   5.713  16.167  0.1422  0.2411  0.1638
 3610TIP3    H132245   4.080   5.638  16.189 -0.4903  0.2212  1.7435
 3610TIP3    H232246   3.960   5.678  16.106  0.2690 -0.3395  0.3589
 3611TIP3   OH232247   0.968   5.540   0.261  0.6336 -0.0158 -0.0476
 3611TIP3    H132248   0.879   5.572   0.249 -0.0487 -1.9367 -0.4006
 3611TIP3    H232249   1.009   5.549   0.175  0.7304  0.6512  0.0600
 3612TIP3   OH232250   0.222   4.307  13.790 -0.0276  0.2158  0.2013
 3612TIP3    H132251   0.194   4.349  13.871 -0.0117  1.2336 -0.3013
 3612TIP3    H232252   0.303   4.261  13.813  1.2075  2.3160  0.3065
 3613TIP3   OH232253   0.795   0.024   5.597 -0.3840  0.4248  0.1507
 3613TIP3    H132254   0.766   0.058   5.682  0.3449 -0.3400  0.7253
 3613TIP3    H232255   0.733   0.061   5.534 -1.6908  0.0340  1.1498
 3614TIP3   OH232256   2.815   5.430  12.677 -0.2858  0.0068  0.8393
 3614TIP3    H132257   2.824   5.506  12.734  1.6884  0.5275 -0.0813
 3614TIP3    H232258   2.807   5.466  12.589  0.0965 -0.8198  0.4497
 3615TIP3   OH232259   3.353   2.256  16.321  0.4928  0.0971  0.2719
 3615TIP3    H132260   3.431   2.306  16.346 -0.0836  0.3828  1.5966
 3615TIP3    H232261   3.280   2.317  16.333 -0.0156 -0.4095 -0.1707
 3616TIP3   OH232262   5.555   4.326   0.497 -0.2589  0.2682 -0.1979
 3616TIP3    H132263   5.471   4.296   0.463 -1.0904  1.2047  0.9448
 3616TIP3    H232264   5.544   4.420   0.509  1.5143  0.7114 -1.5763
 3617TIP3   OH232265   3.814   0.841  11.610 -0.3463 -0.2608 -0.6512
 3617TIP3    H132266   3.845   0.769  11.665  4.2277  2.0326  0.2704
 3617TIP3    H232267   3.847   0.820  11.522 -1.4298 -0.5184 -1.0167
 3618TIP3   OH232268   1.179   1.653  12.258 -0.9346 -0.3216 -0.4906
 3618TIP3    H132269   1.097   1.620  12.295 -1.9963  1.7244 -0.9012
 3618TIP3    H232270   1.153   1.727  12.203  1.2184  0.7432 -0.1894
 3619TIP3   OH232271   0.617   2.942  10.934 -0.3610  0.4719  0.3857
 3619TIP3    H132272   0.607   3.008  11.002 -1.8263  0.2700  0.3832
 3619TIP3    H232273   0.528   2.913  10.914  0.2509 -2.0580  0.9120
 3620TIP3   OH232274   3.211   2.134  13.209 -0.3704  0.1754  0.5002
 3620TIP3    H132275   3.307   2.129  13.213 -0.3222  0.5617 -0.0194
 3620TIP3    H232276   3.192   2.228  13.214 -0.6106  0.2450 -1.1544
 3621TIP3   OH232277   2.843   0.755   2.646 -0.3915  0.5182  0.6536
 3621TIP3    H132278   2.871   0.787   2.731  0.8444 -0.3344  0.5876
 3621TIP3    H232279   2.747   0.747   2.654 -0.2380 -0.2458  2.2172
 3622TIP3   OH232280   0.714   3.536   5.708  0.2143 -0.2202  0.0019
 3622TIP3    H132281   0.787   3.556   5.767  1.2513  1.5462 -1.7537
 3622TIP3    H232282   0.725   3.597   5.635 -4.1238  1.5361  0.5178
 3623TIP3   OH232283   0.089   1.363   5.599 -0.3180  0.2795  0.2050
 3623TIP3    H132284   0.037   1.389   5.523  0.8742  0.6351 -0.5217
 3623TIP3    H232285   0.108   1.271   5.584 -0.3722  0.2606  0.2519
 3624TIP3   OH232286   5.135   5.810  13.255  0.5613  0.1892 -0.2678
 3624TIP3    H132287   5.040   5.805  13.247  0.7276  0.6734 -4.3426
 3624TIP3    H232288   5.158   5.736  13.311 -2.2099  1.1937  2.5777
 3625TIP3   OH232289   5.015   3.354   5.328 -0.2057  0.5046 -0.3673
 3625TIP3    H132290   5.092   3.380   5.277  0.8709  0.3506  1.1183
 3625TIP3    H232291   5.016   3.412   5.405 -0.5471 -0.6794  0.5568
 3626TIP3   OH232292   6.009   5.331   3.114  0.1379 -0.2831  0.4936
 3626TIP3    H132293   5.971   5.251   3.151  0.3194  0.4421  2.3859
 3626TIP3    H232294   5.937   5.394   3.115  0.4336  0.0572  0.6653
 3627TIP3   OH232295   4.427   5.488  15.173  0.6715 -0.2823  0.0487
 3627TIP3    H132296   4.371   5.479  15.251  1.0817 -1.4184  0.2287
 3627TIP3    H232297   4.368   5.523  15.106 -0.0983 -0.7838  0.4353
 3628TIP3   OH232298   2.941   3.806  10.908  0.4517 -0.4147 -0.2519
 3628TIP3    H132299   3.019   3.862  10.902  0.5760 -0.3293  1.4510
 3628TIP3    H232300   2.868   3.865  10.888  0.5080  0.6726  2.3209
 3629TIP3   OH232301   2.992   5.911   6.599 -0.6537  0.0036  0.4549
 3629TIP3    H132302   3.012   5.902   6.506 -0.3223 -1.0297  0.6215
 3629TIP3    H232303   2.993   6.006   6.614 -2.1721  0.2919 -0.9078
 3630TIP3   OH232304   0.599   3.692   0.735  0.1139  0.1704 -0.6423
 3630TIP3    H132305   0.507   3.676   0.718 -0.1482  0.2156  0.6244
 3630TIP3    H232306   0.621   3.633   0.806  0.8843  0.6422 -0.4729
 3631TIP3   OH232307   2.504   1.018   1.468  0.6742  0.1464  0.2230
 3631TIP3    H132308   2.490   1.026   1.562  1.1357  0.8130  0.2476
 3631TIP3    H232309   2.580   1.075   1.451  0.0820  0.6924 -0.6769
 3632TIP3   OH232310   5.748   0.067   1.238 -0.5611 -0.3829  0.3284
 3632TIP3    H132311   5.695   0.145   1.251  0.3879  0.1532  1.0928
 3632TIP3    H232312   5.788   0.050   1.323  0.4086 -0.8267 -0.1965
 3633TIP3   OH232313   0.423   6.774  11.797  0.1105  0.8164 -0.0618
 3633TIP3    H132314   0.518   6.769  11.783  0.5118 -3.1511  2.3484
 3633TIP3    H232315   0.386   6.783  11.710  2.6607 -0.4752 -1.3963
 3634TIP3   OH232316   4.997   0.272   0.762  0.0045  0.9018  0.0618
 3634TIP3    H132317   5.047   0.262   0.681  1.5449 -1.2891  1.1743
 3634TIP3    H232318   5.064   0.286   0.830 -1.0131 -0.0196  1.3062
 3635TIP3   OH232319   0.579   6.087  10.648  0.2012 -0.1942  0.7600
 3635TIP3    H132320   0.557   6.012  10.703  0.7737 -0.7272  0.2724
 3635TIP3    H232321   0.618   6.049  10.570  0.4500  0.6135  0.4813
 3636TIP3   OH232322   5.867   2.785  11.156  0.3526  0.0160 -0.2142
 3636TIP3    H132323   5.936   2.840  11.119  1.1000 -0.1513  0.8755
 3636TIP3    H232324   5.827   2.742  11.080  0.2982  1.4189 -0.9996
 3637TIP3   OH232325   0.264   4.795  11.855  0.4694  0.1129 -0.1220
 3637TIP3    H132326   0.259   4.881  11.813  0.1314 -0.3643 -1.0904
 3637TIP3    H232327   0.194   4.744  11.813  0.2368 -0.4375  0.9044
 3638TIP3   OH232328   2.104   3.395   4.827  0.0416  0.1401  0.1288
 3638TIP3    H132329   2.090   3.462   4.761 -0.6288 -0.3099 -0.1996
 3638TIP3    H232330   2.051   3.321   4.797  1.4273 -0.8519  0.0223
 3639TIP3   OH232331   4.434   4.468   4.777 -0.0191  0.0495  0.1701
 3639TIP3    H132332   4.345   4.476   4.744 -0.3738 -1.0664  0.7851
 3639TIP3    H232333   4.489   4.506   4.709 -1.0431  1.9148  0.3371
 3640TIP3   OH232334   5.752   5.430  11.732  0.2016  0.3039  0.4737
 3640TIP3    H132335   5.783   5.342  11.713  1.5069  1.1217 -1.4577
 3640TIP3    H232336   5.771   5.443  11.825 -0.1068 -1.4542  0.8113
 3641TIP3   OH232337   3.678   4.536  15.048 -0.0198  0.4955 -0.7454
 3641TIP3    H132338   3.690   4.626  15.080  2.3333  0.5336 -1.5041
 3641TIP3    H232339   3.670   4.484  15.128  0.9475  1.1354 -0.2015
 3642TIP3   OH232340   0.395   2.444   0.348  0.0443 -0.5588 -0.1603
 3642TIP3    H132341   0.403   2.351   0.371 -1.8936 -1.1851 -1.7636
 3642TIP3    H232342   0.411   2.490   0.430 -1.3314 -2.4191  1.2546
 3643TIP3   OH232343   5.166   2.090   3.991  0.7404  0.0463  0.1105
 3643TIP3    H132344   5.150   2.145   4.067 -1.7699  0.6513 -0.7558
 3643TIP3    H232345   5.201   2.149   3.925  1.3991 -0.1464  0.2827
 3644TIP3   OH232346   0.740   5.486   0.760 -0.0510 -0.3645 -0.0895
 3644TIP3    H132347   0.757   5.576   0.731  1.4823 -0.0005  1.7044
 3644TIP3    H232348   0.656   5.490   0.805  0.1459  0.2446  0.2278
 3645TIP3   OH232349   3.778   2.792  12.848  0.6563 -0.4168  0.3686
 3645TIP3    H132350   3.803   2.701  12.832  1.2822 -0.4994  1.7136
 3645TIP3    H232351   3.728   2.790  12.930 -3.5613 -0.2039 -1.8754
 3646TIP3   OH232352   3.912   5.016   4.105 -0.3095  0.2409  0.1595
 3646TIP3    H132353   3.878   4.936   4.144 -0.7396  0.4047  0.1212
 3646TIP3    H232354   4.005   4.998   4.092 -0.4416 -0.3290 -0.0457
 3647TIP3   OH232355   4.102   5.267  13.778  0.4487 -0.1728  0.6177
 3647TIP3    H132356   4.112   5.362  13.769 -2.6256  0.0815 -1.6774
 3647TIP3    H232357   4.169   5.230  13.721  0.6778  0.6734  0.3184
 3648TIP3   OH232358   6.382   4.786   3.666 -0.0185  0.4131  0.2566
 3648TIP3    H132359   6.467   4.823   3.693  0.0749  1.3464 -1.2076
 3648TIP3    H232360   6.322   4.860   3.669 -0.8723 -0.2985  1.5127
 3649TIP3   OH232361   4.595   4.544   5.992  0.2001 -0.3142  0.0881
 3649TIP3    H132362   4.529   4.476   5.979  0.3121 -0.4067  0.0021
 3649TIP3    H232363   4.569   4.588   6.073 -0.5935  0.3560 -0.5154
 3650TIP3   OH232364   1.972   1.481   2.202 -0.2224 -0.0388 -0.3602
 3650TIP3    H132365   1.888   1.514   2.169 -0.6479  0.3795  1.0871
 3650TIP3    H232366   2.022   1.559   2.223  0.3070 -0.2978 -0.6299
 3651TIP3   OH232367   3.877   2.936   6.201 -0.2269 -0.7814  0.5746
 3651TIP3    H132368   3.895   3.030   6.201 -1.0157 -0.6214  0.0666
 3651TIP3    H232369   3.808   2.925   6.267 -1.5783 -0.6958 -0.7802
 3652TIP3   OH232370   0.262   6.630  11.075 -0.0508 -0.2336 -0.5639
 3652TIP3    H132371   0.173   6.657  11.058 -0.1846 -0.0513  0.3665
 3652TIP3    H232372   0.256   6.535  11.088 -0.1956 -0.1609 -0.0497
 3653TIP3   OH232373   0.941   6.529  15.147  0.3816 -0.2793 -1.2230
 3653TIP3    H132374   0.876   6.556  15.212  0.5905 -1.0657 -0.6706
 3653TIP3    H232375   1.019   6.580  15.169 -0.1625  1.0126 -2.1735
 3654TIP3   OH232376   6.237   3.405   3.539 -0.3992  0.2802 -0.4771
 3654TIP3    H132377   6.149   3.429   3.509 -0.8551 -0.2279  0.4163
 3654TIP3    H232378   6.255   3.466   3.611  0.2584  0.8119 -1.0855
 3655TIP3   OH232379   3.021   6.756   4.136  0.4104  0.7229 -0.1271
 3655TIP3    H132380   3.017   6.794   4.224 -2.5963  2.9728 -1.0867
 3655TIP3    H232381   3.047   6.829   4.079  1.7570 -0.5548 -1.2467
 3656TIP3   OH232382   2.829   0.305  16.684  0.2863 -0.0279  0.0502
 3656TIP3    H132383   2.826   0.253  16.764 -0.5107  1.7402  1.2394
 3656TIP3    H232384   2.903   0.270  16.634  0.9744 -0.9801  1.6888
 3657TIP3   OH232385   4.003   4.638   1.847 -0.1467  0.0330 -0.0421
 3657TIP3    H132386   3.940   4.709   1.837  0.4576  0.2582 -3.2103
 3657TIP3    H232387   3.994   4.612   1.938 -2.8949  1.8173  0.3418
 3658TIP3   OH232388   4.573   6.581  12.086 -0.0175 -0.2133  0.7935
 3658TIP3    H132389   4.486   6.568  12.050  0.1611 -0.4826  0.4555
 3658TIP3    H232390   4.630   6.524  12.034  0.6928  1.4156 -0.3258
 3659TIP3   OH232391   6.151   0.489  15.806 -0.3801  0.1801 -0.2273
 3659TIP3    H132392   6.186   0.509  15.719 -1.0615  3.4426  0.1144
 3659TIP3    H232393   6.056   0.483  15.792 -0.3559 -1.3476  0.0304
 3660TIP3   OH232394   0.581   2.723   0.588  0.3418 -0.1976  0.1764
 3660TIP3    H132395   0.625   2.669   0.522  0.9694  1.0516 -0.4605
 3660TIP3    H232396   0.507   2.670   0.616  1.7154 -1.9979  0.6179
 3661TIP3   OH232397   4.767   0.030   5.413 -0.1991  0.3741  0.1352
 3661TIP3    H132398   4.742   0.000   5.500  1.9743  1.4715  1.2147
 3661TIP3    H232399   4.861   0.049   5.420 -0.4692  2.9471 -1.7257
 3662TIP3   OH232400   4.982   4.396  14.555 -0.0239  0.5982  0.3751
 3662TIP3    H132401   5.011   4.307  14.577 -2.6673 -0.2880  0.6337
 3662TIP3    H232402   4.946   4.430  14.637  1.0331  1.9647  0.2938
 3663TIP3   OH232403   2.473   6.727   5.087 -0.7678 -0.3733  0.0554
 3663TIP3    H132404   2.470   6.657   5.153 -0.2727  0.5318  1.0785
 3663TIP3    H232405   2.567   6.746   5.077 -0.9128  0.3890  0.0800
 3664TIP3   OH232406   2.158   2.734  13.048 -0.2683  0.4984  0.4798
 3664TIP3    H132407   2.119   2.818  13.072 -0.8707  0.2087  0.5495
 3664TIP3    H232408   2.220   2.755  12.978  1.0021  1.2476  1.8034
 3665TIP3   OH232409   5.149   5.251   4.222  0.3735  0.2155 -0.1417
 3665TIP3    H132410   5.244   5.265   4.221  0.4035  0.1779  0.8610
 3665TIP3    H232411   5.121   5.283   4.308 -0.5976  0.6719 -0.6196
 3666TIP3   OH232412   1.949   4.613   4.676 -0.3935  0.8344  0.3954
 3666TIP3    H132413   2.009   4.688   4.681  1.0751 -0.2195 -0.4567
 3666TIP3    H232414   1.904   4.611   4.760  4.6954 -1.4526  3.5321
 3667TIP3   OH232415   4.139   0.949   4.704 -0.0778 -0.3813 -0.3181
 3667TIP3    H132416   4.126   0.941   4.610 -0.1535  1.3685 -0.4831
 3667TIP3    H232417   4.060   0.911   4.743 -0.0940 -1.0169 -0.9416
 3668TIP3   OH232418   5.589   5.069  11.794 -0.0690  0.6954  0.7056
 3668TIP3    H132419   5.536   5.030  11.725  1.3120  2.7080 -1.6775
 3668TIP3    H232420   5.530   5.131  11.837 -0.3185  1.2708 -0.4113
 3669TIP3   OH232421   5.912   3.881  12.280  0.3676 -0.5527 -0.2707
 3669TIP3    H132422   5.988   3.939  12.283  0.8000 -1.1224  0.0156
 3669TIP3    H232423   5.949   3.792  12.285 -0.2136 -0.9056 -1.6940
 3670TIP3   OH232424   1.461   3.656  16.462 -0.0068 -0.2316 -0.3962
 3670TIP3    H132425   1.390   3.605  16.501  0.1073 -0.0132  0.1139
 3670TIP3    H232426   1.488   3.606  16.385 -0.9735 -0.1227 -0.8223
 3671TIP3   OH232427   2.195   3.034   5.084  0.5957 -0.3513  0.0048
 3671TIP3    H132428   2.236   3.118   5.103 -0.7538  0.2165  0.5245
 3671TIP3    H232429   2.256   2.968   5.117  1.4453  0.4332  0.0142
 3672TIP3   OH232430   6.599   0.980  16.589 -0.3781 -0.6520  0.2264
 3672TIP3    H132431   6.506   0.977  16.611 -0.6486  0.7076 -0.6258
 3672TIP3    H232432   6.623   1.072  16.598  1.1587 -1.1118  1.4139
 3673TIP3   OH232433   6.334   4.353   0.936  0.5570  0.6206 -0.3972
 3673TIP3    H132434   6.265   4.380   0.997  1.2591  1.1252  0.1849
 3673TIP3    H232435   6.403   4.316   0.992  0.2694 -1.0326 -1.0553
 3674TIP3   OH232436   6.559   2.425   5.947 -0.3432  0.0923  0.0927
 3674TIP3    H132437   6.618   2.349   5.947  0.2188  0.4942 -1.3727
 3674TIP3    H232438   6.484   2.397   5.999  0.1804 -1.2176  0.1776
 3675TIP3   OH232439   2.295   3.946   5.457 -0.4948  0.3520  0.1682
 3675TIP3    H132440   2.215   3.987   5.424  0.4328  1.8465 -0.3208
 3675TIP3    H232441   2.358   3.956   5.386  0.0901 -0.9576  0.4780
 3676TIP3   OH232442   2.427   0.490  14.377 -0.1132 -0.3100 -0.0803
 3676TIP3    H132443   2.464   0.404  14.398 -0.9721 -0.5716  0.3925
 3676TIP3    H232444   2.361   0.473  14.310  1.3078  0.2908 -1.7235
 3677TIP3   OH232445   2.576   3.650   6.383 -0.0688 -0.4820 -0.2137
 3677TIP3    H132446   2.617   3.698   6.455 -1.0699  1.6792 -1.0067
 3677TIP3    H232447   2.529   3.578   6.425 -0.1264  0.3701  1.2370
 3678TIP3   OH232448   4.250   6.633  16.466  0.2697  0.3900 -0.3892
 3678TIP3    H132449   4.192   6.670  16.531  1.3975  0.3186  0.6947
 3678TIP3    H232450   4.323   6.695  16.460  0.0356  0.5607 -1.8330
 3679TIP3   OH232451   3.564   1.515  15.731  0.2901 -0.9687 -0.4999
 3679TIP3    H132452   3.593   1.450  15.795 -0.2373 -0.9778 -0.2639
 3679TIP3    H232453   3.637   1.576  15.724  0.1694 -0.6943  0.4821
 3680TIP3   OH232454   1.016   3.390   3.686  0.0951 -0.2891 -0.4446
 3680TIP3    H132455   1.045   3.481   3.691  1.9591 -0.7635 -1.3853
 3680TIP3    H232456   1.093   3.340   3.716 -0.3549 -1.5946 -1.4106
 3681TIP3   OH232457   1.694   6.030   0.340 -0.4161 -0.0587  0.1973
 3681TIP3    H132458   1.743   6.052   0.420 -0.6545  0.0269  0.3249
 3681TIP3    H232459   1.605   6.060   0.360 -0.6183 -0.6285  0.1460
 3682TIP3   OH232460   0.843   5.824   4.935 -0.2007 -0.1718  0.0532
 3682TIP3    H132461   0.876   5.743   4.897 -0.4177  0.0323 -0.5739
 3682TIP3    H232462   0.836   5.805   5.029  0.0753 -0.7632 -0.0426
 3683TIP3   OH232463   1.041   5.245  15.049  0.0436  0.5146 -0.2588
 3683TIP3    H132464   1.014   5.216  15.136 -0.0212  1.3960  0.0215
 3683TIP3    H232465   0.968   5.299  15.019  0.2573  0.5662 -0.6904
 3684TIP3   OH232466   2.508   1.045   3.458 -0.6957  0.1842 -0.1325
 3684TIP3    H132467   2.488   1.034   3.551  2.9356 -1.1035  0.6743
 3684TIP3    H232468   2.522   0.956   3.426  3.1116  0.7379 -0.4640
 3685TIP3   OH232469   0.951   3.209  13.929 -0.2827  0.7278  0.3101
 3685TIP3    H132470   0.976   3.285  13.876  1.7884 -0.6079 -0.7743
 3685TIP3    H232471   1.011   3.211  14.004  0.9193 -0.6353 -0.5515
 3686TIP3   OH232472   2.186   2.659  14.146  0.1187 -0.1327  0.1892
 3686TIP3    H132473   2.180   2.745  14.105 -1.4865 -1.0219 -1.5975
 3686TIP3    H232474   2.272   2.658  14.187  0.2424  2.2414  0.1059
 3687TIP3   OH232475   5.464   6.125  13.485  0.2635 -0.1356 -0.6016
 3687TIP3    H132476   5.428   6.198  13.434 -1.0255 -0.2006  0.1965
 3687TIP3    H232477   5.469   6.052  13.423 -4.4058 -1.2405 -0.0662
 3688TIP3   OH232478   6.148   5.091   6.735  0.3841  0.1246  0.0261
 3688TIP3    H132479   6.135   5.154   6.664 -0.2687  1.2147  1.0786
 3688TIP3    H232480   6.228   5.120   6.779  1.0165 -0.7898 -0.4923
 3689TIP3   OH232481   3.467   3.077  17.220 -0.7499  0.0492  0.3663
 3689TIP3    H132482   3.444   3.163  17.184 -2.0025  0.4587  2.0174
 3689TIP3    H232483   3.429   3.015  17.158 -1.4056  0.7154  0.0728
 3690TIP3   OH232484   3.258   4.242   5.546  0.1688  0.3207 -0.2141
 3690TIP3    H132485   3.243   4.232   5.452  2.5292  1.9310 -0.8495
 3690TIP3    H232486   3.175   4.276   5.579 -0.5553  0.2160 -1.8022
 3691TIP3   OH232487   5.587   2.167   1.779 -0.2742  0.3151  0.8452
 3691TIP3    H132488   5.493   2.181   1.765 -0.5387 -2.3505 -0.7287
 3691TIP3    H232489   5.608   2.221   1.855 -3.1108  0.8730  1.3526
 3692TIP3   OH232490   2.734   2.744   3.565  0.1893 -0.2950 -0.2019
 3692TIP3    H132491   2.788   2.682   3.613 -0.6049 -0.9107 -0.0842
 3692TIP3    H232492   2.710   2.698   3.485 -1.0901 -0.4708  0.2621
 3693TIP3   OH232493   4.618   3.598   1.343  0.1214 -0.0149 -0.1224
 3693TIP3    H132494   4.617   3.673   1.402  2.1109 -0.7322  0.9512
 3693TIP3    H232495   4.547   3.542   1.374  0.9469 -0.2417  1.5069
 3694TIP3   OH232496   0.775   5.240   5.636 -0.3573 -0.0511  0.4695
 3694TIP3    H132497   0.757   5.159   5.589 -0.6446 -0.9617  2.0764
 3694TIP3    H232498   0.863   5.265   5.608 -1.5030  0.9324 -2.5494
 3695TIP3   OH232499   1.737   2.596  13.709  0.0967 -0.7163  0.5510
 3695TIP3    H132500   1.650   2.586  13.748  0.0824 -2.8898  0.1188
 3695TIP3    H232501   1.790   2.529  13.753  1.2410 -0.2187 -0.0365
 3696TIP3   OH232502   5.091   6.615  15.929 -0.3085  0.2105 -0.5965
 3696TIP3    H132503   5.094   6.656  15.842 -2.4005  0.8084 -0.4429
 3696TIP3    H232504   5.041   6.535  15.916  1.1267 -0.7688 -0.2920
 3697TIP3   OH232505   5.175   2.880   4.521 -0.3360  0.2013 -0.6208
 3697TIP3    H132506   5.239   2.946   4.547  0.7398 -1.4519  1.2176
 3697TIP3    H232507   5.210   2.843   4.440 -0.6941  1.4676 -1.3934
 3698TIP3   OH232508   6.665   3.610  16.589  0.5593  0.3366  0.1218
 3698TIP3    H132509   6.586   3.664  16.580  0.5119  0.0861 -1.0743
 3698TIP3    H232510   6.639   3.542  16.652  0.6497  1.7083  1.7187
 3699TIP3   OH232511   3.577   1.085  13.354  0.0768  0.1554 -0.0627
 3699TIP3    H132512   3.533   1.119  13.276  0.7632 -0.4042 -0.7155
 3699TIP3    H232513   3.643   1.151  13.375  1.0523 -0.4603 -1.0136
 3700TIP3   OH232514   1.794   1.973   0.594 -0.0297 -0.0736 -0.8300
 3700TIP3    H132515   1.887   1.962   0.577 -0.1691 -0.1646 -1.5742
 3700TIP3    H232516   1.757   2.000   0.510 -0.7108 -0.2647 -0.6007
 3701TIP3   OH232517   2.582   1.464   3.300 -0.1877  0.0997  0.1588
 3701TIP3    H132518   2.608   1.540   3.248  1.1690  0.0323  0.6935
 3701TIP3    H232519   2.662   1.438   3.345 -0.4168 -2.1449 -0.6264
 3702TIP3   OH232520   3.267   6.282   3.999  0.0506  0.4545  0.4406
 3702TIP3    H132521   3.235   6.265   3.910  0.2838  2.1040  0.0045
 3702TIP3    H232522   3.223   6.216   4.053 -1.0050  0.1636 -0.7191
 3703TIP3   OH232523   4.020   1.683   1.228 -0.5844 -0.2224 -0.2649
 3703TIP3    H132524   3.992   1.675   1.137 -1.4789  1.9046 -0.2395
 3703TIP3    H232525   3.994   1.772   1.253 -1.0655 -1.0055  2.2990
 3704TIP3   OH232526   2.133   5.930  12.340 -0.2026  0.0193 -0.4055
 3704TIP3    H132527   2.038   5.942  12.337 -0.3782 -1.3642 -1.7104
 3704TIP3    H232528   2.149   5.854  12.284  1.5091 -0.7826  1.0499
 3705TIP3   OH232529   1.868   2.798   3.436  0.0447 -0.2159  0.0159
 3705TIP3    H132530   1.815   2.871   3.468 -1.6042 -1.6443  0.7188
 3705TIP3    H232531   1.852   2.727   3.499  1.3691 -1.2833 -0.7884
 3706TIP3   OH232532   0.344   0.721  15.557  0.5043  0.0142 -0.1842
 3706TIP3    H132533   0.349   0.629  15.530  1.3242  0.6725 -2.5168
 3706TIP3    H232534   0.290   0.763  15.490  0.2313  1.2770  0.7868
 3707TIP3   OH232535   6.256   0.034   2.390  0.2595  0.1645 -0.0274
 3707TIP3    H132536   6.178   0.051   2.337  0.2222  0.6653  0.1798
 3707TIP3    H232537   6.329   0.040   2.328  0.4670  3.2604  0.3368
 3708TIP3   OH232538   4.485   2.952  14.917  0.0275 -0.5517 -0.0915
 3708TIP3    H132539   4.525   2.937  15.003 -0.7509  2.9836  1.0962
 3708TIP3    H232540   4.558   2.954  14.856  0.8305 -1.1207  0.8320
 3709TIP3   OH232541   4.300   3.799  15.173  0.0533  0.0433  0.1654
 3709TIP3    H132542   4.288   3.777  15.080 -1.0362 -0.2934  0.3799
 3709TIP3    H232543   4.295   3.715  15.218  1.8993  0.0355  0.4298
 3710TIP3   OH232544   3.892   3.572  11.190 -0.2696 -0.8074 -0.4986
 3710TIP3    H132545   3.847   3.578  11.274  0.8929 -2.8089  0.3263
 3710TIP3    H232546   3.821   3.568  11.126 -1.1704  1.7759  0.2340
 3711TIP3   OH232547   4.235   4.108  12.322 -0.2700 -0.2463 -0.2328
 3711TIP3    H132548   4.246   4.147  12.409 -1.3869  0.6601 -0.4710
 3711TIP3    H232549   4.288   4.163  12.264 -2.5578  1.5778 -0.7178
 3712TIP3   OH232550   1.968   3.977  12.205  0.3744  0.5400  0.2916
 3712TIP3    H132551   2.051   4.021  12.184  1.0025 -0.8428 -0.2738
 3712TIP3    H232552   1.993   3.905  12.262 -0.3242 -0.3823 -0.5449
 3713TIP3   OH232553   5.554   2.444  13.580  0.4479 -0.4290 -0.9635
 3713TIP3    H132554   5.482   2.406  13.630  0.3408  0.6275 -0.2820
 3713TIP3    H232555   5.623   2.378  13.584  0.5385 -0.2734  0.8477
 3714TIP3   OH232556   6.749   1.650   3.032  0.4450 -0.1890  0.3332
 3714TIP3    H132557   6.779   1.625   3.119 -0.4225  1.2194  1.0868
 3714TIP3    H232558   6.708   1.571   2.997  3.0113 -1.5264  0.1182
 3715TIP3   OH232559   6.190   2.939  15.370  0.1333  0.4288 -0.6125
 3715TIP3    H132560   6.263   2.884  15.340  0.3113 -0.6448  1.5918
 3715TIP3    H232561   6.227   2.989  15.444 -1.4935 -0.6457  1.0030
 3716TIP3   OH232562   1.421   4.017   6.307  0.2510  0.3760  0.6079
 3716TIP3    H132563   1.372   4.055   6.380 -1.0152  1.5758 -0.8044
 3716TIP3    H232564   1.377   3.933   6.291 -1.9651  1.7181 -1.0686
 3717TIP3   OH232565   2.877   3.942   3.639 -0.7150  0.5356  0.3453
 3717TIP3    H132566   2.838   3.914   3.722  0.5205 -0.8683  0.5126
 3717TIP3    H232567   2.966   3.905   3.641 -0.1775  1.6591 -0.9971
 3718TIP3   OH232568   2.330   1.065  16.821  0.4691 -0.1452 -0.6553
 3718TIP3    H132569   2.410   1.109  16.793  0.2619  0.3269 -0.5117
 3718TIP3    H232570   2.276   1.060  16.743  0.5628 -0.3075 -0.7124
 3719TIP3   OH232571   2.514   0.788   2.992 -0.3790 -0.2366  0.2100
 3719TIP3    H132572   2.536   0.725   3.060 -0.4612 -2.5240 -1.7422
 3719TIP3    H232573   2.421   0.772   2.974 -0.2779  0.0608 -0.6430
 3720TIP3   OH232574   1.783   6.382  13.025 -0.0902 -0.3481  0.4771
 3720TIP3    H132575   1.865   6.413  12.988  1.5971 -3.0059  1.6762
 3720TIP3    H232576   1.740   6.461  13.059  1.4021  1.2556 -1.1637
 3721TIP3   OH232577   1.215   4.923   3.502 -0.9436 -0.0015 -0.4357
 3721TIP3    H132578   1.132   4.881   3.479 -1.5884  0.4629  0.9519
 3721TIP3    H232579   1.202   4.956   3.591  1.2919 -1.4108  0.5098
 3722TIP3   OH232580   1.906   5.275   0.627 -0.1291  0.1576  0.1613
 3722TIP3    H132581   1.932   5.234   0.544 -1.9159  0.4933 -0.6208
 3722TIP3    H232582   1.962   5.352   0.635  1.3815 -0.9222  0.2571
 3723TIP3   OH232583   2.220   5.480  15.274 -0.5735 -0.4599 -1.1286
 3723TIP3    H132584   2.127   5.499  15.261 -1.5251 -1.5542  2.6593
 3723TIP3    H232585   2.243   5.526  15.355  1.6074 -1.8882 -0.8333
 3724TIP3   OH232586   5.506   5.250   6.778 -0.1110 -0.3205  0.0688
 3724TIP3    H132587   5.446   5.179   6.802  1.1675 -0.8713  1.9442
 3724TIP3    H232588   5.592   5.208   6.773  0.4073  0.7725 -0.6255
 3725TIP3   OH232589   1.375   2.079  11.297  0.1136 -0.3986 -0.5187
 3725TIP3    H132590   1.338   2.001  11.254 -0.0381 -1.1025  0.8293
 3725TIP3    H232591   1.470   2.064  11.295  0.0990 -0.4991 -0.5113
 3726TIP3   OH232592   1.670   1.669  15.284  0.1484 -0.4606  0.1065
 3726TIP3    H132593   1.600   1.642  15.224  0.9518 -1.6361 -0.3347
 3726TIP3    H232594   1.719   1.589  15.302  0.9704  0.2077  0.9680
 3727TIP3   OH232595   4.894   4.257   0.412 -0.0721 -0.1053 -0.4668
 3727TIP3    H132596   4.896   4.178   0.464 -1.5038 -1.2893 -2.1033
 3727TIP3    H232597   4.801   4.274   0.395  0.1504  2.2785  0.3167
 3728TIP3   OH232598   4.913   0.565   1.834  0.8253 -0.4908  0.6344
 3728TIP3    H132599   4.986   0.598   1.886  1.5209 -1.7630  0.5145
 3728TIP3    H232600   4.923   0.469   1.838  1.1252 -0.6544 -2.1295
 3729TIP3   OH232601   6.268   0.526  14.564 -0.3511 -0.0965  0.2149
 3729TIP3    H132602   6.351   0.517  14.611 -0.7017 -1.4217  0.6236
 3729TIP3    H232603   6.202   0.492  14.625 -0.8738 -1.4074 -1.0164
 3730TIP3   OH232604   1.408   0.792   1.854 -0.0712  0.2305  0.0429
 3730TIP3    H132605   1.488   0.761   1.897 -1.4484  0.7845  3.2766
 3730TIP3    H232606   1.374   0.715   1.808  0.2685 -1.1617  2.0005
 3731TIP3   OH232607   1.977   1.025   4.404  0.0924  0.2822 -0.5287
 3731TIP3    H132608   2.030   1.008   4.482  0.4016  1.5112 -0.4463
 3731TIP3    H232609   2.041   1.047   4.336 -0.0613 -2.3576 -1.6096
 3732TIP3   OH232610   4.305   4.786  14.182  0.1714 -0.2591  0.1675
 3732TIP3    H132611   4.261   4.774  14.266  0.2088 -0.4827  0.1550
 3732TIP3    H232612   4.245   4.842  14.131  0.6105  0.7216  0.7052
 3733TIP3   OH232613   4.852   5.120   4.402 -0.2258 -0.2836  0.2170
 3733TIP3    H132614   4.830   5.037   4.358 -0.4859 -0.2434  0.2708
 3733TIP3    H232615   4.940   5.105   4.437  0.6060  0.1767 -1.5538
 3734TIP3   OH232616   0.966   6.263  15.337 -0.4504  0.1141  0.0455
 3734TIP3    H132617   1.047   6.301  15.370 -0.9314  2.1066 -0.8902
 3734TIP3    H232618   0.922   6.336  15.293 -1.6367 -1.4738 -1.5316
 3735TIP3   OH232619   2.737   5.105   1.938 -0.7704 -0.1409  0.1777
 3735TIP3    H132620   2.823   5.148   1.933 -1.1788  0.5818 -0.9969
 3735TIP3    H232621   2.701   5.133   2.022  0.3121 -0.7953  0.8831
 3736TIP3   OH232622   6.153   5.853   0.796 -0.4993 -0.0537  0.1467
 3736TIP3    H132623   6.244   5.870   0.820 -0.0424 -0.8744 -0.8956
 3736TIP3    H232624   6.152   5.865   0.701 -1.7727  1.1649  0.2826
 3737TIP3   OH232625   6.567   4.347  14.033  0.4496  0.3646 -0.5954
 3737TIP3    H132626   6.636   4.281  14.039  0.3857  0.2933 -0.6508
 3737TIP3    H232627   6.539   4.360  14.123 -0.1753 -0.3556 -0.6810
 3738TIP3   OH232628   2.010   0.639   1.029 -0.1400  0.2365 -0.1239
 3738TIP3    H132629   2.001   0.729   1.060 -0.2403  0.3889 -0.5898
 3738TIP3    H232630   1.920   0.609   1.016 -0.1500 -0.2815  1.0032
 3739TIP3   OH232631   1.372   4.418  15.623  0.3583  0.1240  0.1462
 3739TIP3    H132632   1.320   4.480  15.674  0.6796 -0.3325  1.0604
 3739TIP3    H232633   1.430   4.473  15.570 -0.7215  0.6241 -0.5300
 3740TIP3   OH232634   4.653   5.915   5.503  0.0388  0.2782  0.5923
 3740TIP3    H132635   4.683   5.997   5.543  0.8092  0.3521 -0.1104
 3740TIP3    H232636   4.692   5.847   5.556 -0.0503  0.3676  0.7736
 3741TIP3   OH232637   3.579   2.285   2.688 -0.5034  0.2770 -0.0902
 3741TIP3    H132638   3.493   2.266   2.724 -0.3076 -1.3468 -0.4061
 3741TIP3    H232639   3.562   2.338   2.610 -1.2834 -0.6046 -0.5362
 3742TIP3   OH232640   1.244   6.083   6.193 -0.0775  0.3174 -0.3734
 3742TIP3    H132641   1.296   6.132   6.130  0.9163 -0.4939 -0.2022
 3742TIP3    H232642   1.307   6.031   6.243 -1.1555 -4.6029 -3.3811
 3743TIP3   OH232643   5.218   3.630  16.040 -0.2484  0.0415  0.1516
 3743TIP3    H132644   5.242   3.694  15.973 -2.1174 -0.0543 -0.6639
 3743TIP3    H232645   5.126   3.613  16.025  0.0131 -2.2982  0.8514
 3744TIP3   OH232646   3.613   5.564  16.902  0.2085 -0.5325  0.3576
 3744TIP3    H132647   3.620   5.520  16.986  1.2985 -0.1813  0.4698
 3744TIP3    H232648   3.631   5.495  16.838 -5.2442 -2.0873 -0.0419
 3745TIP3   OH232649   1.024   4.744   5.765  0.3593  0.2462  0.0854
 3745TIP3    H132650   1.064   4.827   5.737 -0.6898  0.2707 -1.4723
 3745TIP3    H232651   0.949   4.733   5.707  0.5732 -1.8955  0.1378
 3746TIP3   OH232652   3.818   2.793  11.962  0.5890  0.7371  0.5847
 3746TIP3    H132653   3.731   2.761  11.937  0.5311  0.3651  1.2338
 3746TIP3    H232654   3.855   2.721  12.014  1.9290  0.2125 -1.0232
 3747TIP3   OH232655   6.053   0.334  13.954  0.4801 -0.9157 -0.0865
 3747TIP3    H132656   6.054   0.337  13.858  0.2675 -1.7084 -0.1165
 3747TIP3    H232657   6.035   0.424  13.980  4.4107  0.2509 -0.6871
 3748TIP3   OH232658   4.267   1.575  15.855 -0.0300  0.5612 -0.4790
 3748TIP3    H132659   4.313   1.491  15.850 -0.8792  0.0201  0.4508
 3748TIP3    H232660   4.336   1.639  15.871  0.6304  0.0471 -1.2242
 3749TIP3   OH232661   3.762   1.494   0.561  0.1131  0.2895 -0.4934
 3749TIP3    H132662   3.783   1.531   0.647 -0.7737 -0.2724 -0.0212
 3749TIP3    H232663   3.786   1.402   0.569  0.7871  0.4039 -1.1260
 3750TIP3   OH232664   1.111   2.356  16.654  0.7644  0.0876 -0.2744
 3750TIP3    H132665   1.133   2.338  16.745  1.1255 -0.2595 -0.4286
 3750TIP3    H232666   1.155   2.287  16.604 -0.3113 -0.3656 -0.6266
 3751TIP3   OH232667   5.695   0.904  13.435  0.2277  0.1776  0.3619
 3751TIP3    H132668   5.764   0.886  13.371  0.1474 -0.2790  0.4017
 3751TIP3    H232669   5.738   0.959  13.500  0.0224  1.5836 -0.6460
 3752TIP3   OH232670   2.180   6.734  17.230 -0.0513 -0.0732 -0.3742
 3752TIP3    H132671   2.128   6.801  17.186  0.2425  0.6348  0.3194
 3752TIP3    H232672   2.250   6.783  17.273  0.6951 -0.9219 -0.5880
 3753TIP3   OH232673   2.967   2.853  12.947 -0.0542  0.0892 -0.2013
 3753TIP3    H132674   2.962   2.760  12.926 -0.1964 -0.1208  0.7223
 3753TIP3    H232675   3.010   2.856  13.032  0.3273  0.8973 -0.4150
 3754TIP3   OH232676   5.149   1.052   0.265 -0.2671 -0.0917 -0.0305
 3754TIP3    H132677   5.101   1.016   0.340 -0.4451  0.2036  0.0015
 3754TIP3    H232678   5.239   1.059   0.295  0.0718 -1.9146 -0.5381
 3755TIP3   OH232679   4.222   1.933   2.582  0.0706 -0.1756 -0.1276
 3755TIP3    H132680   4.153   1.937   2.515 -1.9884 -0.4760  1.8487
 3755TIP3    H232681   4.254   2.023   2.588  1.2001 -0.3739 -2.3324
 3756TIP3   OH232682   2.738   3.258   3.735 -0.1999  0.1942  0.3379
 3756TIP3    H132683   2.655   3.241   3.691  0.0056  0.3675 -0.1241
 3756TIP3    H232684   2.719   3.245   3.828 -0.6986  0.0617  0.2212
 3757TIP3   OH232685   1.124   3.980   4.691  0.3866  0.4828  0.1784
 3757TIP3    H132686   1.095   4.007   4.604  0.8386 -1.4923 -0.6478
 3757TIP3    H232687   1.203   4.031   4.707  0.4718  0.6485 -0.7223
 3758TIP3   OH232688   2.521   2.318   2.790 -1.3317  0.3652 -0.2354
 3758TIP3    H132689   2.448   2.299   2.849 -1.1438  1.9183  0.5504
 3758TIP3    H232690   2.565   2.393   2.829 -0.1760  0.3781 -1.4742
 3759TIP3   OH232691   3.300   1.763   3.337 -0.2005  0.7613 -0.6675
 3759TIP3    H132692   3.243   1.816   3.392 -2.7210 -3.2548  1.0353
 3759TIP3    H232693   3.381   1.755   3.387 -1.4071 -0.4464  1.1918
 3760TIP3   OH232694   4.148   4.119   0.261 -0.1889 -0.1806 -0.2034
 3760TIP3    H132695   4.094   4.077   0.329 -0.7027 -1.4615 -1.3669
 3760TIP3    H232696   4.234   4.078   0.271  0.3672  1.2360  1.0870
 3761TIP3   OH232697   1.731   2.574  14.649  0.2615 -0.4523  0.2517
 3761TIP3    H132698   1.792   2.517  14.601  1.7994  0.3290  1.1794
 3761TIP3    H232699   1.787   2.620  14.712 -1.3248  0.2926  1.1659
 3762TIP3   OH232700   4.334   4.979  12.885 -0.2511  0.0269 -0.6251
 3762TIP3    H132701   4.335   5.046  12.817 -0.4654  0.1308 -0.5260
 3762TIP3    H232702   4.394   4.911  12.853 -0.9137 -0.2653 -1.2687
 3763TIP3   OH232703   0.007   2.389  13.166  0.1084 -0.3570  0.1494
 3763TIP3    H132704   0.009   2.476  13.125 -1.1757 -0.3089  0.1345
 3763TIP3    H232705   0.045   2.403  13.252  1.7519 -0.2137 -0.5578
 3764TIP3   OH232706   0.894   6.023   3.339  0.5987  0.6144  0.7020
 3764TIP3    H132707   0.888   6.072   3.258  1.5424  1.2625  1.0034
 3764TIP3    H232708   0.907   6.089   3.407  0.0311  0.0730  1.3584
 3765TIP3   OH232709   5.200   1.754  12.894  0.1835  0.3782  0.4128
 3765TIP3    H132710   5.278   1.719  12.937 -0.4328 -0.5281  0.8166
 3765TIP3    H232711   5.222   1.753  12.801 -0.1413 -2.0134  0.3073
 3766TIP3   OH232712   5.488   1.659  11.477 -0.3512  0.4570  0.4056
 3766TIP3    H132713   5.544   1.614  11.541  2.0762  1.3525 -0.9506
 3766TIP3    H232714   5.509   1.618  11.393  0.2449  2.5398 -0.5319
 3767TIP3   OH232715   2.064   3.298   3.375 -0.0695 -0.1413  0.5051
 3767TIP3    H132716   2.041   3.226   3.316 -1.1167  0.9404 -0.4608
 3767TIP3    H232717   2.123   3.353   3.324  0.7535 -0.3134  1.2492
 3768TIP3   OH232718   3.308   6.710  13.081 -0.2659  0.1943 -0.1165
 3768TIP3    H132719   3.372   6.671  13.022 -0.5897  0.0976 -0.4120
 3768TIP3    H232720   3.235   6.648  13.081 -1.7793  1.7954 -2.3591
 3769TIP3   OH232721   4.106   6.617   0.009  0.1217 -0.4822  0.4672
 3769TIP3    H132722   4.078   6.607  -0.081  0.1590 -1.3515  0.5388
 3769TIP3    H232723   4.106   6.711   0.025 -0.7266 -0.3726 -0.1651
 3770TIP3   OH232724   5.934   2.962   5.771  0.1474 -1.0685 -0.8878
 3770TIP3    H132725   5.866   2.919   5.823  0.9169 -0.9794  0.2201
 3770TIP3    H232726   5.901   3.050   5.756  0.7036 -0.4800  1.0687
 3771TIP3   OH232727   6.286   5.206   4.618 -0.3084 -0.1791 -0.5395
 3771TIP3    H132728   6.278   5.264   4.543 -1.1561  0.5759  0.1193
 3771TIP3    H232729   6.277   5.263   4.694 -2.1838 -1.2650  0.1255
 3772TIP3   OH232730   6.184   5.009  11.106  0.0227  0.3573 -0.3082
 3772TIP3    H132731   6.144   4.985  11.189  3.9337  1.4123  2.1284
 3772TIP3    H232732   6.184   4.928  11.055 -1.9643 -0.4634  0.8775
 3773TIP3   OH232733   4.244   0.030  15.871  0.4026  0.7543 -0.1126
 3773TIP3    H132734   4.184   0.091  15.829  0.1708  0.0521 -0.8467
 3773TIP3    H232735   4.225  -0.054  15.830  0.8254  0.2145  0.7515
 3774TIP3   OH232736   1.303   5.703   0.733 -0.1625  0.5649 -0.0769
 3774TIP3    H132737   1.374   5.658   0.778 -0.5042 -1.5257 -1.5197
 3774TIP3    H232738   1.250   5.742   0.803  0.6661 -0.4961  1.1688
 3775TIP3   OH232739   6.625   3.196  13.206 -0.1895  0.2721  0.1317
 3775TIP3    H132740   6.542   3.234  13.177 -0.5365 -1.4620 -1.2826
 3775TIP3    H232741   6.605   3.159  13.292 -0.2467  1.8423  0.8295
 3776TIP3   OH232742   2.615   4.838  14.189 -0.2956  0.4684 -0.4962
 3776TIP3    H132743   2.599   4.933  14.196  0.7176  0.5195  1.9660
 3776TIP3    H232744   2.689   4.822  14.246 -0.5966 -1.8775 -0.6905
 3777TIP3   OH232745   1.209   1.149  15.851  0.2861  0.6745  0.2288
 3777TIP3    H132746   1.234   1.123  15.940 -2.6177 -1.8031  0.4708
 3777TIP3    H232747   1.114   1.154  15.852  0.2119  1.9981 -2.4372
 3778TIP3   OH232748   4.027   2.835  16.306  0.1928 -0.0416  0.2737
 3778TIP3    H132749   3.945   2.797  16.274  0.2342  1.9309 -2.5970
 3778TIP3    H232750   4.000   2.908  16.361  0.0245 -0.2163  0.4230
 3779TIP3   OH232751   2.948   3.813  15.245  0.2707  0.4454  0.6468
 3779TIP3    H132752   3.022   3.752  15.249  0.2105  0.2336 -0.8011
 3779TIP3    H232753   2.988   3.899  15.237  0.4530  0.2018 -1.9894
 3780TIP3   OH232754   4.665   1.498   0.490  0.7469 -0.1393  0.4073
 3780TIP3    H132755   4.654   1.495   0.395  0.4284 -0.7101  0.4573
 3780TIP3    H232756   4.579   1.472   0.524  0.9763 -0.3145  0.8505
 3781TIP3   OH232757   4.856   6.552  11.169 -0.1624 -0.5753  0.0002
 3781TIP3    H132758   4.795   6.478  11.163  0.0469 -0.9169  1.6273
 3781TIP3    H232759   4.943   6.510  11.172 -0.0381 -0.2760  0.8271
 3782TIP3   OH232760   4.150   1.517  14.002 -0.3887  0.0637 -0.6737
 3782TIP3    H132761   4.102   1.540  14.081 -2.8936 -1.2410 -1.7082
 3782TIP3    H232762   4.186   1.430  14.019 -1.1111 -0.3096 -1.0245
 3783TIP3   OH232763   2.688   1.471   3.841 -0.5981  0.9346 -0.2500
 3783TIP3    H132764   2.712   1.381   3.817  0.7912  0.9170  1.0471
 3783TIP3    H232765   2.616   1.460   3.903  2.3855  0.2895  3.5149
 3784TIP3   OH232766   1.478   3.910   0.538 -0.6662 -0.2831 -0.4107
 3784TIP3    H132767   1.439   3.903   0.451  0.8502  1.0140 -1.2371
 3784TIP3    H232768   1.493   3.819   0.565 -1.6286 -0.7123 -1.2666
 3785TIP3   OH232769   3.151   1.098  12.625  0.3554  0.9740  0.0553
 3785TIP3    H132770   3.096   1.062  12.556  1.2811 -0.0289 -0.1732
 3785TIP3    H232771   3.131   1.045  12.702  1.1391  0.4672 -0.0818
 3786TIP3   OH232772   4.279   2.877  16.168  0.2812  0.0837  0.5139
 3786TIP3    H132773   4.188   2.865  16.195  0.7366 -1.2716  1.5307
 3786TIP3    H232774   4.280   2.961  16.123 -1.3660  0.3699  0.9741
 3787TIP3   OH232775   6.447   3.024  13.861  0.4440 -0.2769  0.0262
 3787TIP3    H132776   6.509   3.010  13.790  0.7263 -0.2518  0.2652
 3787TIP3    H232777   6.448   3.119  13.876 -1.3859  0.0349 -1.5172
 3788TIP3   OH232778   2.517   1.768  14.052  0.3450  0.0865  0.4059
 3788TIP3    H132779   2.522   1.837  13.986 -1.1032 -0.0488  0.1249
 3788TIP3    H232780   2.469   1.806  14.125 -0.3202 -0.5660  0.3160
 3789TIP3   OH232781   4.441   2.887   3.258 -0.1568 -0.5012  0.7236
 3789TIP3    H132782   4.473   2.799   3.275 -0.8534 -0.7664  0.6741
 3789TIP3    H232783   4.346   2.881   3.265 -0.2213  0.2269  0.6359
 3790TIP3   OH232784   3.813   1.691  11.534 -0.1615 -0.2565  0.2690
 3790TIP3    H132785   3.825   1.605  11.574 -2.1492 -1.0844 -0.7945
 3790TIP3    H232786   3.885   1.699  11.472 -0.5395 -1.6204 -0.3700
 3791TIP3   OH232787   4.044   5.303   3.392  0.3149 -0.1519  0.2112
 3791TIP3    H132788   3.996   5.235   3.439 -0.3279  1.3182  1.8289
 3791TIP3    H232789   4.112   5.256   3.343 -0.1465 -1.9397  1.2003
 3792TIP3   OH232790   5.322   0.202  15.269 -0.0515  0.1537  0.3128
 3792TIP3    H132791   5.374   0.173  15.195 -0.7912  0.9002 -0.5303
 3792TIP3    H232792   5.385   0.227  15.336  0.6482  0.3896 -0.4298
 3793TIP3   OH232793   2.462   4.319   3.196 -0.3822  0.2110  0.3521
 3793TIP3    H132794   2.494   4.321   3.286 -2.6674 -0.3292  1.2513
 3793TIP3    H232795   2.522   4.376   3.148  0.6043  0.9217  2.3226
 3794TIP3   OH232796   3.164   2.451   3.517  0.2197 -0.0487  0.1802
 3794TIP3    H132797   3.174   2.364   3.480  1.8229  0.6509 -1.1510
 3794TIP3    H232798   3.174   2.438   3.612 -0.6604 -1.4218  0.1089
 3795TIP3   OH232799   1.904   1.673  16.201 -0.3422 -0.2334 -0.5498
 3795TIP3    H132800   1.919   1.587  16.239  0.4764  0.3102  0.4020
 3795TIP3    H232801   1.812   1.671  16.172 -1.3330 -0.3664  2.3258
 3796TIP3   OH232802   3.925   3.033   5.156  0.3309 -0.0824 -0.3240
 3796TIP3    H132803   3.836   3.066   5.172 -0.2377 -1.5456 -0.2598
 3796TIP3    H232804   3.921   2.940   5.182  1.6388 -0.4015 -1.1639
 3797TIP3   OH232805   0.964   6.325  14.965 -0.3838 -0.0721  0.1283
 3797TIP3    H132806   1.052   6.362  14.961  0.3518 -1.5135  1.8060
 3797TIP3    H232807   0.923   6.368  15.040 -1.2381  0.7589 -0.7752
 3798TIP3   OH232808   4.576   5.745  14.980 -0.2374 -0.5886  0.0718
 3798TIP3    H132809   4.511   5.678  14.964 -1.6296  0.4107  1.2983
 3798TIP3    H232810   4.526   5.821  15.009  1.4036  0.5019  0.1868
 3799TIP3   OH232811   0.115   1.723  15.335 -0.4819 -0.1085 -0.0556
 3799TIP3    H132812   0.104   1.628  15.330  0.8431 -0.2366 -1.0833
 3799TIP3    H232813   0.085   1.755  15.250  1.7623  0.0668 -0.8244
 3800TIP3   OH232814   5.527   0.629   5.546  1.1665  0.1348 -0.2047
 3800TIP3    H132815   5.447   0.651   5.594  1.2986 -0.1934  0.1662
 3800TIP3    H232816   5.597   0.671   5.597  1.0602  2.2250 -1.6535
 3801TIP3   OH232817   3.296   0.868  14.343 -0.5319  0.1424  0.8427
 3801TIP3    H132818   3.209   0.830  14.351  0.2089 -1.3387  2.4043
 3801TIP3    H232819   3.286   0.938  14.278 -2.6785 -0.5378  0.3775
 3802TIP3   OH232820   4.836   5.322   6.170  0.2227 -0.1223  0.0161
 3802TIP3    H132821   4.799   5.398   6.216  2.3820  1.2255 -0.3450
 3802TIP3    H232822   4.889   5.360   6.100  2.2184 -1.9074  0.4692
 3803TIP3   OH232823   3.814   2.695   3.351  0.2467  0.1622 -0.1367
 3803TIP3    H132824   3.783   2.648   3.428 -0.6287  1.0926  0.0969
 3803TIP3    H232825   3.736   2.707   3.297  0.9028 -0.7494 -1.3338
 3804TIP3   OH232826   1.869   0.670  11.186 -0.3984  0.4136  0.3456
 3804TIP3    H132827   1.824   0.740  11.138 -2.3971 -1.7559 -1.2198
 3804TIP3    H232828   1.886   0.707  11.272 -1.0268  2.9207 -0.5142
 3805TIP3   OH232829   2.743   5.395   3.675 -0.0837 -0.0621  0.3609
 3805TIP3    H132830   2.764   5.481   3.711  0.7645 -1.0137  2.2797
 3805TIP3    H232831   2.821   5.343   3.693  0.3347 -0.6874 -2.8018
 3806TIP3   OH232832   0.636   1.818   1.269  0.1663 -0.4539  0.0643
 3806TIP3    H132833   0.553   1.862   1.284  0.3447  0.1410 -0.6539
 3806TIP3    H232834   0.613   1.735   1.228  0.0168  1.0625 -3.2752
 3807TIP3   OH232835   5.837   1.123   4.071 -0.2828 -0.2561 -0.0764
 3807TIP3    H132836   5.848   1.192   4.137  0.7716  0.4402 -0.9339
 3807TIP3    H232837   5.920   1.077   4.070 -0.7711 -1.1579  0.0450
 3808TIP3   OH232838   0.671   4.233   3.812 -0.1690  0.8576  0.1324
 3808TIP3    H132839   0.714   4.187   3.740 -1.3405 -1.2152  0.6991
 3808TIP3    H232840   0.678   4.326   3.789  0.9771  0.3386 -1.7771
 3809TIP3   OH232841   0.958   6.112   0.354 -0.4817 -0.1032  0.0133
 3809TIP3    H132842   0.867   6.087   0.372 -0.7365 -0.2905 -1.4051
 3809TIP3    H232843   0.963   6.117   0.259  1.4845 -1.9373 -0.0416
 3810TIP3   OH232844   3.951   2.558  10.494 -0.3432  0.0532  0.6661
 3810TIP3    H132845   4.040   2.588  10.475 -0.9953  1.2842 -0.6202
 3810TIP3    H232846   3.946   2.472  10.453  0.2475 -0.0145  0.7286
 3811TIP3   OH232847   3.790   6.786   4.764 -0.2459 -0.0805 -0.1415
 3811TIP3    H132848   3.806   6.711   4.821  2.3370  0.2706 -0.2708
 3811TIP3    H232849   3.788   6.861   4.823  1.0122  0.1255 -0.3290
 3812TIP3   OH232850   6.130   2.182   5.310  0.7469 -0.1870  0.5488
 3812TIP3    H132851   6.116   2.105   5.364 -2.5336 -0.0967 -0.0049
 3812TIP3    H232852   6.135   2.148   5.221  1.8782  0.0519  0.5047
 3813TIP3   OH232853   6.653   1.549  13.019  0.6901 -0.3378 -0.3709
 3813TIP3    H132854   6.637   1.621  13.080  3.5745 -0.2329  0.3947
 3813TIP3    H232855   6.650   1.591  12.932  0.5588  0.3282 -0.0552
 3814TIP3   OH232856   0.196   1.152   2.455 -0.2062  0.2417  0.1676
 3814TIP3    H132857   0.291   1.151   2.468  0.2405 -1.2374 -2.5266
 3814TIP3    H232858   0.164   1.081   2.511  0.3241  0.4393  0.7327
 3815TIP3   OH232859   4.217   2.463  15.716 -0.3605  0.1382  0.5859
 3815TIP3    H132860   4.245   2.457  15.808  0.3056  0.4073  0.3964
 3815TIP3    H232861   4.122   2.473  15.722 -0.6902 -2.5338  1.1891
 3816TIP3   OH232862   5.407   0.405   4.406  0.0026  0.5878 -0.4847
 3816TIP3    H132863   5.381   0.418   4.315  1.8543  1.0746 -0.9997
 3816TIP3    H232864   5.444   0.316   4.407  0.8762  0.9448 -0.4551
 3817TIP3   OH232865   2.553   1.096   5.403 -0.1642  0.1004 -0.2893
 3817TIP3    H132866   2.507   1.172   5.437 -1.2828 -0.7129  0.0962
 3817TIP3    H232867   2.486   1.047   5.356 -0.2552 -2.1481  1.9528
 3818TIP3   OH232868   1.567   4.278   2.540 -0.2147 -0.0107  0.2337
 3818TIP3    H132869   1.617   4.210   2.585 -0.1471  0.6296  1.1574
 3818TIP3    H232870   1.632   4.345   2.517 -0.3588 -0.0187 -0.1995
 3819TIP3   OH232871   1.309   2.714  17.143 -0.6060  0.7890  0.0669
 3819TIP3    H132872   1.351   2.795  17.113  2.8561 -1.0650 -0.6793
 3819TIP3    H232873   1.307   2.722  17.238 -2.2420  2.5238 -0.0533
 3820TIP3   OH232874   3.152   5.363  14.348 -0.2199  0.2324 -0.5487
 3820TIP3    H132875   3.118   5.380  14.260  0.8981 -1.4213 -1.3564
 3820TIP3    H232876   3.076   5.371  14.405 -0.9905  1.2528 -1.6529
 3821TIP3   OH232877   2.803   4.039  13.689 -0.4422 -0.4102  0.3660
 3821TIP3    H132878   2.755   4.091  13.625 -0.1917 -0.0131  0.4942
 3821TIP3    H232879   2.869   3.993  13.638 -0.3351 -0.2046  0.3185
 3822TIP3   OH232880   0.789   3.278  10.798  0.1858 -0.1876 -0.0589
 3822TIP3    H132881   0.858   3.296  10.734  1.2711 -2.9753  0.2023
 3822TIP3    H232882   0.716   3.245  10.746  0.2993 -0.4830 -0.0284
 3823TIP3   OH232883   0.398   0.086   5.206 -0.6644 -0.1897  0.1494
 3823TIP3    H132884   0.433   0.139   5.278 -0.3696 -1.2720  0.8200
 3823TIP3    H232885   0.365   0.150   5.143 -0.0870  0.7960  0.8236
 3824TIP3   OH232886   4.659   5.125  11.532  0.1534 -0.1078 -0.6109
 3824TIP3    H132887   4.726   5.189  11.555 -2.0872  2.0103  0.4532
 3824TIP3    H232888   4.633   5.148  11.443 -0.2562  0.0808 -0.4427
 3825TIP3   OH232889   5.961   4.993   4.195 -0.1853 -0.1277 -0.9317
 3825TIP3    H132890   5.944   4.905   4.161  1.1470 -0.5877 -0.4938
 3825TIP3    H232891   5.893   5.007   4.262  0.3841 -1.3990 -0.0419
 3826TIP3   OH232892   5.779   0.829   3.141  0.3366  0.3621 -0.0797
 3826TIP3    H132893   5.805   0.808   3.051 -0.5169  1.2093 -0.5448
 3826TIP3    H232894   5.766   0.923   3.141  0.8895  0.4615  1.1028
 3827TIP3   OH232895   3.695   0.168   3.504 -0.0432  0.7976  1.4334
 3827TIP3    H132896   3.662   0.189   3.417 -1.5009 -0.1224  1.7206
 3827TIP3    H232897   3.773   0.223   3.515  1.9045 -1.1014 -1.5584
 3828TIP3   OH232898   5.186   4.455   4.266 -0.0475  0.6314 -0.1124
 3828TIP3    H132899   5.113   4.457   4.327  1.1452  2.4967  1.3662
 3828TIP3    H232900   5.250   4.397   4.307  1.6373  3.4741  1.6900
 3829TIP3   OH232901   5.306   5.836   3.974 -0.2899 -0.4065  0.1162
 3829TIP3    H132902   5.235   5.814   3.913 -0.9823 -0.1898  0.8319
 3829TIP3    H232903   5.282   5.793   4.056 -0.1541  0.5517  0.6738
 3830TIP3   OH232904   4.805   1.272   5.173 -0.4587  0.2660 -0.3945
 3830TIP3    H132905   4.797   1.367   5.165  0.1228  0.3528 -0.0074
 3830TIP3    H232906   4.877   1.248   5.115 -1.2085 -0.0607 -1.2034
 3831TIP3   OH232907   5.683   3.184   4.378 -0.1178  0.1759  0.1034
 3831TIP3    H132908   5.670   3.099   4.419  0.2154 -0.4399 -1.0245
 3831TIP3    H232909   5.718   3.239   4.448 -0.7286 -0.4895  0.9524
 3832TIP3   OH232910   6.644   3.414   4.481 -0.2741 -0.2006 -0.0202
 3832TIP3    H132911   6.610   3.434   4.394  1.3546  1.5007 -0.3384
 3832TIP3    H232912   6.647   3.498   4.526  0.6332 -0.7666  1.0400
 3833TIP3   OH232913   5.148   4.204  16.795 -0.4372  0.0881 -0.4070
 3833TIP3    H132914   5.112   4.118  16.772 -1.3739  0.5931 -0.9047
 3833TIP3    H232915   5.243   4.194  16.784 -0.5002 -0.9749 -0.1105
 3834TIP3   OH232916   2.621   3.509   4.877  0.4401  0.1099  0.0269
 3834TIP3    H132917   2.568   3.436   4.907  0.5800 -0.2696 -0.6245
 3834TIP3    H232918   2.709   3.491   4.911 -0.0154  1.2489  1.9616
 3835TIP3   OH232919   3.967   5.277  14.630 -0.2259  0.6900 -0.5893
 3835TIP3    H132920   3.908   5.342  14.668  1.0105  2.1250 -0.9941
 3835TIP3    H232921   4.029   5.329  14.578  1.4217 -0.7167 -0.1341
 3836TIP3   OH232922   3.446   4.609   4.329  0.3472  0.0733  0.3245
 3836TIP3    H132923   3.513   4.650   4.274 -0.7706  1.5854  0.0233
 3836TIP3    H232924   3.402   4.683   4.372  0.4682 -1.0187  2.4303
 3837TIP3   OH232925   5.999   1.177   4.552  0.2176 -0.5150 -0.4102
 3837TIP3    H132926   5.945   1.138   4.621  0.1254  0.7476  0.2501
 3837TIP3    H232927   5.965   1.266   4.542  1.1915 -0.1999 -1.0527
 3838TIP3   OH232928   0.090   3.772   0.005 -0.6770 -0.2915  0.4187
 3838TIP3    H132929   0.030   3.766   0.079 -0.2134  0.4764  0.8672
 3838TIP3    H232930   0.067   3.854  -0.038 -0.2652 -0.2283  0.3153
 3839TIP3   OH232931   3.986   4.257   2.079  0.2835  0.3379 -0.0288
 3839TIP3    H132932   3.963   4.349   2.089 -0.9893 -0.1904  2.6178
 3839TIP3    H232933   3.903   4.212   2.066  0.7375 -0.6029  0.2309
 3840TIP3   OH232934   4.933   0.052   0.538  0.2643 -0.2701 -0.0935
 3840TIP3    H132935   4.947  -0.010   0.609  0.8255  0.4158  0.4124
 3840TIP3    H232936   4.838   0.055   0.527  0.0833  0.4156  1.3764
 3841TIP3   OH232937   1.345   1.744   5.765 -0.0153 -0.1818  0.3296
 3841TIP3    H132938   1.428   1.718   5.805  0.1142 -0.1974  0.0564
 3841TIP3    H232939   1.280   1.683   5.800  0.1938 -0.5402  0.0916
 3842TIP3   OH232940   4.626   6.244  15.977  0.0275 -0.3005  0.3221
 3842TIP3    H132941   4.675   6.326  15.965 -0.9689  0.1631 -0.7084
 3842TIP3    H232942   4.666   6.183  15.915  1.9484 -1.1987  2.3055
 3843TIP3   OH232943   2.141   3.971  11.225  0.1118 -0.1651  0.2029
 3843TIP3    H132944   2.103   4.055  11.200  0.6338 -0.5338 -2.1032
 3843TIP3    H232945   2.220   3.994  11.273 -0.5876  0.6187  1.0343
 3844TIP3   OH232946   1.778   4.302  11.086 -0.4101  0.0828  0.3559
 3844TIP3    H132947   1.706   4.336  11.033  1.0100  1.0130 -1.0828
 3844TIP3    H232948   1.826   4.245  11.026  0.1740 -0.3601  1.2283
 3845TIP3   OH232949   0.119   0.807  10.467 -0.1452 -0.0922 -0.0455
 3845TIP3    H132950   0.175   0.753  10.411  1.0261 -0.1563  1.1467
 3845TIP3    H232951   0.123   0.894  10.427 -1.4751 -0.6781 -1.5657
 3846TIP3   OH232952   3.108   5.790   0.284  0.5172 -0.6135 -0.0514
 3846TIP3    H132953   3.068   5.831   0.207 -0.5432 -3.8228 -1.3797
 3846TIP3    H232954   3.053   5.819   0.357 -0.2086  0.2304 -0.9027
 3847TIP3   OH232955   6.629   6.350   5.647 -0.2532 -0.1033  0.2815
 3847TIP3    H132956   6.641   6.318   5.558 -1.9017 -0.5826  0.1838
 3847TIP3    H232957   6.681   6.291   5.701  1.4453  0.7047 -0.3984
 3848TIP3   OH232958   2.909   2.977  16.226 -1.0543  0.2040  0.0198
 3848TIP3    H132959   2.920   3.028  16.307  0.6775 -1.6807  1.0542
 3848TIP3    H232960   2.815   2.960  16.221 -1.0211 -1.4301  2.8495
 3849TIP3   OH232961   3.028   3.985   0.011  0.4538 -0.7124 -0.2655
 3849TIP3    H132962   3.025   4.049   0.083 -0.8448  1.4993 -2.1469
 3849TIP3    H232963   3.121   3.975  -0.008  0.6974  1.0529 -0.2234
 3850TIP3   OH232964   3.934   4.203  16.833  0.1264 -0.1758 -0.1734
 3850TIP3    H132965   3.917   4.288  16.793 -0.8480 -0.3466 -0.1342
 3850TIP3    H232966   4.014   4.216  16.884  0.8077  0.3193 -1.3314
 3851TIP3   OH232967   1.238   2.594   2.417 -0.1833 -0.1322  0.0945
 3851TIP3    H132968   1.218   2.618   2.507  1.3977  0.6677  0.2733
 3851TIP3    H232969   1.330   2.568   2.419 -0.3019 -0.7221 -1.1766
 3852TIP3   OH232970   4.094   2.783   3.512  0.2963  0.2781  0.1922
 3852TIP3    H132971   4.145   2.712   3.551  0.4467  0.2068 -0.1266
 3852TIP3    H232972   4.034   2.811   3.581 -0.0733 -0.4627  0.1739
 3853TIP3   OH232973   0.773   1.320  11.987  0.3540 -0.0347  0.2846
 3853TIP3    H132974   0.856   1.362  12.010 -0.1745  0.4925  1.2790
 3853TIP3    H232975   0.782   1.230  12.017  0.3708  0.1656  0.8942
 3854TIP3   OH232976   1.079   4.165   2.413 -0.3584  0.0564 -0.2982
 3854TIP3    H132977   1.113   4.115   2.339 -2.1813 -1.1224 -0.4120
 3854TIP3    H232978   1.156   4.191   2.462  1.0464  2.1150 -3.3201
 3855TIP3   OH232979   4.320   5.455   3.177  0.0887  0.0909 -0.2334
 3855TIP3    H132980   4.329   5.388   3.245  0.2737  1.2086  0.8730
 3855TIP3    H232981   4.229   5.484   3.183 -0.2527 -0.7104 -1.3493
 3856TIP3   OH232982   0.161   4.309  10.906 -0.0400  0.0765  0.0521
 3856TIP3    H132983   0.247   4.282  10.939 -0.4474 -1.7514 -0.3052
 3856TIP3    H232984   0.155   4.402  10.930  2.3224  0.4652 -0.5717
 3857TIP3   OH232985   2.357   5.338   0.504  0.0649 -0.4738 -0.1364
 3857TIP3    H132986   2.263   5.352   0.492  0.3114  1.5640 -0.0473
 3857TIP3    H232987   2.396   5.357   0.419  0.3849 -1.4891 -0.2206
 3858TIP3   OH232988   3.977   3.835  17.205  0.0739 -0.0929  0.1770
 3858TIP3    H132989   4.063   3.869  17.180  0.0484  0.0647  0.3038
 3858TIP3    H232990   3.996   3.770  17.273  0.4775 -3.1485 -2.6396
 3859TIP3   OH232991   4.149   5.411   1.953 -0.1617  0.0432  0.4713
 3859TIP3    H132992   4.173   5.437   1.864  0.1375 -0.6106  0.3563
 3859TIP3    H232993   4.105   5.327   1.942  1.8215 -1.1405  1.1306
 3860TIP3   OH232994   0.790   4.898   4.074  0.0419 -0.8035  0.5069
 3860TIP3    H132995   0.845   4.847   4.134  0.8277 -1.6916 -0.9001
 3860TIP3    H232996   0.827   4.880   3.988 -0.5948  1.0175 -0.1904
 3861TIP3   OH232997   5.367   4.668  14.262 -0.8244  0.3105  0.1336
 3861TIP3    H132998   5.280   4.679  14.224 -0.7755 -1.0302 -0.4391
 3861TIP3    H232999   5.381   4.573  14.263  1.8599  0.4982 -2.7473
 3862TIP3   OH233000   0.180   2.791   5.561 -0.0161  0.3398 -0.3973
 3862TIP3    H133001   0.093   2.830   5.561  0.0488  0.5366  0.8291
 3862TIP3    H233002   0.170   2.709   5.609  0.7352  1.0676  1.0733
 3863TIP3   OH233003   0.964   4.716  16.374 -0.3241  0.9700 -0.0074
 3863TIP3    H133004   0.903   4.713  16.448 -0.5066  0.9921 -0.1574
 3863TIP3    H233005   1.047   4.743  16.413  0.3225 -1.6713  0.6875
 3864TIP3   OH233006   3.716   6.072  14.202  0.0463 -0.9798 -0.7382
 3864TIP3    H133007   3.705   5.992  14.151  1.4152 -1.6591 -0.0059
 3864TIP3    H233008   3.782   6.050  14.268 -0.4319  0.3879  0.2442
 3865TIP3   OH233009   3.556   0.498   4.005  0.3983 -0.2408  0.3501
 3865TIP3    H133010   3.639   0.497   3.957  0.6731  0.4367  0.8006
 3865TIP3    H233011   3.528   0.406   4.004  0.8710 -0.3947 -0.2781
 3866TIP3   OH233012   1.222   1.760   3.156  0.3704 -0.5601 -0.3190
 3866TIP3    H133013   1.189   1.688   3.211 -0.2954 -0.7094 -0.8924
 3866TIP3    H233014   1.316   1.758   3.168  0.2653 -0.8287  0.5284
 3867TIP3   OH233015   4.499   2.486   2.576 -0.7995 -0.3314 -0.1690
 3867TIP3    H133016   4.582   2.454   2.540  0.6007  0.0248  2.4703
 3867TIP3    H233017   4.433   2.461   2.511  1.0949 -2.4421 -1.4330
 3868TIP3   OH233018   3.381   1.133  15.932 -0.1167  0.1298 -0.0965
 3868TIP3    H133019   3.303   1.139  15.877 -0.0472  0.8774 -0.1219
 3868TIP3    H233020   3.453   1.121  15.869 -0.0278  1.0646 -0.1921
 3869TIP3   OH233021   1.290   1.145   4.750 -0.1969  0.2689 -0.2495
 3869TIP3    H133022   1.221   1.193   4.703 -0.3064 -0.8201 -1.2446
 3869TIP3    H233023   1.255   1.056   4.759  0.7096 -0.0664  0.0438
 3870TIP3   OH233024   2.494   4.194  11.572  0.4297 -0.0262  0.3503
 3870TIP3    H133025   2.402   4.221  11.579  0.2767 -0.1301 -1.0067
 3870TIP3    H233026   2.541   4.276  11.557  0.6507  0.0937  1.5527
 3871TIP3   OH233027   2.099   4.586  10.009 -0.0443  0.4088  0.1266
 3871TIP3    H133028   2.043   4.574  10.086 -0.0011 -1.0305 -0.0334
 3871TIP3    H233029   2.044   4.562   9.935  0.3423  0.4064 -0.1644
 3872TIP3   OH233030   0.626   0.329   6.137 -0.1498 -0.0496 -0.0048
 3872TIP3    H133031   0.571   0.300   6.209  1.2930  2.4615  2.3115
 3872TIP3    H233032   0.705   0.275   6.144  0.9223  1.6273  1.8435
 3873TIP3   OH233033   6.281   5.922  13.427 -0.0286 -0.1231 -0.9394
 3873TIP3    H133034   6.277   5.941  13.521 -0.1032 -0.3655 -0.8936
 3873TIP3    H233035   6.192   5.894  13.404  0.2289 -0.9954 -0.8819
 3874TIP3   OH233036   0.092   0.874  13.123  0.2261  0.1786  0.3231
 3874TIP3    H133037   0.135   0.797  13.086 -0.9540  0.0061 -0.7588
 3874TIP3    H233038   0.114   0.872  13.216 -1.2054 -2.4845  0.7102
 3875TIP3   OH233039   2.242   4.370   6.150 -0.0898 -0.0579  0.7889
 3875TIP3    H133040   2.162   4.419   6.128  0.5559  0.9506  0.6490
 3875TIP3    H233041   2.244   4.300   6.084  0.9896  2.0064 -1.5482
 3876TIP3   OH233042   5.487   1.451   2.034 -0.6527  0.1911  0.2410
 3876TIP3    H133043   5.574   1.454   1.995 -0.7456  1.0427  0.0622
 3876TIP3    H233044   5.501   1.475   2.126 -0.7548  0.8793  0.0841
 3877TIP3   OH233045   4.869   6.176   5.319  0.9909 -0.0546  0.1569
 3877TIP3    H133046   4.932   6.239   5.352  1.7847  0.2476 -1.8005
 3877TIP3    H233047   4.886   6.096   5.369  1.6764  0.5438  0.9034
 3878TIP3   OH233048   0.758   5.674  11.831  0.0167  0.4434 -0.2079
 3878TIP3    H133049   0.822   5.619  11.875  1.8421  1.3135 -1.6450
 3878TIP3    H233050   0.744   5.747  11.891 -1.0770 -0.6354  0.9150
 3879TIP3   OH233051   5.267   5.946  11.601  0.3334 -0.3188  0.5849
 3879TIP3    H133052   5.255   5.852  11.593  1.3125 -0.5194  1.2611
 3879TIP3    H233053   5.361   5.959  11.591 -0.0152  0.8557 -1.8143
 3880TIP3   OH233054   0.009   2.409  12.551  0.1915 -0.4819  0.3241
 3880TIP3    H133055   0.104   2.419  12.549  0.3336 -0.7595 -3.8846
 3880TIP3    H233056  -0.005   2.318  12.574  0.9918 -0.5926  0.3985
 3881TIP3   OH233057   3.814   0.947   0.672  0.6052 -0.4086 -0.3057
 3881TIP3    H133058   3.811   0.868   0.726  0.2126  0.4041  0.9100
 3881TIP3    H233059   3.907   0.956   0.649  0.8969 -0.4193  0.8073
 3882TIP3   OH233060   5.067   0.777  11.479  0.0237 -0.5428  0.4167
 3882TIP3    H133061   5.116   0.812  11.404  0.0105 -1.8925 -0.2649
 3882TIP3    H233062   5.019   0.852  11.514  1.5008  0.5175  0.2499
 3883TIP3   OH233063   0.714   3.675  13.684  1.2054 -0.0355 -0.2777
 3883TIP3    H133064   0.788   3.731  13.658  2.2752 -1.8629 -1.4436
 3883TIP3    H233065   0.673   3.649  13.601 -1.7891  2.1064  0.3702
 3884TIP3   OH233066   6.494   4.905  13.655  0.0581  0.3635 -0.0317
 3884TIP3    H133067   6.495   4.900  13.559  0.6274  0.0108 -0.0162
 3884TIP3    H233068   6.412   4.864  13.681 -1.2235  2.5056 -0.4475
 3885TIP3   OH233069   0.143   5.213  13.200 -0.2293  0.2427  0.5235
 3885TIP3    H133070   0.158   5.139  13.142  0.9003  0.0900  0.9899
 3885TIP3    H233071   0.051   5.237  13.185 -0.6611 -1.3272  0.4608
 3886TIP3   OH233072   0.604   2.984   0.490 -0.4779 -0.4647  0.3056
 3886TIP3    H133073   0.649   3.046   0.547 -0.4060  1.1940 -1.4476
 3886TIP3    H233074   0.604   2.901   0.539  0.5511  0.5866  2.1851
 3887TIP3   OH233075   4.250   3.233   3.889  0.4362  0.2590  0.4343
 3887TIP3    H133076   4.264   3.301   3.823 -1.1959  0.6376  0.4597
 3887TIP3    H233077   4.333   3.185   3.891  0.7559  0.6746 -1.3863
 3888TIP3   OH233078   2.852   2.111  13.915 -0.2170  0.3113  0.2995
 3888TIP3    H133079   2.768   2.071  13.892 -0.7009  0.5425  1.5722
 3888TIP3    H233080   2.916   2.041  13.904 -0.2935  0.5282 -2.1747
 3889TIP3   OH233081   4.572   6.283   2.068 -0.0055  0.5477 -0.0921
 3889TIP3    H133082   4.513   6.338   2.016 -0.9823 -0.3426  0.0364
 3889TIP3    H233083   4.515   6.214   2.102  1.0821 -0.1942  0.2415
 3890TIP3   OH233084   1.358   3.315   3.113 -0.5659 -0.4905 -0.3822
 3890TIP3    H133085   1.412   3.393   3.105 -1.7320  0.2102 -2.0487
 3890TIP3    H233086   1.368   3.270   3.029 -2.9710 -0.0189 -0.9904
 3891TIP3   OH233087   6.534   5.455  15.372  0.2484 -0.4264 -0.0206
 3891TIP3    H133088   6.590   5.506  15.313  0.7930 -0.0852  0.7684
 3891TIP3    H233089   6.454   5.507  15.379 -1.1210 -1.9386 -2.8383
 3892TIP3   OH233090   0.120   4.538  16.683 -0.0070  0.7786 -0.0279
 3892TIP3    H133091   0.183   4.572  16.746  3.0344  0.7348 -2.7846
 3892TIP3    H233092   0.111   4.445  16.705 -1.0453  1.2533  1.8009
 3893TIP3   OH233093   5.360   2.290  15.000 -0.8968 -0.0491 -0.1189
 3893TIP3    H133094   5.266   2.304  15.012 -1.0933 -0.4261 -1.1576
 3893TIP3    H233095   5.381   2.336  14.919  0.2345  1.7453  1.1078
 3894TIP3   OH233096   5.920   2.073  14.115  0.6045 -0.2146  0.0014
 3894TIP3    H133097   5.984   2.027  14.170  1.4627 -0.2453 -1.0040
 3894TIP3    H233098   5.973   2.133  14.062 -0.2989  0.4392 -0.1842
 3895TIP3   OH233099   6.267   3.698  11.708 -1.0595 -0.1019  0.0877
 3895TIP3    H133100   6.248   3.738  11.792 -2.4363  2.0419 -1.1476
 3895TIP3    H233101   6.314   3.765  11.659 -0.5019 -1.2040 -0.9622
 3896TIP3   OH233102   5.179   4.345   3.021  0.5397 -0.2744 -0.9629
 3896TIP3    H133103   5.261   4.375   2.981  2.0691 -2.6047  0.1603
 3896TIP3    H233104   5.187   4.368   3.113  0.2328 -1.1089 -0.7209
 3897TIP3   OH233105   1.731   6.396  11.508 -0.0752 -0.3859  0.4864
 3897TIP3    H133106   1.675   6.340  11.453 -1.6617  0.3153  1.3060
 3897TIP3    H233107   1.683   6.479  11.513  0.9430  0.1591  1.4337
 3898TIP3   OH233108   4.360   1.053  11.634 -0.2220  0.0788 -0.3736
 3898TIP3    H133109   4.397   1.053  11.723  0.8657 -0.8603 -0.7914
 3898TIP3    H233110   4.436   1.061  11.577 -0.6844 -1.5205 -1.2664
 3899TIP3   OH233111   3.648   3.215   4.512 -0.2192 -0.2774  0.1868
 3899TIP3    H133112   3.627   3.125   4.485  0.5494 -0.8645  1.4415
 3899TIP3    H233113   3.581   3.237   4.577  0.3534 -0.4505  0.8483
 3900TIP3   OH233114   3.336   4.429  12.472  0.6061  0.2353  0.4756
 3900TIP3    H133115   3.357   4.364  12.539 -0.3316  0.6376  1.1807
 3900TIP3    H233116   3.346   4.383  12.389  1.6103 -0.3214  0.8929
 3901TIP3   OH233117   2.180   6.495   0.221  0.3264 -0.2862 -0.0947
 3901TIP3    H133118   2.214   6.459   0.303  0.1511  0.0198  0.1178
 3901TIP3    H233119   2.211   6.586   0.221 -0.0266 -0.1652 -0.1655
 3902TIP3   OH233120   3.578   3.671   6.076 -0.3496 -0.5489  0.0693
 3902TIP3    H133121   3.623   3.590   6.102 -1.5477 -1.1711  0.2417
 3902TIP3    H233122   3.643   3.740   6.092 -0.2167 -1.1495  2.5379
 3903TIP3   OH233123   6.706   0.114   3.662  0.3327  0.3959  0.0655
 3903TIP3    H133124   6.673   0.097   3.574  1.3037  1.8819 -0.6245
 3903TIP3    H233125   6.648   0.182   3.696  0.3251  0.2460  0.3545
 3904TIP3   OH233126   0.591   1.233  14.151 -0.1554 -0.8099  0.4539
 3904TIP3    H133127   0.621   1.295  14.085  0.9914 -0.3705  1.3558
 3904TIP3    H233128   0.514   1.193  14.112  0.0378 -0.0084 -0.8288
 3905TIP3   OH233129   5.617   6.174   4.691  0.1402  0.3524 -0.1197
 3905TIP3    H133130   5.683   6.193   4.758 -1.1676 -1.4330  1.7895
 3905TIP3    H233131   5.533   6.188   4.734 -0.7616  0.5603 -1.8486
 3906TIP3   OH233132   0.112   5.458   1.191  0.0599  0.1390  0.2413
 3906TIP3    H133133   0.201   5.446   1.223 -0.6109 -2.0403  1.4978
 3906TIP3    H233134   0.102   5.393   1.121 -0.5695  0.2475  0.2201
 3907TIP3   OH233135   4.937   1.470   0.103  0.1791 -0.7011 -0.3631
 3907TIP3    H133136   5.002   1.476   0.173  1.1900 -1.3177 -1.2233
 3907TIP3    H233137   4.854   1.458   0.149  1.0818 -3.6846  0.7439
 3908TIP3   OH233138   2.028   5.495  17.146  0.4680  0.5087 -0.1832
 3908TIP3    H133139   1.995   5.544  17.221 -2.8992 -1.1285 -0.3878
 3908TIP3    H233140   1.992   5.541  17.070 -1.2329 -1.0972 -0.4351
 3909TIP3   OH233141   1.513   2.970   5.933 -0.1292  0.1028  0.0462
 3909TIP3    H133142   1.538   3.000   6.020  2.0808  1.2129 -0.8988
 3909TIP3    H233143   1.475   3.048   5.891 -0.8928 -0.3384 -0.1011
 3910TIP3   OH233144   6.089   2.099  10.924 -0.7411  0.0492  0.4528
 3910TIP3    H133145   6.163   2.084  10.983  0.1635 -1.9989 -1.0497
 3910TIP3    H233146   6.046   2.177  10.958  1.4009  0.6149  2.0924
 3911TIP3   OH233147   3.518   3.470  16.329 -0.0860 -0.2882  0.2760
 3911TIP3    H133148   3.480   3.531  16.265  0.5572  1.4626  1.4900
 3911TIP3    H233149   3.555   3.526  16.397  1.2031 -2.0354  1.1016
 3912TIP3   OH233150   1.577   0.254  12.420  0.4438 -0.1524  0.1846
 3912TIP3    H133151   1.524   0.294  12.351  0.5717  0.5805  0.4916
 3912TIP3    H233152   1.603   0.328  12.475  0.7567 -0.6621  0.7345
 3913TIP3   OH233153   5.765   2.317  16.435  0.0872  0.1940 -0.0832
 3913TIP3    H133154   5.811   2.388  16.481  1.1183 -0.1443 -0.5669
 3913TIP3    H233155   5.697   2.362  16.384 -0.2917  0.6772  0.8280
 3914TIP3   OH233156   1.508   6.198   3.560  0.2940  0.6322 -0.3429
 3914TIP3    H133157   1.518   6.105   3.581  1.0130  0.5605 -0.9494
 3914TIP3    H233158   1.588   6.220   3.512 -0.4838  1.2224 -1.4006
 3915TIP3   OH233159   4.655   3.965   2.447  0.2150 -0.2181  0.4599
 3915TIP3    H133160   4.608   4.036   2.403 -0.2563 -0.7226  0.1402
 3915TIP3    H233161   4.685   3.909   2.376  1.4016  0.1523  0.6568
 3916TIP3   OH233162   0.726   3.343   4.146 -0.5180  0.2085  0.0261
 3916TIP3    H133163   0.800   3.380   4.096 -0.9366  1.5434  0.3658
 3916TIP3    H233164   0.697   3.269   4.093  0.1350  0.5614 -0.8593
 3917TIP3   OH233165   5.883   4.367   3.541 -0.0275 -0.3113  0.1705
 3917TIP3    H133166   5.821   4.420   3.590 -0.7934 -2.0210  1.1394
 3917TIP3    H233167   5.927   4.429   3.482 -0.4258  1.4725  1.6622
 3918TIP3   OH233168   4.057   0.371  14.980 -0.3134  0.0493  0.1159
 3918TIP3    H133169   4.029   0.450  15.026 -1.0004  0.4705 -0.9947
 3918TIP3    H233170   3.999   0.302  15.012 -1.1486  0.4530 -0.4837
 3919TIP3   OH233171   4.420   2.541  13.563  0.2193 -0.4785 -0.1272
 3919TIP3    H133172   4.364   2.479  13.517 -0.9659 -0.0517  0.7092
 3919TIP3    H233173   4.371   2.565  13.642  0.7588  1.3063 -0.2752
 3920TIP3   OH233174   4.351   1.275   3.145 -0.1202  0.1423  0.0611
 3920TIP3    H133175   4.268   1.254   3.187  0.4859  0.9230  1.7207
 3920TIP3    H233176   4.358   1.370   3.149  0.6316  0.1267 -0.5153
 3921TIP3   OH233177   0.459   0.033  12.867 -0.5745 -0.6801 -0.6911
 3921TIP3    H133178   0.507  -0.013  12.936 -1.1156 -0.0939  0.0884
 3921TIP3    H233179   0.367   0.012  12.882 -0.8231  0.5381 -0.3864
 3922TIP3   OH233180   2.088   6.431  14.416  0.2570  0.1284 -0.4769
 3922TIP3    H133181   2.131   6.388  14.342  1.1823 -2.1619  1.2811
 3922TIP3    H233182   2.000   6.451  14.384 -0.1714 -2.9733 -1.5424
 3923TIP3   OH233183   6.068   0.925  16.646 -0.0408 -0.3887 -0.4244
 3923TIP3    H133184   6.031   0.991  16.704  0.6779  0.8227 -1.3148
 3923TIP3    H233185   6.040   0.842  16.684  0.5187  0.3500  1.7418
 3924TIP3   OH233186   0.895   1.858  11.404 -0.4368 -0.0577 -0.3852
 3924TIP3    H133187   0.888   1.846  11.498  1.6814 -0.2798 -0.2097
 3924TIP3    H233188   0.962   1.925  11.393  2.1493 -2.6243 -1.7097
 3925TIP3   OH233189   2.133   3.540  12.013 -0.0686 -0.2702  0.1102
 3925TIP3    H133190   2.214   3.574  11.976  0.4924 -1.8377 -0.1864
 3925TIP3    H233191   2.146   3.544  12.107  0.8953 -1.6778  0.0623
 3926TIP3   OH233192   0.003   5.447  15.955 -0.8274  0.0484  0.3031
 3926TIP3    H133193   0.080   5.472  16.005 -0.2048 -1.1955 -0.0060
 3926TIP3    H233194  -0.055   5.404  16.018 -0.6285 -0.3151  0.2406
 3927TIP3   OH233195   0.340   3.728   0.854  0.7605 -0.3330 -0.4575
 3927TIP3    H133196   0.268   3.791   0.860  1.4274  0.4684 -0.6433
 3927TIP3    H233197   0.361   3.707   0.945 -0.4600 -1.4859 -0.4063
 3928TIP3   OH233198   5.446   3.441   4.985 -0.2244 -0.1299  0.3938
 3928TIP3    H133199   5.481   3.493   4.913  0.7644 -1.9688 -0.5161
 3928TIP3    H233200   5.425   3.505   5.053  1.9347  1.3655 -0.2567
 3929TIP3   OH233201   4.347   4.654   0.558 -0.0360 -0.0477 -0.3088
 3929TIP3    H133202   4.347   4.698   0.643 -2.4343 -1.9433  0.8179
 3929TIP3    H233203   4.322   4.721   0.496 -0.7676  0.8310  0.8992
 3930TIP3   OH233204   4.135   6.213   2.350 -0.4367  0.1135  0.1034
 3930TIP3    H133205   4.078   6.228   2.426  1.7549  2.0582  1.5459
 3930TIP3    H233206   4.152   6.119   2.350 -1.4624 -0.0913  1.2878
 3931TIP3   OH233207   3.334   1.145   5.995  0.2834 -0.3845 -0.6915
 3931TIP3    H133208   3.265   1.198   6.036  0.9623 -0.0151  0.0005
 3931TIP3    H233209   3.408   1.152   6.055 -0.2203 -3.7526  0.5169
 3932TIP3   OH233210   5.167   0.817  12.288  0.4035  0.3346 -0.1551
 3932TIP3    H133211   5.231   0.764  12.336  0.9997  0.7398 -0.4892
 3932TIP3    H233212   5.133   0.878  12.354 -1.5244 -1.5148  0.6554
 3933TIP3   OH233213   4.883   5.991   3.023 -0.3153 -0.2154 -0.2653
 3933TIP3    H133214   4.883   6.056   3.094 -2.1054  0.7248 -1.0614
 3933TIP3    H233215   4.971   5.953   3.026 -0.2837 -0.1483  2.3921
 3934TIP3   OH233216   4.408   1.354   3.507  0.1525  0.3858  0.5264
 3934TIP3    H133217   4.428   1.396   3.590  2.7292  1.6646 -0.6135
 3934TIP3    H233218   4.446   1.266   3.515  1.3643  0.8761  0.3686
 3935TIP3   OH233219   0.054   6.625  16.474 -0.2224  0.1716  0.1779
 3935TIP3    H133220   0.090   6.564  16.538 -0.5422  0.0392  0.2308
 3935TIP3    H233221   0.042   6.706  16.524 -1.2622 -0.1707  0.5062
 3936TIP3   OH233222   6.621   5.919   5.082 -0.0586  0.5793  0.5461
 3936TIP3    H133223   6.603   5.855   5.013  0.3157  0.9745  0.0650
 3936TIP3    H233224   6.686   5.877   5.138 -0.0552  0.4089  0.4146
 3937TIP3   OH233225   5.391   4.458   6.043  0.1367 -0.1937 -0.0286
 3937TIP3    H133226   5.441   4.456   6.124  0.2402 -1.0780 -0.1141
 3937TIP3    H233227   5.363   4.550   6.035  4.0251  1.0900 -1.4021
 3938TIP3   OH233228   1.874   0.717   4.911 -0.5043  0.4181  0.2738
 3938TIP3    H133229   1.811   0.775   4.954  0.5029  0.3710  1.8737
 3938TIP3    H233230   1.960   0.747   4.941  0.0982 -1.2532  0.3254
 3939TIP3   OH233231   2.594   2.582   3.413  0.6237  0.5183  0.2950
 3939TIP3    H133232   2.559   2.494   3.431  0.8655  0.7027  1.8085
 3939TIP3    H233233   2.652   2.569   3.338  1.5802 -0.8785  1.2132
 3940TIP3   OH233234   2.211   1.477   0.451 -0.1861 -0.6493 -0.1635
 3940TIP3    H133235   2.124   1.446   0.423  0.5478 -1.4838 -1.6159
 3940TIP3    H233236   2.219   1.564   0.414 -0.5678 -0.3840  0.3589
 3941TIP3   OH233237   0.556   6.447   0.705  0.3926  0.2907 -0.4902
 3941TIP3    H133238   0.486   6.400   0.659  0.0012  1.6782 -1.3574
 3941TIP3    H233239   0.635   6.397   0.684 -0.1606 -0.6311 -0.4500
 3942TIP3   OH233240   5.662   1.322  16.706 -0.0088 -0.2578 -0.1418
 3942TIP3    H133241   5.631   1.313  16.796 -0.4432  0.5093 -0.2053
 3942TIP3    H233242   5.689   1.413  16.699 -0.0082 -0.3050 -0.8004
 3943TIP3   OH233243   1.119   6.506  12.716  0.1862  0.0427  0.1406
 3943TIP3    H133244   1.128   6.531  12.624  0.4662 -0.5031  0.0151
 3943TIP3    H233245   1.209   6.503  12.749  0.0962  0.1079  0.3932
 3944TIP3   OH233246   1.279   0.232  17.048 -0.1940 -0.3277 -0.1811
 3944TIP3    H133247   1.295   0.241  17.142  1.3921 -1.8765 -0.2619
 3944TIP3    H233248   1.323   0.151  17.024  0.5635  0.7056 -2.5273
 3945TIP3   OH233249   0.494   0.216  16.068 -0.1372  0.1951 -0.1959
 3945TIP3    H133250   0.560   0.163  16.023  0.1160 -0.0618  0.4704
 3945TIP3    H233251   0.431   0.153  16.102 -0.7259  0.4403 -0.8113
 3946TIP3   OH233252   4.481   5.896   5.812  0.1267  0.4991  0.2016
 3946TIP3    H133253   4.540   5.821   5.801 -0.1655  0.3368 -0.3003
 3946TIP3    H233254   4.460   5.896   5.905  1.3975  0.9294  0.5131
 3947TIP3   OH233255   4.335   1.915  12.234 -0.1196  0.0598  0.1747
 3947TIP3    H133256   4.372   1.916  12.322  0.8051 -1.9691 -0.1211
 3947TIP3    H233257   4.247   1.880  12.244  0.0980 -0.4664  0.2723
 3948TIP3   OH233258   0.912   4.612  12.945 -0.7169 -0.3049  0.1911
 3948TIP3    H133259   0.824   4.621  12.909 -0.5462 -0.7240 -0.3356
 3948TIP3    H233260   0.919   4.684  13.009 -0.3558  1.7061 -1.9639
 3949TIP3   OH233261   5.002   5.914  12.780  0.9789 -0.5087 -0.4011
 3949TIP3    H133262   4.940   5.921  12.707 -0.2341  0.6671  0.6708
 3949TIP3    H233263   4.978   5.832  12.824  0.7387 -0.4780 -0.4732
 3950TIP3   OH233264   2.713   0.425  16.464  0.0312 -0.6137 -0.1295
 3950TIP3    H133265   2.693   0.510  16.503  3.0934  0.1005  0.1609
 3950TIP3    H233266   2.737   0.370  16.538 -1.2052 -1.5413 -0.3947
 3951TIP3   OH233267   4.411   0.165   2.372 -0.1582 -0.0186 -0.1788
 3951TIP3    H133268   4.464   0.180   2.294 -1.4386 -0.6083 -1.2096
 3951TIP3    H233269   4.359   0.087   2.351  0.2362 -0.8300  1.6962
 3952TIP3   OH233270   3.473   6.558   1.340  0.3869  0.2710 -0.4420
 3952TIP3    H133271   3.520   6.600   1.411  0.7963  0.9418 -1.0922
 3952TIP3    H233272   3.461   6.628   1.275 -3.0316  0.6530  0.3956
 3953TIP3   OH233273   5.381   2.316   4.577 -0.3210 -0.0216 -0.2213
 3953TIP3    H133274   5.429   2.234   4.567 -1.9521 -0.8316 -2.2171
 3953TIP3    H233275   5.309   2.294   4.637  1.0725  0.9013  1.9014
 3954TIP3   OH233276   0.818   0.382   4.620  0.1696 -0.3463  0.6974
 3954TIP3    H133277   0.904   0.341   4.615  0.2362 -0.2728  1.1656
 3954TIP3    H233278   0.810   0.433   4.540 -0.6691 -2.7537 -0.8611
 3955TIP3   OH233279   0.763   6.619  12.597  0.3996 -0.4486 -0.3010
 3955TIP3    H133280   0.693   6.684  12.607  0.7006 -0.0391 -0.7680
 3955TIP3    H233281   0.843   6.667  12.616  0.4905 -1.1695  1.2283
 3956TIP3   OH233282   6.534   4.761  11.235  0.5933 -0.3782  0.2211
 3956TIP3    H133283   6.624   4.751  11.264  0.5652 -1.1739  0.0599
 3956TIP3    H233284   6.482   4.759  11.316  0.9342  4.2363  0.8105
 3957TIP3   OH233285   3.230   4.141  13.424  0.3416 -0.1918  0.7134
 3957TIP3    H133286   3.145   4.171  13.458  0.3425  1.1216 -0.3662
 3957TIP3    H233287   3.208   4.088  13.347  0.4107 -2.0193  1.8825
 3958TIP3   OH233288   6.138   5.460  15.610  0.5915 -0.2446  0.2491
 3958TIP3    H133289   6.072   5.420  15.668  0.6462  1.0249  1.2201
 3958TIP3    H233290   6.170   5.386  15.558 -1.5188 -0.9381 -0.2051
 3959TIP3   OH233291   3.177   3.578  14.170  0.4352  0.2549  0.4344
 3959TIP3    H133292   3.154   3.649  14.109 -0.3874 -0.9221 -0.6744
 3959TIP3    H233293   3.098   3.565  14.222 -0.0553 -1.0221 -0.5837
 3960TIP3   OH233294   0.631   5.532  13.243 -0.1996 -0.0959  0.1749
 3960TIP3    H133295   0.635   5.578  13.159  0.0888  2.1306  1.3197
 3960TIP3    H233296   0.538   5.529  13.264 -0.1422  1.3864  0.7705
 3961TIP3   OH233297   2.420   1.971   3.222 -0.3024 -0.3315 -0.1905
 3961TIP3    H133298   2.348   2.025   3.254 -1.2453 -1.1563 -0.8382
 3961TIP3    H233299   2.388   1.935   3.139  0.2364 -1.9511  0.2603
 3962TIP3   OH233300   6.590   6.291  14.211  0.2552 -0.6387 -0.6695
 3962TIP3    H133301   6.536   6.261  14.137 -0.2969  0.7623 -0.8642
 3962TIP3    H233302   6.576   6.385  14.214  0.3693 -0.6473  1.1588
 3963TIP3   OH233303   0.662   3.724  12.598  0.1655  0.2267  0.1648
 3963TIP3    H133304   0.641   3.729  12.505  0.9448 -0.5332 -0.0693
 3963TIP3    H233305   0.735   3.663  12.602 -1.7153 -2.0932  1.5637
 3964TIP3   OH233306   2.771   5.263   4.919 -0.3264 -0.2491 -0.4428
 3964TIP3    H133307   2.758   5.315   4.998  0.1929 -0.3220 -0.3055
 3964TIP3    H233308   2.804   5.325   4.854  1.2335 -0.5748  0.0032
 3965TIP3   OH233309   4.195   1.997   5.432 -0.3807 -0.7735 -0.4521
 3965TIP3    H133310   4.134   1.937   5.389 -0.8389 -0.4044 -0.3163
 3965TIP3    H233311   4.200   2.073   5.375 -0.4851 -0.5605 -0.1796
 3966TIP3   OH233312   4.586   0.361  14.319  0.4408 -0.2757  0.1763
 3966TIP3    H133313   4.574   0.424  14.248 -0.5299 -0.5338  0.0920
 3966TIP3    H233314   4.616   0.281  14.275 -0.6186 -0.5826 -0.0273
 3967TIP3   OH233315   0.895   4.971  14.368  0.0528 -0.0774  0.2504
 3967TIP3    H133316   0.925   5.009  14.286  1.0241 -1.7107 -0.1909
 3967TIP3    H233317   0.951   5.010  14.435 -0.7335  1.2498  0.1795
 3968TIP3   OH233318   4.255   4.000  11.935 -0.0936  0.0230  0.2349
 3968TIP3    H133319   4.257   4.063  11.862 -3.6060 -0.9502 -0.8824
 3968TIP3    H233320   4.310   3.928  11.906  2.1345  1.4687  0.5669
 3969TIP3   OH233321   0.171   1.800   1.358 -0.2762 -0.0329  0.0414
 3969TIP3    H133322   0.130   1.789   1.272 -1.1855 -2.4424  0.6975
 3969TIP3    H233323   0.254   1.844   1.340  0.0036 -1.3201 -2.1973
 3970TIP3   OH233324   3.250   3.529   3.651  0.1352  0.1142  0.4885
 3970TIP3    H133325   3.181   3.563   3.593  1.9507  1.4951 -0.9905
 3970TIP3    H233326   3.289   3.456   3.602  1.5131  1.1262  0.0089
 3971TIP3   OH233327   5.912   5.856   0.551  0.0614  0.1492 -0.5502
 3971TIP3    H133328   5.850   5.930   0.551  0.9088  0.9162  1.1085
 3971TIP3    H233329   5.984   5.887   0.496  0.1865  0.3598 -0.2713
 3972TIP3   OH233330   4.815   2.915  13.524  0.0442 -0.1619  0.1359
 3972TIP3    H133331   4.881   2.907  13.593 -0.8344 -0.7738  0.9340
 3972TIP3    H233332   4.853   2.975  13.461  1.4324 -0.6340  0.4990
 3973TIP3   OH233333   2.133   4.725  16.034 -0.2477 -0.2658 -0.2496
 3973TIP3    H133334   2.111   4.701  15.944 -0.9388 -2.2677  0.3990
 3973TIP3    H233335   2.049   4.727  16.080  0.1070  0.6480  0.3749
 3974TIP3   OH233336   5.178   3.839  13.381 -0.1091  0.0757  0.1708
 3974TIP3    H133337   5.169   3.791  13.299 -1.8788  1.3465 -0.4351
 3974TIP3    H233338   5.155   3.776  13.449  0.6280 -0.7721 -0.3420
 3975TIP3   OH233339   0.891   3.740  14.991 -0.1914 -0.3233  0.0799
 3975TIP3    H133340   0.956   3.809  15.005 -0.6956  0.0534  0.5941
 3975TIP3    H233341   0.936   3.675  14.937  0.3257  0.3476 -0.2974
 3976TIP3   OH233342   5.251   1.669  15.193  0.5552 -0.4649  0.4005
 3976TIP3    H133343   5.337   1.666  15.234  0.5024  4.9701  1.5652
 3976TIP3    H233344   5.189   1.675  15.266 -0.3138  0.6798 -0.3815
 3977TIP3   OH233345   0.395   0.614  10.687 -0.7099 -0.4777  0.1056
 3977TIP3    H133346   0.416   0.550  10.755 -1.2006 -1.8191 -0.9815
 3977TIP3    H233347   0.326   0.668  10.726  0.8520  0.4931  1.6492
 3978TIP3   OH233348   4.589   5.955  14.731 -0.4746  0.5654 -0.1236
 3978TIP3    H133349   4.651   6.027  14.743 -0.0375  0.5360 -1.9606
 3978TIP3    H233350   4.538   5.953  14.812  1.9267  0.5568  1.4824
 3979TIP3   OH233351   2.755   5.951   3.982 -0.3956 -0.3168  0.0241
 3979TIP3    H133352   2.668   5.988   3.966  0.0191  0.3350 -0.8241
 3979TIP3    H233353   2.755   5.928   4.074 -0.5366  2.2937  0.7622
 3980TIP3   OH233354   4.620   6.181   3.178  0.0617  0.1003  0.1290
 3980TIP3    H133355   4.558   6.247   3.209  0.0660 -1.0980  2.9673
 3980TIP3    H233356   4.577   6.097   3.195  1.4949 -0.7135 -0.0670
 3981TIP3   OH233357   2.576   3.687  11.365 -0.5677  0.2594 -0.2332
 3981TIP3    H133358   2.666   3.682  11.397 -0.2221  1.9392 -0.8448
 3981TIP3    H233359   2.561   3.780  11.350 -2.0784 -0.0924 -1.0912
 3982TIP3   OH233360   0.117   5.214   2.003 -0.4161  0.1853 -0.9447
 3982TIP3    H133361   0.036   5.235   2.049  0.9291  0.4617  1.4729
 3982TIP3    H233362   0.103   5.126   1.967 -2.4469  1.0123 -2.3335
 3983TIP3   OH233363   0.466   5.053   6.155  1.0407  0.3495 -0.1818
 3983TIP3    H133364   0.536   5.115   6.133  1.0170  0.1515 -0.8300
 3983TIP3    H233365   0.505   4.996   6.221  1.1508  0.8814  0.2226
 3984TIP3   OH233366   2.694   0.498   5.519 -0.1022  0.3511 -0.4260
 3984TIP3    H133367   2.624   0.517   5.456 -0.1027  0.9921 -0.2437
 3984TIP3    H233368   2.775   0.518   5.472 -0.1112  1.0344 -0.1652
 3985TIP3   OH233369   5.113   3.801   5.552  0.8794 -0.1379  0.6039
 3985TIP3    H133370   5.134   3.825   5.643 -0.3849  1.1983  0.5736
 3985TIP3    H233371   5.187   3.835   5.501  0.7988  0.6242  0.9712
 3986TIP3   OH233372   2.672   0.583   5.795  0.5742 -0.0732 -0.1461
 3986TIP3    H133373   2.692   0.568   5.703  0.1977  0.1287 -0.2604
 3986TIP3    H233374   2.591   0.535   5.811  0.1157  0.6888 -0.1635
 3987TIP3   OH233375   5.553   1.659  11.848 -0.1433 -0.5351  0.1614
 3987TIP3    H133376   5.619   1.594  11.871  0.2330 -0.9041 -1.7925
 3987TIP3    H233377   5.603   1.730  11.807 -0.8531 -0.2706 -0.2600
 3988TIP3   OH233378   1.988   1.702  11.824 -0.1928 -0.1132  0.2122
 3988TIP3    H133379   2.043   1.668  11.754 -0.4983 -2.3283  0.9747
 3988TIP3    H233380   1.904   1.720  11.783 -0.1004 -0.5576 -0.1765
 3989TIP3   OH233381   4.260   3.456  13.816 -0.4190 -0.2325 -0.8039
 3989TIP3    H133382   4.170   3.451  13.849  0.2919 -0.4897  1.2652
 3989TIP3    H233383   4.253   3.505  13.734 -2.4009 -0.0342 -0.5772
 3990TIP3   OH233384   6.745   2.025  12.028 -0.1274 -0.2581  0.3546
 3990TIP3    H133385   6.663   2.025  12.077  0.2761 -0.8290  1.0422
 3990TIP3    H233386   6.794   1.951  12.063  1.0698  0.6322  0.6030
 3991TIP3   OH233387   4.891   6.555   4.369  0.1305  0.2046  0.2427
 3991TIP3    H133388   4.888   6.649   4.386 -2.0223  0.1183  0.5756
 3991TIP3    H233389   4.897   6.548   4.274 -0.9542  0.7046  0.1203
 3992TIP3   OH233390   0.174   3.799  16.036  0.1995 -0.3184 -0.5689
 3992TIP3    H133391   0.197   3.772  16.126  0.0842 -2.2566 -1.0639
 3992TIP3    H233392   0.223   3.738  15.980  2.1660  2.3564 -1.9427
 3993TIP3   OH233393   3.567   2.543   2.945  0.1272  0.3445  0.2535
 3993TIP3    H133394   3.524   2.458   2.938  0.6564  0.0519  0.4933
 3993TIP3    H233395   3.608   2.541   3.031  3.7034 -0.8660 -1.2784
 3994TIP3   OH233396   0.018   1.011   3.907 -0.1997  0.1043  0.4833
 3994TIP3    H133397  -0.008   1.039   3.995 -0.5024  1.4640 -0.0130
 3994TIP3    H233398   0.075   0.936   3.921 -2.8443 -1.8392  1.7339
 3995TIP3   OH233399   4.240   4.809   2.575 -0.7041  0.3704 -0.3086
 3995TIP3    H133400   4.159   4.759   2.563  0.0455 -0.8334 -0.6343
 3995TIP3    H233401   4.278   4.814   2.487  0.1592 -0.1643  0.0148
 3996TIP3   OH233402   2.040   2.583   0.606  0.1158  0.1584  0.6513
 3996TIP3    H133403   2.113   2.524   0.627  0.6614  0.2803 -0.7516
 3996TIP3    H233404   1.962   2.527   0.609  0.5545 -0.5062 -0.0496
 3997TIP3   OH233405   6.242   3.256  11.456  0.0631  0.1145 -0.2999
 3997TIP3    H133406   6.162   3.219  11.492  0.2064  0.7444  0.7046
 3997TIP3    H233407   6.265   3.198  11.383 -1.2498 -0.1166 -0.5482
 3998TIP3   OH233408   5.759   3.626   0.127 -0.1373  0.1044 -0.0549
 3998TIP3    H133409   5.682   3.570   0.135 -1.2434  1.6299  0.4041
 3998TIP3    H233410   5.808   3.612   0.208  0.1705 -0.9643 -0.4043
 3999TIP3   OH233411   0.677   1.272   3.104  0.3591  0.0436  0.4600
 3999TIP3    H133412   0.678   1.367   3.121 -0.0149  0.3694 -1.1541
 3999TIP3    H233413   0.746   1.237   3.161 -0.3239  1.0880  2.0274
 4000TIP3   OH233414   5.877   2.008   5.738  0.1647  0.1102  0.2434
 4000TIP3    H133415   5.927   2.090   5.741  0.3888  0.0325 -0.9048
 4000TIP3    H233416   5.846   1.996   5.828 -2.4838  3.0688 -0.0769
 4001TIP3   OH233417   1.655   5.243  16.980 -0.4269  0.0558  0.0357
 4001TIP3    H133418   1.595   5.309  16.944 -0.2309  0.1772 -0.0678
 4001TIP3    H233419   1.678   5.189  16.904 -0.2990  0.0907  0.0499
 4002TIP3   OH233420   4.980   6.131   4.474 -0.4982  0.1305  0.0098
 4002TIP3    H133421   5.033   6.070   4.422 -3.0262 -1.2306 -1.1305
 4002TIP3    H233422   5.007   6.218   4.443  2.0268 -0.3806  0.5294
 4003TIP3   OH233423   0.736   5.425   4.181  0.0681 -0.4573  0.2079
 4003TIP3    H133424   0.642   5.417   4.169 -0.0524  0.7646  0.1697
 4003TIP3    H233425   0.771   5.340   4.155 -1.0553 -1.0916  0.7016
 4004TIP3   OH233426   3.665   6.312   5.563 -0.1457 -0.1583  0.5723
 4004TIP3    H133427   3.692   6.261   5.639  0.8202 -0.2647  0.1760
 4004TIP3    H233428   3.665   6.250   5.491  1.3021  0.4167  0.0314
 4005TIP3   OH233429   5.971   3.649   5.485  0.3323 -0.2054 -0.1730
 4005TIP3    H133430   5.905   3.593   5.445  0.5746  0.1835 -1.1620
 4005TIP3    H233431   6.015   3.593   5.549 -1.0098 -0.4280  0.5773
 4006TIP3   OH233432   1.592   4.957   0.090  0.1119  0.6631 -0.3272
 4006TIP3    H133433   1.517   4.925   0.140  2.3654 -0.2593  2.7273
 4006TIP3    H233434   1.553   4.994   0.010 -3.3149 -2.2413 -0.2465
 4007TIP3   OH233435   6.691   3.536   1.795  0.0811  0.2769 -0.1221
 4007TIP3    H133436   6.730   3.450   1.809  0.4789  0.5285  0.3764
 4007TIP3    H233437   6.744   3.595   1.849 -0.9712  0.6281  0.5739
 4008TIP3   OH233438   6.208   4.105   1.168  0.1922 -0.1007  0.2920
 4008TIP3    H133439   6.185   4.105   1.261  1.3127 -0.5828  0.5824
 4008TIP3    H233440   6.187   4.193   1.137  1.5319  0.6572  1.4468
 4009TIP3   OH233441   4.181   3.954  16.097 -0.3476  0.0186 -0.2652
 4009TIP3    H133442   4.209   4.045  16.109  0.5073 -0.2680 -0.0340
 4009TIP3    H233443   4.087   3.960  16.079 -0.2751  0.9546 -0.3663
 4010TIP3   OH233444   4.647   1.739   1.061  0.1280 -0.4851 -0.0913
 4010TIP3    H133445   4.652   1.822   1.109  0.0420 -0.3818 -0.2567
 4010TIP3    H233446   4.677   1.762   0.973  0.1580 -0.6432 -0.1219
 4011TIP3   OH233447   1.416   1.455  15.915  0.1664  0.0838 -0.0880
 4011TIP3    H133448   1.341   1.511  15.937 -1.0039 -0.9384 -1.2939
 4011TIP3    H233449   1.377   1.370  15.894  1.5636 -0.1959 -1.7687
 4012TIP3   OH233450   5.785   6.574   4.450 -0.9860 -0.1372  0.0925
 4012TIP3    H133451   5.749   6.512   4.386  0.6939 -0.8871 -0.1669
 4012TIP3    H233452   5.751   6.659   4.422 -2.6260 -0.8080 -0.0599
 4013TIP3   OH233453   3.358   1.901   0.628 -0.4406  0.0102  0.3508
 4013TIP3    H133454   3.351   1.874   0.537 -1.3451 -1.9748  0.9668
 4013TIP3    H233455   3.368   1.996   0.624 -0.8054 -0.0051 -1.7888
 4014TIP3   OH233456   0.550   1.877   1.848 -0.4115 -0.1163 -0.1639
 4014TIP3    H133457   0.487   1.941   1.817 -1.4806 -0.1059  1.8530
 4014TIP3    H233458   0.503   1.794   1.846 -0.9803  0.0653  2.4712
 4015TIP3   OH233459   6.133   2.245   3.256  0.8360  0.1935  0.3506
 4015TIP3    H133460   6.091   2.214   3.176  1.4099 -2.3523  0.9394
 4015TIP3    H233461   6.225   2.259   3.232  0.8477  0.1740  0.3840
 4016TIP3   OH233462   1.477   0.740  12.509 -0.5077  0.1757 -0.1171
 4016TIP3    H133463   1.570   0.717  12.502 -0.5622 -0.4069  0.8841
 4016TIP3    H233464   1.477   0.836  12.513  0.0538  0.1795 -0.0717
 4017TIP3   OH233465   3.570   2.815   5.166 -0.0386 -0.3265 -0.6323
 4017TIP3    H133466   3.558   2.745   5.102 -1.4648 -2.4355  1.7712
 4017TIP3    H233467   3.631   2.780   5.230 -1.6918  0.0633  1.2682
 4018TIP3   OH233468   3.780   1.902  15.500  0.0008 -0.2944 -0.2743
 4018TIP3    H133469   3.721   1.974  15.479  0.7334  0.3359 -0.2325
 4018TIP3    H233470   3.859   1.920  15.449 -1.0667 -3.0528 -3.2906
 4019TIP3   OH233471   5.561   2.493  14.583  0.4312  0.5703 -0.0717
 4019TIP3    H133472   5.637   2.550  14.592  1.2708 -0.5405  0.1251
 4019TIP3    H233473   5.504   2.517  14.657 -1.1640  3.8470 -2.1353
 4020TIP3   OH233474   0.380   3.838   1.766 -0.2266  0.1272 -0.3214
 4020TIP3    H133475   0.364   3.803   1.853 -1.6854  0.5616 -0.3853
 4020TIP3    H233476   0.397   3.761   1.712 -0.0537 -0.2057  0.2068
 4021TIP3   OH233477   2.981   0.319   4.349 -0.2448  0.4900 -1.1936
 4021TIP3    H133478   2.936   0.260   4.288 -0.1189 -0.1658 -0.6648
 4021TIP3    H233479   3.044   0.366   4.295 -2.9499  3.0036 -2.3945
 4022TIP3   OH233480   1.984   6.709  16.781 -0.5404  0.6347  0.4236
 4022TIP3    H133481   1.940   6.733  16.863 -1.8295 -1.8280  0.5639
 4022TIP3    H233482   1.930   6.748  16.712 -0.4916  1.2081  0.7141
 4023TIP3   OH233483   0.329   6.575   3.135  0.5237 -0.4226  0.2746
 4023TIP3    H133484   0.371   6.530   3.061  0.9655  1.2674 -0.5378
 4023TIP3    H233485   0.337   6.513   3.207  1.2885 -1.5750 -0.7443
 4024TIP3   OH233486   5.000   0.067   5.588  0.2531  0.6259  0.5145
 4024TIP3    H133487   4.961   0.147   5.623  0.6110  0.6313  0.9106
 4024TIP3    H233488   5.077   0.052   5.643  0.2055  0.0273  0.4228
 4025TIP3   OH233489   5.439   0.849   3.539  0.0791  0.5084 -0.6741
 4025TIP3    H133490   5.398   0.852   3.452 -0.3929 -2.2131 -0.6425
 4025TIP3    H233491   5.365   0.846   3.600  0.3664 -0.2260 -0.3583
 4026TIP3   OH233492   1.607   5.148   2.408  0.4387 -0.1589 -0.0898
 4026TIP3    H133493   1.609   5.122   2.500  1.2101 -1.9563 -0.5862
 4026TIP3    H233494   1.516   5.176   2.393 -0.2791 -1.9653  0.6723
 4027TIP3   OH233495   5.027   0.597  16.994 -0.3994  0.4912 -0.2209
 4027TIP3    H133496   4.939   0.630  17.010 -1.5334 -2.2532 -0.2224
 4027TIP3    H233497   5.073   0.669  16.952 -1.7563  2.9662  2.2200
 4028TIP3   OH233498   0.651   6.726  11.329  0.7135  0.4888 -0.2174
 4028TIP3    H133499   0.705   6.803  11.345  0.1696  0.8201  0.0657
 4028TIP3    H233500   0.681   6.661  11.393  1.9246  0.0691 -1.1878
 4029TIP3   OH233501   0.301   4.481   5.865  0.2021 -0.3664  0.5658
 4029TIP3    H133502   0.324   4.543   5.934  1.7351  0.7447 -0.8765
 4029TIP3    H233503   0.225   4.522   5.822  0.8412  0.2300 -0.0089
 4030TIP3   OH233504   4.295   0.492   5.539 -0.7061  0.1126 -0.3234
 4030TIP3    H133505   4.299   0.396   5.542 -0.5262  0.0273 -2.0928
 4030TIP3    H233506   4.346   0.520   5.614 -1.4682 -1.1799  0.7234
 4031TIP3   OH233507   0.734   0.750   0.458 -0.0251 -0.3276  0.0109
 4031TIP3    H133508   0.681   0.748   0.378  0.2019 -0.0188 -0.1495
 4031TIP3    H233509   0.824   0.743   0.427  0.0858  0.1673  0.2129
 4032TIP3   OH233510   4.340   5.343   0.145  0.1773  0.2346 -0.2537
 4032TIP3    H133511   4.269   5.361   0.206  0.3939  0.2837 -0.0116
 4032TIP3    H233512   4.420   5.350   0.199  0.3745  0.3565 -0.5589
 4033TIP3   OH233513   0.090   1.279   2.213  0.1096  0.0421  0.2853
 4033TIP3    H133514   0.111   1.371   2.231  1.0086  0.0828 -0.8539
 4033TIP3    H233515   0.127   1.231   2.287 -1.3796  0.6599  1.4945
 4034TIP3   OH233516   0.868   0.841   4.707  0.1253 -0.3813  0.4133
 4034TIP3    H133517   0.960   0.848   4.682 -0.3132  0.2082 -1.1382
 4034TIP3    H233518   0.829   0.783   4.642 -0.5051 -1.1179  1.4046
 4035TIP3   OH233519   6.757   1.638  14.229  0.1135  0.3161  0.2527
 4035TIP3    H133520   6.794   1.700  14.291  2.4793 -1.2055  0.4681
 4035TIP3    H233521   6.763   1.553  14.273  2.1434 -0.8741 -2.0632
 4036TIP3   OH233522   5.088   0.249  16.236 -0.3182  0.4064 -0.1031
 4036TIP3    H133523   5.106   0.294  16.318 -1.5825  0.3606  0.2240
 4036TIP3    H233524   4.996   0.223  16.243 -0.0556 -0.8218 -0.9535
 4037TIP3   OH233525   6.109   2.047   3.776 -0.7078  0.1611 -0.0909
 4037TIP3    H133526   6.199   2.057   3.807 -1.3432  3.0601  1.1735
 4037TIP3    H233527   6.117   2.047   3.681  0.6727 -0.4446 -0.0060
 4038TIP3   OH233528   0.290   0.566   4.771 -0.1533  0.1571  0.9586
 4038TIP3    H133529   0.228   0.548   4.841  0.7344 -0.2092  1.6722
 4038TIP3    H233530   0.272   0.500   4.705 -2.1792  1.5806  0.0165
 4039TIP3   OH233531   2.007   0.336  13.233 -0.1325  0.7882  0.3200
 4039TIP3    H133532   2.063   0.336  13.311  0.6766 -3.0606 -0.0586
 4039TIP3    H233533   2.030   0.255  13.187 -3.1172  1.1201 -2.0730
 4040TIP3   OH233534   6.520   4.865  14.593  0.3274  0.4681 -0.2578
 4040TIP3    H133535   6.551   4.782  14.630 -1.4537 -0.4150 -0.6152
 4040TIP3    H233536   6.576   4.931  14.632  0.1733 -0.6568  2.0281
 4041TIP3   OH233537   0.907   4.851  13.961 -0.0962 -0.5464  0.1350
 4041TIP3    H133538   0.943   4.852  14.049 -1.4952  2.0662  0.7857
 4041TIP3    H233539   0.983   4.854  13.904  0.8635 -2.9884  1.1542
 4042TIP3   OH233540   0.380   0.381  13.433 -0.0394 -0.1382  0.2938
 4042TIP3    H133541   0.384   0.344  13.345 -0.2262 -1.0419  0.6588
 4042TIP3    H233542   0.290   0.411  13.442  0.2808  1.0558 -0.2481
 4043TIP3   OH233543   6.752   4.010   0.003  0.3989  0.1004 -0.3831
 4043TIP3    H133544   6.667   3.968  -0.004  0.7802 -0.5808 -1.1189
 4043TIP3    H233545   6.755   4.044   0.092 -0.8764  0.6799 -0.5343
 4044TIP3   OH233546   2.784   2.054   2.328  0.1081 -0.2869  0.2979
 4044TIP3    H133547   2.764   2.133   2.279  0.7282  1.1060  2.1912
 4044TIP3    H233548   2.865   2.021   2.289 -0.7421 -0.6546 -1.2230
 4045TIP3   OH233549   4.921   0.617  12.503  0.5917  0.3967  0.2901
 4045TIP3    H133550   5.009   0.649  12.520  0.2160  1.7721 -0.2538
 4045TIP3    H233551   4.869   0.651  12.576  0.2089  0.9782 -0.2390
 4046TIP3   OH233552   4.465   0.317  13.421 -0.0778  0.4625 -0.4062
 4046TIP3    H133553   4.462   0.332  13.515 -0.6523 -0.4899 -0.2652
 4046TIP3    H233554   4.377   0.339  13.390 -0.8029 -2.0114 -0.2640
 4047TIP3   OH233555   1.709   0.236   4.258 -0.0511 -0.2566 -0.1953
 4047TIP3    H133556   1.655   0.160   4.237 -1.1115  0.4956 -0.2635
 4047TIP3    H233557   1.798   0.210   4.232 -0.2471 -1.7469  0.4869
 4048TIP3   OH233558   5.718   6.338   2.330 -0.0031 -0.4359  0.0612
 4048TIP3    H133559   5.711   6.414   2.272  1.6478  0.6413  1.1976
 4048TIP3    H233560   5.694   6.263   2.275  0.7765  0.6207 -1.7922
 4049TIP3   OH233561   2.187   5.966  16.434 -0.3082  0.0220  0.2876
 4049TIP3    H133562   2.246   5.913  16.379  0.9396  1.4511  0.1635
 4049TIP3    H233563   2.101   5.953  16.395  0.2193 -0.6224 -0.7391
 4050TIP3   OH233564   5.159   3.443  11.431  0.2699  0.5819 -0.2135
 4050TIP3    H133565   5.152   3.392  11.350  0.7581 -0.0513  0.1302
 4050TIP3    H233566   5.070   3.473  11.449  0.1132  0.4943 -0.8354
 4051TIP3   OH233567   5.475   4.599   0.433  0.0506  0.7092  0.2866
 4051TIP3    H133568   5.401   4.647   0.395 -1.6938 -1.4254  0.7415
 4051TIP3    H233569   5.522   4.564   0.357 -2.0572 -1.5862 -0.0996
 4052TIP3   OH233570   3.296   6.190  12.447  0.0490 -0.5730  0.0201
 4052TIP3    H133571   3.352   6.264  12.424  1.3387 -0.8085  2.0581
 4052TIP3    H233572   3.207   6.227  12.452  0.5759  0.7024  0.3502
 4053TIP3   OH233573   1.146   3.506  13.018  0.1151 -0.4316  0.6223
 4053TIP3    H133574   1.073   3.446  13.032  0.1784 -0.4661  0.8090
 4053TIP3    H233575   1.208   3.485  13.088 -0.1077  0.2286  1.0206
 4054TIP3   OH233576   5.980   1.893   3.317 -0.3318  0.1398 -0.6010
 4054TIP3    H133577   5.901   1.922   3.270 -0.4735  0.6170 -0.0717
 4054TIP3    H233578   5.997   1.961   3.381 -0.8246 -1.0472  0.8606
 4055TIP3   OH233579   0.205   0.498   2.700  0.3175  0.4065  0.3889
 4055TIP3    H133580   0.274   0.504   2.634  1.5152  2.7655  1.6910
 4055TIP3    H233581   0.248   0.527   2.781 -2.0412  1.3559  1.3847
 4056TIP3   OH233582   4.766   0.558   5.868 -0.1595 -0.1601  0.5755
 4056TIP3    H133583   4.716   0.482   5.900  0.4329 -1.2751 -1.0411
 4056TIP3    H233584   4.830   0.574   5.937 -0.8844 -0.5263  1.3668
 4057TIP3   OH233585   5.139   2.943   6.052 -0.3868  0.3327 -0.2657
 4057TIP3    H133586   5.193   3.022   6.052 -1.0545  0.8716  2.3862
 4057TIP3    H233587   5.194   2.876   6.092 -1.2320  0.5846  1.3764
 4058TIP3   OH233588   2.935   5.150   0.703  0.5971 -0.5536  0.5599
 4058TIP3    H133589   2.921   5.096   0.625  1.4661  1.0100 -0.7701
 4058TIP3    H233590   2.970   5.090   0.769  0.4959 -1.8039 -0.4901
 4059TIP3   OH233591   4.651   4.421  11.926  0.4465 -0.1034  0.0613
 4059TIP3    H133592   4.650   4.517  11.929  2.0927 -0.0163 -0.9723
 4059TIP3    H233593   4.615   4.399  11.840  0.0792 -0.4230  0.2944
 4060TIP3   OH233594   6.230   2.496   3.037 -0.3158  0.4486  0.0094
 4060TIP3    H133595   6.239   2.522   2.946 -0.0103  0.6540  0.0980
 4060TIP3    H233596   6.288   2.420   3.046 -0.1341  0.6006  0.1051
 4061TIP3   OH233597   1.183   1.503  14.934 -0.5651 -1.0235 -0.1357
 4061TIP3    H133598   1.157   1.496  15.026 -1.1841 -0.1897 -0.2328
 4061TIP3    H233599   1.206   1.595  14.922 -0.6798 -1.0814 -0.8625
 4062TIP3   OH233600   3.446   2.308   2.983  0.1192  0.3248  0.1541
 4062TIP3    H133601   3.382   2.239   3.001 -0.5020  1.5836  3.3315
 4062TIP3    H233602   3.516   2.294   3.045  2.2177  0.0158 -2.1368
 4063TIP3   OH233603   5.408   5.530   1.446  0.2824 -0.9052 -0.1481
 4063TIP3    H133604   5.351   5.514   1.521  0.5504 -1.3922 -0.0424
 4063TIP3    H233605   5.374   5.472   1.378 -0.5850  0.2651 -0.7449
 4064TIP3   OH233606   1.139   6.597  16.865  0.1180 -0.0228  0.4994
 4064TIP3    H133607   1.113   6.672  16.919 -0.5427  1.3315 -1.5578
 4064TIP3    H233608   1.208   6.631  16.808 -0.8519 -0.6355 -1.1358
 4065TIP3   OH233609   5.340   2.385  10.782 -0.5463  0.2342  0.7807
 4065TIP3    H133610   5.285   2.396  10.860  0.1322 -0.1702  1.3217
 4065TIP3    H233611   5.416   2.336  10.813 -0.0403  0.4920 -0.0394
 4066TIP3   OH233612   3.101   2.208   5.267 -0.1664 -0.5109  0.0561
 4066TIP3    H133613   3.113   2.241   5.356 -1.2523 -0.9647  0.3902
 4066TIP3    H233614   3.127   2.116   5.271 -2.2118 -1.1332  0.4652
 4067TIP3   OH233615   2.568   5.449  16.560  0.6114 -0.0644 -0.1477
 4067TIP3    H133616   2.564   5.502  16.640 -1.2965 -0.9306  0.3820
 4067TIP3    H233617   2.586   5.361  16.591 -1.2936 -0.6298 -0.5188
 4068TIP3   OH233618   0.717   5.068   4.387  0.0075  0.8445 -0.1507
 4068TIP3    H133619   0.755   5.149   4.420  1.8694  0.3180 -0.8346
 4068TIP3    H233620   0.709   5.012   4.463 -0.6115  1.4059  0.2077
 4069TIP3   OH233621   4.309   4.855   1.251 -0.4503  0.1517  0.8870
 4069TIP3    H133622   4.277   4.844   1.161  0.1173 -1.5387  0.8493
 4069TIP3    H233623   4.331   4.947   1.257  0.7493  0.0685 -1.1583
 4070TIP3   OH233624   5.488   0.135  11.437 -0.0004 -0.3853 -0.3221
 4070TIP3    H133625   5.549   0.120  11.365 -0.4320 -0.8129 -0.6038
 4070TIP3    H233626   5.402   0.113  11.401 -0.5106  1.4890 -0.3507
 4071TIP3   OH233627   2.232   1.250   0.151  0.4660  0.3350  0.7499
 4071TIP3    H133628   2.318   1.287   0.172  0.5416 -0.8975  2.9155
 4071TIP3    H233629   2.219   1.182   0.217 -1.4573 -0.6495 -0.5652
 4072TIP3   OH233630   2.186   6.520  11.486  0.3299 -0.3274 -0.1318
 4072TIP3    H133631   2.260   6.460  11.489  0.8317  0.2881  2.5291
 4072TIP3    H233632   2.138   6.503  11.566  0.5032  2.7583  0.7792
 4073TIP3   OH233633   1.020   3.457   0.601  0.7675 -0.2013 -0.1446
 4073TIP3    H133634   0.950   3.405   0.562  1.1862  0.9513 -2.6263
 4073TIP3    H233635   0.974   3.524   0.652  0.2195 -2.3679  2.4375
 4074TIP3   OH233636   1.386   5.314   1.823 -0.8689  0.0830  0.0550
 4074TIP3    H133637   1.453   5.251   1.848 -0.7556  0.0518 -0.3140
 4074TIP3    H233638   1.374   5.299   1.729 -0.7627  0.6826 -0.0588
 4075TIP3   OH233639   3.923   3.436   2.881  1.2743 -0.0619  0.3535
 4075TIP3    H133640   3.984   3.465   2.949  1.4563 -0.1300  0.2196
 4075TIP3    H233641   3.858   3.506   2.875  1.3659  0.0310  0.4647
 4076TIP3   OH233642   4.518   6.763   1.194  0.3295 -0.1044 -0.1307
 4076TIP3    H133643   4.428   6.785   1.217 -0.4009 -1.5689 -1.4455
 4076TIP3    H233644   4.559   6.846   1.172 -1.0315  0.4587 -0.6040
 4077TIP3   OH233645   1.905   0.917  15.070 -0.1577 -0.1846 -0.2030
 4077TIP3    H133646   1.920   0.873  15.153  1.4587  1.1232  0.2519
 4077TIP3    H233647   1.950   0.862  15.005  1.9467  0.7212  0.3767
 4078TIP3   OH233648   3.771   1.473  11.719  0.8267  0.8819 -0.4724
 4078TIP3    H133649   3.707   1.543  11.706 -1.4664 -0.9651  0.3541
 4078TIP3    H233650   3.807   1.489  11.806  1.7331  2.0684 -1.0398
 4079TIP3   OH233651   6.003   4.122   4.023  1.0392  0.1643  0.3802
 4079TIP3    H133652   5.959   4.080   3.949 -0.2001  0.8747  0.6928
 4079TIP3    H233653   6.051   4.195   3.985 -1.4038  1.9261  0.4825
 4080TIP3   OH233654   2.569   3.282  13.542 -0.1604  0.4702  0.3454
 4080TIP3    H133655   2.474   3.296  13.544  0.0637  2.1545  0.3935
 4080TIP3    H233656   2.585   3.243  13.456 -0.7720  1.2600 -0.1439
 4081TIP3   OH233657   6.340   0.848   3.348  0.4057 -0.2384  0.4197
 4081TIP3    H133658   6.326   0.878   3.438 -0.2412 -2.0426  0.9795
 4081TIP3    H233659   6.295   0.763   3.345 -0.1265  0.0709 -1.7988
 4082TIP3   OH233660   2.262   5.820   1.821 -0.8441  0.1193  0.0872
 4082TIP3    H133661   2.355   5.838   1.838 -0.2105 -0.0611 -2.5959
 4082TIP3    H233662   2.215   5.869   1.888  1.1175  3.0321 -0.4509
 4083TIP3   OH233663   6.730   6.594   1.543 -0.1701  0.5415 -0.2605
 4083TIP3    H133664   6.664   6.600   1.474 -0.6236 -0.9118  0.0256
 4083TIP3    H233665   6.814   6.604   1.498 -0.4246 -1.0200 -1.1327
 4084TIP3   OH233666   6.098   3.137   0.942  0.2088  0.1115  0.2604
 4084TIP3    H133667   6.152   3.187   0.882 -0.4764  0.0033 -0.4780
 4084TIP3    H233668   6.053   3.202   0.995 -0.1827  0.2681 -0.2528
 4085TIP3   OH233669   1.266   5.376  15.264  0.3682  0.2349  1.0927
 4085TIP3    H133670   1.187   5.325  15.252  0.7343 -0.9618  3.2319
 4085TIP3    H233671   1.332   5.332  15.211  0.3589 -0.7821  1.8861
 4086TIP3   OH233672   5.875   1.194  16.304 -0.2652 -0.1709  0.2533
 4086TIP3    H133673   5.909   1.233  16.385  1.2800  0.1941 -0.5350
 4086TIP3    H233674   5.891   1.100  16.315  1.2742  0.0148 -0.1974
 4087TIP3   OH233675   0.356   0.254   5.644  0.1945  0.4210  0.2141
 4087TIP3    H133676   0.333   0.162   5.655 -0.6469  0.5378 -0.4949
 4087TIP3    H233677   0.377   0.285   5.732 -3.7404  0.6770  1.2235
 4088TIP3   OH233678   5.306   5.624   2.762  0.2354 -0.2151  0.1942
 4088TIP3    H133679   5.327   5.717   2.757  0.3374 -0.2601 -0.1858
 4088TIP3    H233680   5.263   5.614   2.847  2.1819 -0.2168  1.2354
 4089TIP3   OH233681   0.730   1.652  15.632  0.2505 -0.3120  0.0760
 4089TIP3    H133682   0.817   1.646  15.672  0.3451 -3.4501 -0.3326
 4089TIP3    H233683   0.684   1.717  15.685  2.7265  1.2801  0.4488
 4090TIP3   OH233684   6.586   6.360   1.733 -0.0902  0.2490  0.3192
 4090TIP3    H133685   6.669   6.317   1.756  2.1791 -0.0839 -6.2208
 4090TIP3    H233686   6.611   6.450   1.712 -1.3183  0.2351 -1.4633
 4091TIP3   OH233687   4.742   6.711  17.201 -0.4360  0.3553 -0.3973
 4091TIP3    H133688   4.777   6.765  17.272  1.0294 -0.6438 -0.3203
 4091TIP3    H233689   4.763   6.621  17.226 -1.4454 -0.1529 -1.2754
 4092TIP3   OH233690   0.762   4.478  16.315 -0.2206 -0.1187 -0.2199
 4092TIP3    H133691   0.857   4.473  16.326 -0.2368 -0.5346 -0.2632
 4092TIP3    H233692   0.727   4.454  16.401 -0.2826  0.2645 -0.1382
 4093TIP3   OH233693   1.172   4.211   2.969 -0.5054  0.2602  0.2038
 4093TIP3    H133694   1.263   4.217   2.997 -0.5204  1.5937  0.0186
 4093TIP3    H233695   1.159   4.118   2.950  0.1704 -0.3230  2.3251
 4094TIP3   OH233696   5.060   4.020   3.935  0.5338 -0.3108  0.1860
 4094TIP3    H133697   5.084   4.033   4.026  0.3771 -0.1316  0.2017
 4094TIP3    H233698   4.980   3.968   3.938 -0.4447  1.1613  0.2001
 4095TIP3   OH233699   4.322   0.688   1.386  0.1428  0.4610 -0.3923
 4095TIP3    H133700   4.261   0.752   1.421  1.4886  2.1577 -0.9955
 4095TIP3    H233701   4.334   0.625   1.458 -0.0560  1.7437  0.8180
 4096TIP3   OH233702   6.026   1.275  15.082  0.0102  0.3125 -0.0836
 4096TIP3    H133703   5.939   1.287  15.044 -0.1195 -2.2511 -0.7487
 4096TIP3    H233704   6.021   1.190  15.126  1.6689  0.9453  1.4182
 4097TIP3   OH233705   0.060   4.565   3.033 -0.0097  0.0138  0.1237
 4097TIP3    H133706   0.001   4.579   2.959 -0.7413 -0.0968  0.6774
 4097TIP3    H233707   0.135   4.620   3.015  0.2462 -0.7299 -1.1710
 4098TIP3   OH233708   3.586   5.849  12.299  0.4977 -0.4236  0.1949
 4098TIP3    H133709   3.660   5.910  12.300  1.1967 -1.2135  2.0477
 4098TIP3    H233710   3.509   5.904  12.315  0.6975  0.3432 -1.2765
 4099TIP3   OH233711   2.277   5.534  16.174 -0.3099  0.0958 -0.6119
 4099TIP3    H133712   2.353   5.482  16.201  0.2555  1.6464  1.0260
 4099TIP3    H233713   2.203   5.490  16.216 -0.0050 -0.0932 -0.2573
 4100TIP3   OH233714   1.023   4.634  16.071 -0.4550  0.1890 -0.5375
 4100TIP3    H133715   0.947   4.626  16.128  0.3123 -1.7793  0.3132
 4100TIP3    H233716   1.094   4.590  16.119  1.1901  1.7850 -1.3712
 4101TIP3   OH233717   3.218   5.490  12.030 -0.0107 -0.4648  0.0551
 4101TIP3    H133718   3.151   5.468  12.095 -0.9075 -1.4841 -1.1491
 4101TIP3    H233719   3.168   5.517  11.953  0.9833 -0.4953 -0.6160
 4102TIP3   OH233720   2.029   3.679   1.379  0.5505  0.1184 -0.1130
 4102TIP3    H133721   2.017   3.688   1.474  2.5804  2.5228  0.0072
 4102TIP3    H233722   2.108   3.626   1.369 -0.7645 -1.8670 -0.5797
 4103TIP3   OH233723   0.312   1.813  15.854  0.0978 -0.3557 -0.6790
 4103TIP3    H133724   0.401   1.819  15.888  0.1986 -0.5162 -0.9117
 4103TIP3    H233725   0.323   1.795  15.761 -0.1633 -3.4116 -0.2224
 4104TIP3   OH233726   0.123   6.326   1.419 -0.1425  0.7087  0.3672
 4104TIP3    H133727   0.075   6.407   1.402  1.1745  1.0407 -2.2481
 4104TIP3    H233728   0.202   6.334   1.365  1.4639 -1.0484  2.3048
 4105TIP3   OH233729   2.751   0.529   2.153 -0.3012 -1.1524 -0.0611
 4105TIP3    H133730   2.793   0.447   2.126  0.1204 -0.9089 -0.1687
 4105TIP3    H233731   2.823   0.582   2.187 -0.4069 -0.4705 -0.8543
 4106TIP3   OH233732   0.963   6.565  13.069  0.5432 -0.2484 -0.2717
 4106TIP3    H133733   0.964   6.655  13.038  2.4511 -0.8973 -2.3409
 4106TIP3    H233734   1.050   6.551  13.105  1.4748 -2.1223 -2.9464
 4107TIP3   OH233735   2.546   0.483  15.748 -0.3616 -0.1423  0.0610
 4107TIP3    H133736   2.571   0.488  15.656 -0.3185  2.0563  0.1280
 4107TIP3    H233737   2.473   0.421  15.750 -1.0100  0.4948 -1.6119
 4108TIP3   OH233738   0.256   1.909  15.058 -0.3076 -0.3264 -0.1041
 4108TIP3    H133739   0.296   1.996  15.054 -1.1100  0.1536  1.4941
 4108TIP3    H233740   0.200   1.912  15.136 -0.8969 -2.0499 -0.4219
 4109TIP3   OH233741   5.163   0.990   6.174 -0.4759 -0.0273  0.9713
 4109TIP3    H133742   5.091   1.054   6.169 -1.4435 -1.1330  0.0691
 4109TIP3    H233743   5.173   0.972   6.267 -1.2543  0.2889  1.1208
 4110TIP3   OH233744   3.606   2.337  12.711 -0.0716  0.1080  0.1302
 4110TIP3    H133745   3.539   2.403  12.693 -0.4135 -0.2172  0.2002
 4110TIP3    H233746   3.610   2.332  12.806 -1.7652 -1.6680  0.1718
 4111TIP3   OH233747   3.429   3.779   2.645  0.2964  0.0485  0.1501
 4111TIP3    H133748   3.443   3.852   2.705 -2.0174 -0.4508  1.4536
 4111TIP3    H233749   3.454   3.812   2.559  0.6942  1.8652  0.9207
 4112TIP3   OH233750   4.064   4.961  12.922 -0.0445 -0.3237  0.8407
 4112TIP3    H133751   4.160   4.960  12.914 -0.0648 -0.1558  0.5500
 4112TIP3    H233752   4.047   4.929  13.011  0.2336 -1.4759  0.5031
 4113TIP3   OH233753   2.184   6.364  15.840  0.7981 -0.0298  0.6335
 4113TIP3    H133754   2.112   6.362  15.778 -0.6266 -1.1313  2.2309
 4113TIP3    H233755   2.262   6.354  15.786 -0.3879 -1.2990 -0.9639
 4114TIP3   OH233756   0.877   3.372  11.529  0.0946  0.2991  0.5060
 4114TIP3    H133757   0.840   3.430  11.463  0.9030  0.8484  0.5308
 4114TIP3    H233758   0.861   3.417  11.612  1.4852  0.9154  0.4576
 4115TIP3   OH233759   3.458   0.252   2.768 -0.0046 -1.1373  0.9284
 4115TIP3    H133760   3.480   0.159   2.759 -0.4700 -1.0741 -1.3258
 4115TIP3    H233761   3.536   0.298   2.738 -0.6090 -0.8445 -0.2391
 4116TIP3   OH233762   2.943   5.584  15.181 -0.3484  0.1601 -0.0683
 4116TIP3    H133763   2.962   5.676  15.200  1.7971  0.6153 -3.5332
 4116TIP3    H233764   2.849   5.582  15.165 -0.5913  1.5260  0.9997
 4117TIP3   OH233765   3.312   2.938  16.879  0.0207 -0.4087  0.0815
 4117TIP3    H133766   3.384   2.995  16.853  1.4348 -2.0433  0.2278
 4117TIP3    H233767   3.308   2.947  16.975  0.6427 -0.9937  0.1677
 4118TIP3   OH233768   3.816   6.509  12.226  0.0612 -0.2370 -0.6870
 4118TIP3    H133769   3.724   6.493  12.204  0.8676 -2.1409 -3.1029
 4118TIP3    H233770   3.850   6.559  12.153  1.0532  0.1109  0.0004
 4119TIP3   OH233771   0.972   3.813   4.216  0.5805 -0.1714  0.0161
 4119TIP3    H133772   0.970   3.887   4.155  1.0866  1.6400  2.0902
 4119TIP3    H233773   0.880   3.790   4.229  0.3159  1.0257  0.3917
 4120TIP3   OH233774   0.912   0.835  12.823  0.3051 -0.5740 -0.4384
 4120TIP3    H133775   0.856   0.767  12.785  0.8997 -1.0622 -0.4625
 4120TIP3    H233776   0.947   0.795  12.903 -0.8028  0.3808  0.5621
 4121TIP3   OH233777   6.674   3.519   4.770 -0.2893 -0.2524 -0.1126
 4121TIP3    H133778   6.587   3.553   4.749 -0.4549 -0.6407 -0.0651
 4121TIP3    H233779   6.657   3.436   4.814  0.1093 -0.3805 -0.1980
 4122TIP3   OH233780   3.203   4.972   5.436  0.1522 -0.1031  0.5385
 4122TIP3    H133781   3.278   4.983   5.378  1.0357 -1.2409  1.4129
 4122TIP3    H233782   3.156   5.055   5.430  0.9719  0.3038 -0.7253
 4123TIP3   OH233783   4.960   3.867   1.769 -0.1948 -0.3569 -0.2873
 4123TIP3    H133784   4.914   3.787   1.746  0.4231 -0.7170 -0.2838
 4123TIP3    H233785   4.984   3.856   1.861 -3.1810  1.3247  0.8534
 4124TIP3   OH233786   2.358   5.815  16.273 -0.0387  0.5217 -0.3336
 4124TIP3    H133787   2.403   5.780  16.350 -2.5844  0.9445  1.4627
 4124TIP3    H233788   2.340   5.739  16.219  0.6721  0.0515  0.0769
 4125TIP3   OH233789   2.926   2.351  16.547 -0.0297 -0.1380  0.2687
 4125TIP3    H133790   2.865   2.417  16.514  1.5070  0.0524 -2.5082
 4125TIP3    H233791   2.876   2.269  16.546 -0.3393  0.0041 -1.9579
 4126TIP3   OH233792   5.140   2.274  13.195  0.0085  0.3729  0.0369
 4126TIP3    H133793   5.102   2.250  13.110 -3.3349  0.7079  1.2594
 4126TIP3    H233794   5.147   2.191  13.242  0.2020  0.3824  0.0243
 4127TIP3   OH233795   6.054   0.751  14.536  0.1782  0.5292 -0.4130
 4127TIP3    H133796   6.126   0.701  14.499  0.5005  0.2861  0.5276
 4127TIP3    H233797   5.977   0.696  14.524 -0.0599  1.2166 -2.3411
 4128TIP3   OH233798   4.447   1.367  15.850 -0.6049  1.1053  0.2874
 4128TIP3    H133799   4.519   1.390  15.908 -0.1605 -0.1855  0.2750
 4128TIP3    H233800   4.490   1.348  15.766 -1.0217  0.8951  0.1222
 4129TIP3   OH233801   3.106   5.324   0.791  0.0490  0.4715 -0.2061
 4129TIP3    H133802   3.024   5.279   0.769  0.1909  0.2879 -0.3634
 4129TIP3    H233803   3.154   5.328   0.708  1.5868 -2.2505  0.4395
 4130TIP3   OH233804   2.164   5.382  15.668  0.3760 -0.0167  0.9419
 4130TIP3    H133805   2.075   5.381  15.633  0.0266 -0.1512  1.8088
 4130TIP3    H233806   2.190   5.474  15.663 -0.0599  0.1292  1.2979
 4131TIP3   OH233807   3.537   1.064  15.048  0.3611  0.2906  0.1423
 4131TIP3    H133808   3.490   0.991  15.090  2.4559 -1.1355  0.1554
 4131TIP3    H233809   3.614   1.023  15.010  0.3413  2.1340 -2.0698
 4132TIP3   OH233810   2.719   1.938  13.305  0.4909 -0.2249 -0.6457
 4132TIP3    H133811   2.813   1.956  13.302  0.3389  0.4878 -1.4665
 4132TIP3    H233812   2.681   2.012  13.352  0.5822 -1.7207  1.9928
 4133TIP3   OH233813   1.137   1.666  11.878 -0.2345 -0.6349 -0.1165
 4133TIP3    H133814   1.227   1.638  11.859  0.3993  1.9135 -1.2200
 4133TIP3    H233815   1.085   1.587  11.864  1.4232 -1.3824 -2.9267
 4134TIP3   OH233816   4.834   0.888   6.064 -0.8249 -0.2406 -0.3666
 4134TIP3    H133817   4.876   0.939   6.133 -0.1111 -0.8069 -0.3749
 4134TIP3    H233818   4.780   0.824   6.112 -0.9314 -0.1389 -0.3486
 4135TIP3   OH233819   6.732   6.075   2.910 -0.4908  0.4939  0.3828
 4135TIP3    H133820   6.767   6.027   2.986  0.9314  2.1855  0.8370
 4135TIP3    H233821   6.777   6.037   2.835  0.1801  0.7028  0.6755
 4136TIP3   OH233822   2.501   1.432  12.384 -0.0069 -0.0096 -0.0187
 4136TIP3    H133823   2.443   1.394  12.449  1.2614 -0.8611  0.6515
 4136TIP3    H233824   2.530   1.515  12.421  0.1876 -0.1823  0.2197
 4137TIP3   OH233825   4.596   3.222   5.183  0.2905  0.0626 -0.6776
 4137TIP3    H133826   4.552   3.304   5.163 -0.3235 -0.0200  0.2973
 4137TIP3    H233827   4.542   3.155   5.139 -0.5516 -0.0327  0.4637
 4138TIP3   OH233828   0.060   2.221  11.157  0.5078  0.0562 -0.5981
 4138TIP3    H133829   0.086   2.285  11.223 -0.8266  1.1801 -1.1421
 4138TIP3    H233830   0.009   2.156  11.205 -1.9250  1.7587 -0.7217
 4139TIP3   OH233831   4.757   4.341  16.659 -0.3175 -0.3840  0.3941
 4139TIP3    H133832   4.771   4.260  16.708  1.9903 -0.7138 -0.6868
 4139TIP3    H233833   4.761   4.410  16.726 -0.7110 -1.0398  1.1123
 4140TIP3   OH233834   5.907   2.036   4.796 -0.1402 -0.4010  0.5230
 4140TIP3    H133835   5.885   2.095   4.868 -0.1637  0.2786 -0.0334
 4140TIP3    H233836   5.895   2.089   4.717  1.8871 -0.4881  0.1116
 4141TIP3   OH233837   5.246   4.168   5.704  0.0398 -0.4730 -0.3385
 4141TIP3    H133838   5.319   4.127   5.658 -0.5771 -0.8514 -1.0031
 4141TIP3    H233839   5.172   4.158   5.645 -0.8705 -1.3216  0.8941
 4142TIP3   OH233840   2.642   4.151   1.988  0.6093 -0.2784 -0.0093
 4142TIP3    H133841   2.639   4.144   2.084 -1.1171 -0.4524 -0.0511
 4142TIP3    H233842   2.722   4.105   1.963  1.1508 -0.1237  1.3538
 4143TIP3   OH233843   1.618   1.776  11.314  0.0118 -0.0058  0.0537
 4143TIP3    H133844   1.611   1.807  11.224  2.6927  0.5850 -0.0460
 4143TIP3    H233845   1.650   1.686  11.306  1.2269  0.3790  0.3886
 4144TIP3   OH233846   5.919   1.405   3.456 -0.6572 -0.3678 -0.3465
 4144TIP3    H133847   5.962   1.479   3.414 -0.6230  0.2560  0.7554
 4144TIP3    H233848   5.841   1.389   3.403 -0.7470  0.5574 -0.5068
 4145TIP3   OH233849   1.513   0.580  11.487 -0.3248 -0.3524  0.5449
 4145TIP3    H133850   1.574   0.539  11.426 -0.6005 -0.7349  0.5265
 4145TIP3    H233851   1.568   0.638  11.540 -0.2553  0.9124 -0.8394
 4146TIP3   OH233852   3.794   0.110  15.545  0.3070  0.3957 -0.3872
 4146TIP3    H133853   3.731   0.078  15.609 -1.0042 -0.2996 -1.9721
 4146TIP3    H233854   3.802   0.204  15.563  1.7408 -0.1175  2.2303
 4147TIP3   OH233855   0.899   0.238   6.250 -0.0304  0.2944  0.2107
 4147TIP3    H133856   0.904   0.334   6.246  2.4054  0.2037 -0.8919
 4147TIP3    H233857   0.986   0.210   6.276 -0.7952 -1.6518  0.8825
 4148TIP3   OH233858   6.752   1.063  10.300  0.0728 -0.3393 -0.8681
 4148TIP3    H133859   6.756   1.005  10.224  1.5762  3.3162 -3.9260
 4148TIP3    H233860   6.844   1.083  10.320 -0.3928  1.2123 -0.1485
 4149TIP3   OH233861   4.028   0.353  14.326 -0.2804 -0.5410 -0.1623
 4149TIP3    H133862   4.110   0.328  14.282  1.2633 -1.7078  3.0682
 4149TIP3    H233863   3.979   0.271  14.334 -0.8762 -0.2077 -0.3093
 4150TIP3   OH233864   3.688   4.564  16.540 -0.4030 -0.4739 -0.3776
 4150TIP3    H133865   3.738   4.635  16.499 -1.3829  0.5778  0.1840
 4150TIP3    H233866   3.751   4.492  16.549  0.4426  0.0798 -1.5667
 4151TIP3   OH233867   2.576   3.999   2.536  0.1641  0.1948 -0.0367
 4151TIP3    H133868   2.592   4.093   2.531  0.6108  0.1877  1.0717
 4151TIP3    H233869   2.662   3.961   2.555  0.1845 -0.5453 -1.4571
 4152TIP3   OH233870   0.488   3.807  11.222 -0.5166 -0.0603  0.1657
 4152TIP3    H133871   0.566   3.832  11.171 -0.3571  0.6951  0.7626
 4152TIP3    H233872   0.517   3.810  11.313 -0.9190 -0.9820  0.3337
 4153TIP3   OH233873   2.044   6.416  10.303  0.1971  0.0713  0.5828
 4153TIP3    H133874   2.118   6.428  10.243 -0.2115 -1.2028 -0.2075
 4153TIP3    H233875   2.036   6.501  10.348  0.7500  0.9512 -0.9047
 4154TIP3   OH233876   1.335   2.333  11.150  0.4959  0.3434 -0.1843
 4154TIP3    H133877   1.347   2.254  11.203  0.8659  1.3095  1.2576
 4154TIP3    H233878   1.354   2.405  11.211  1.2053  1.5146 -1.7302
 4155TIP3   OH233879   2.584   5.707  13.316  0.2628 -0.2492  0.0593
 4155TIP3    H133880   2.612   5.615  13.318 -0.9613 -0.8665 -3.4888
 4155TIP3    H233881   2.648   5.750  13.260  0.9677  1.2282  1.8886
 4156TIP3   OH233882   6.311   0.349   0.628  0.1395 -1.1171 -0.1452
 4156TIP3    H133883   6.362   0.425   0.598 -1.3201  0.3996  1.0092
 4156TIP3    H233884   6.365   0.273   0.604  2.4588  0.3349  0.1026
 4157TIP3   OH233885   6.415   4.622  15.764 -0.3612 -0.1705  0.5876
 4157TIP3    H133886   6.414   4.588  15.853 -0.2425  1.1730  1.1348
 4157TIP3    H233887   6.326   4.606  15.731 -0.7627  0.3615  1.3772
 4158TIP3   OH233888   1.012   5.629  12.624  0.1953 -0.4667 -0.6276
 4158TIP3    H133889   0.946   5.680  12.669  1.0323 -0.3404  0.4917
 4158TIP3    H233890   1.093   5.647  12.671  1.1196 -0.3165 -2.2032
 4159TIP3   OH233891   5.740   2.512  12.946 -0.2674  0.3621  0.2355
 4159TIP3    H133892   5.801   2.558  12.888  0.0282  0.9980  1.0328
 4159TIP3    H233893   5.794   2.444  12.988 -0.1330  0.8019  0.7968
 4160TIP3   OH233894   2.016   3.194  14.906  0.2384  0.3767 -0.1360
 4160TIP3    H133895   2.023   3.134  14.979 -2.5690 -0.3783 -0.3469
 4160TIP3    H233896   2.036   3.142  14.828 -0.1417  0.2575 -0.1558
 4161TIP3   OH233897   0.348   5.806  12.880 -0.3643 -0.2400 -0.2229
 4161TIP3    H133898   0.421   5.783  12.937 -1.2101  1.2880  1.6001
 4161TIP3    H233899   0.289   5.857  12.935 -0.1393  3.4871 -3.0009
 4162TIP3   OH233900   0.245   5.646   0.901 -0.4239 -0.3762  0.3824
 4162TIP3    H133901   0.326   5.638   0.852 -0.2641 -0.9947  0.7329
 4162TIP3    H233902   0.221   5.556   0.922 -2.2061 -0.3636 -1.3316
 4163TIP3   OH233903   5.580   1.623   4.394 -0.3076  0.4526 -0.5260
 4163TIP3    H133904   5.557   1.534   4.369 -1.5436  0.0517  1.7852
 4163TIP3    H233905   5.675   1.622   4.403 -0.1341 -0.1485 -2.1343
 4164TIP3   OH233906   3.375   2.688  13.084 -0.4621  0.2983  0.0235
 4164TIP3    H133907   3.351   2.701  12.993 -0.2019  0.4825 -0.0188
 4164TIP3    H233908   3.455   2.739  13.096 -0.1095 -0.2841  0.1748
 4165TIP3   OH233909   1.131   3.716   5.835 -0.5985  0.4335 -0.1022
 4165TIP3    H133910   1.202   3.778   5.819 -0.0651 -0.3754 -0.9455
 4165TIP3    H233911   1.168   3.651   5.894 -0.3388 -0.4710 -1.2324
 4166TIP3   OH233912   2.380   1.132   2.449 -0.4997 -0.1365 -0.4577
 4166TIP3    H133913   2.440   1.198   2.416 -0.3983 -0.1477 -0.2944
 4166TIP3    H233914   2.419   1.048   2.424 -1.2759 -0.1234 -1.8197
 4167TIP3   OH233915   4.741   1.626  16.625 -0.0430  0.1280  0.4664
 4167TIP3    H133916   4.746   1.618  16.721  1.8701 -0.5439  0.3342
 4167TIP3    H233917   4.708   1.715  16.611  0.6797  0.6179  1.7468
 4168TIP3   OH233918   1.631   1.354   3.366 -0.9086 -0.4202 -0.6639
 4168TIP3    H133919   1.712   1.350   3.416 -0.9544 -0.3145 -0.5798
 4168TIP3    H233920   1.659   1.358   3.274 -0.8358 -1.1182 -0.6741
 4169TIP3   OH233921   2.296   1.056   0.995  0.9208 -0.5243 -0.0554
 4169TIP3    H133922   2.373   1.081   0.944  1.2789  1.0895  1.1628
 4169TIP3    H233923   2.222   1.075   0.938  1.3810 -1.1993 -0.8981
 4170TIP3   OH233924   6.615   3.111  11.576  0.0867  0.0168  0.0713
 4170TIP3    H133925   6.689   3.118  11.516  0.3341  0.0974  0.3790
 4170TIP3    H233926   6.583   3.021  11.565 -0.0323  0.1142 -0.3641
 4171TIP3   OH233927   6.189   3.000   0.545  0.4357 -0.3828  0.3168
 4171TIP3    H133928   6.208   3.024   0.454 -2.0482  1.9954  0.3117
 4171TIP3    H233929   6.203   3.081   0.595 -0.2663 -1.0932  1.7301
 4172TIP3   OH233930   0.357   5.115  15.363 -0.5339  0.3808  0.0201
 4172TIP3    H133931   0.332   5.173  15.435 -0.2677 -0.3058  0.6903
 4172TIP3    H233932   0.451   5.128  15.353 -0.5449  0.3667 -0.1002
 4173TIP3   OH233933   3.255   1.430  16.615 -0.4077 -0.4495  0.4520
 4173TIP3    H133934   3.239   1.397  16.527 -1.3369  2.6377 -0.6902
 4173TIP3    H233935   3.350   1.438  16.621 -0.2574 -1.9297  0.2710
 4174TIP3   OH233936   3.754   4.548  11.207  0.0728  0.4013  0.0534
 4174TIP3    H133937   3.763   4.619  11.144  2.9358 -0.3455 -0.5149
 4174TIP3    H233938   3.696   4.485  11.163  0.1101  0.9555 -0.8231
 4175TIP3   OH233939   3.478   4.589  11.372  0.0380 -0.3722  0.5009
 4175TIP3    H133940   3.438   4.557  11.453  1.6983 -1.5352  0.9159
 4175TIP3    H233941   3.560   4.540  11.365  0.8120  1.0410 -0.9300
 4176TIP3   OH233942   5.543   2.707  11.589 -0.7893  0.3206 -0.5339
 4176TIP3    H133943   5.588   2.753  11.519 -0.6068  0.9809  0.0089
 4176TIP3    H233944   5.533   2.772  11.659  1.0773 -0.9090  0.9817
 4177TIP3   OH233945   3.933   6.639  11.730 -0.4634  0.0370  0.5458
 4177TIP3    H133946   3.930   6.733  11.711 -1.4557 -0.1349 -0.2464
 4177TIP3    H233947   3.885   6.599  11.658 -1.8181 -0.9216  1.9263
 4178TIP3   OH233948   1.581   2.754   0.052 -0.2631  0.3736 -0.1019
 4178TIP3    H133949   1.489   2.759   0.079  0.0005 -2.2838  1.7364
 4178TIP3    H233950   1.602   2.661   0.061  2.0830  0.6030 -2.4223
 4179TIP3   OH233951   2.117   0.404  13.484 -0.7310  0.2548 -0.3719
 4179TIP3    H133952   2.094   0.495  13.467 -1.7398 -0.0059 -0.5104
 4179TIP3    H233953   2.045   0.371  13.539 -0.0456 -0.2805  0.2314
 4180TIP3   OH233954   1.303   3.460  16.568  0.0539  0.0631 -0.1647
 4180TIP3    H133955   1.279   3.506  16.649  0.5074  0.6594 -0.3613
 4180TIP3    H233956   1.332   3.374  16.598  0.8543  0.5048  0.3876
 4181TIP3   OH233957   4.302   4.727  11.798 -0.1756  0.4221 -0.4592
 4181TIP3    H133958   4.254   4.731  11.715 -1.1527 -0.5539  0.0424
 4181TIP3    H233959   4.320   4.818  11.820 -1.6879  0.8089 -0.7298
 4182TIP3   OH233960   4.619   0.453   2.931  0.3495  0.0276  0.2700
 4182TIP3    H133961   4.588   0.516   2.866 -3.1712 -2.3049 -0.6391
 4182TIP3    H233962   4.686   0.402   2.885 -0.0115  0.2788 -0.5517
 4183TIP3   OH233963   0.052   1.093  13.892  0.7222  0.5509 -0.3909
 4183TIP3    H133964   0.108   1.050  13.957 -1.0957  0.6427  1.3262
 4183TIP3    H233965   0.055   1.034  13.816 -0.7494 -2.1400  1.4608
 4184TIP3   OH233966   6.666   5.143   3.703 -0.1784  0.4477 -0.0972
 4184TIP3    H133967   6.715   5.114   3.626  0.3990  0.7278  0.1608
 4184TIP3    H233968   6.650   5.236   3.687 -0.6708  0.3495 -0.1991
 4185TIP3   OH233969   2.741   4.262  12.682 -0.3112  0.3425 -0.4311
 4185TIP3    H133970   2.756   4.232  12.772 -0.3407 -0.2795 -0.6334
 4185TIP3    H233971   2.663   4.318  12.689  1.5796  3.0759  0.5134
 4186TIP3   OH233972   4.588   3.582  15.830  0.0168  0.2795 -0.1302
 4186TIP3    H133973   4.587   3.614  15.920  0.5733 -1.1088  0.3869
 4186TIP3    H233974   4.506   3.535  15.820  0.3395 -0.2985 -0.0704
 4187TIP3   OH233975   2.724   5.869  11.770 -0.0724  0.3771  0.0244
 4187TIP3    H133976   2.657   5.821  11.722  0.0680  0.4816 -0.2734
 4187TIP3    H233977   2.677   5.912  11.841 -0.4997  1.3483 -0.8237
 4188TIP3   OH233978   2.526   4.836  15.989 -0.3682  0.7333 -0.3463
 4188TIP3    H133979   2.488   4.796  15.911 -0.0802 -1.4264  0.5619
 4188TIP3    H233980   2.621   4.826  15.977 -0.3248  0.3526  0.2941
 4189TIP3   OH233981   5.349   6.759   0.953 -0.0219 -0.7108 -0.1201
 4189TIP3    H133982   5.424   6.816   0.934 -0.1999  0.1573  1.5516
 4189TIP3    H233983   5.350   6.749   1.048 -2.5485  0.0745  0.0634
 4190TIP3   OH233984   3.547   3.387  16.674 -0.1278 -0.0617 -0.6108
 4190TIP3    H133985   3.531   3.469  16.720 -1.5715 -0.0576 -1.0498
 4190TIP3    H233986   3.640   3.389  16.651  0.2357  0.6796  0.8304
 4191TIP3   OH233987   3.303   3.807   4.089  0.1231 -0.0021  0.7251
 4191TIP3    H133988   3.377   3.834   4.142  0.5597  0.2088  0.0181
 4191TIP3    H233989   3.251   3.887   4.079  0.8937  0.3651 -0.5244
 4192TIP3   OH233990   0.245   3.988   0.514 -0.7364  0.0388 -0.3243
 4192TIP3    H133991   0.210   4.077   0.523 -0.7011 -0.0889  1.3823
 4192TIP3    H233992   0.187   3.934   0.568  1.0952 -0.4356  1.2775
 4193TIP3   OH233993   5.489   4.752   0.087  0.6084 -0.4142 -0.6524
 4193TIP3    H133994   5.514   4.674   0.036 -1.3016 -0.2408 -1.9837
 4193TIP3    H233995   5.398   4.736   0.111  0.2772  1.2595 -0.6913
 4194TIP3   OH233996   5.232   3.653  12.117 -0.6295 -0.0357 -0.5563
 4194TIP3    H133997   5.214   3.697  12.201  0.1191  0.0889 -0.4564
 4194TIP3    H233998   5.327   3.642  12.115 -0.8115 -2.4276 -0.1714
 4195TIP3   OH233999   1.367   2.855  11.547 -0.0022 -0.2936 -0.0419
 4195TIP3    H134000   1.422   2.806  11.487 -0.4908 -0.6775 -0.1889
 4195TIP3    H234001   1.301   2.791  11.576 -0.3098  0.1271  0.1988
 4196TIP3   OH234002   1.179   0.357   0.743  0.4081  0.7308  0.2735
 4196TIP3    H134003   1.118   0.391   0.809 -1.0642  1.3724 -1.3267
 4196TIP3    H234004   1.199   0.268   0.772 -0.9061  0.6931  1.1401
 4197TIP3   OH234005   5.997   1.598   3.278  0.1846 -0.2897 -0.2081
 4197TIP3    H134006   6.029   1.688   3.285 -0.0921 -0.2628  0.8109
 4197TIP3    H234007   5.906   1.606   3.251 -0.3517 -0.1718  1.5011
 4198TIP3   OH234008   3.639   6.296   3.087 -0.2724  0.4679  0.5223
 4198TIP3    H134009   3.726   6.257   3.086 -0.5644 -0.2314 -1.1682
 4198TIP3    H234010   3.650   6.380   3.042 -0.2247  1.0462  1.5678
 4199TIP3   OH234011   5.361   2.658   5.011  0.3992  0.2135  0.2359
 4199TIP3    H134012   5.363   2.633   4.919 -0.3543 -0.6248  0.4240
 4199TIP3    H234013   5.272   2.691   5.025  0.3728 -0.0718  0.7546
 4200TIP3   OH234014   6.106   4.532  13.806  0.0374  0.1276  0.1591
 4200TIP3    H134015   6.078   4.579  13.727  0.4449  3.8166  1.9832
 4200TIP3    H234016   6.117   4.442  13.777 -1.6376  0.8888 -3.5252
 4201TIP3   OH234017   4.357   2.567   2.825 -0.1366 -0.5229 -0.1982
 4201TIP3    H134018   4.397   2.653   2.835  0.7589 -1.0614  1.1103
 4201TIP3    H234019   4.422   2.515   2.777 -0.7963 -0.4148 -1.2553
 4202TIP3   OH234020   1.774   3.765   1.051 -0.0154  0.7514 -0.0020
 4202TIP3    H134021   1.681   3.774   1.031  0.1799  0.8441 -0.8849
 4202TIP3    H234022   1.817   3.828   0.994  0.5290  1.3695  1.0506
 4203TIP3   OH234023   2.258   3.400   3.935 -0.2064  0.3062 -0.0448
 4203TIP3    H134024   2.194   3.369   3.870  1.5688 -1.5086 -1.0492
 4203TIP3    H234025   2.294   3.319   3.972  2.7502  1.1764 -0.8162
 4204TIP3   OH234026   3.631   1.273   5.712  0.1329 -0.4110 -0.0450
 4204TIP3    H134027   3.698   1.325   5.666  0.2613 -0.8569 -0.3621
 4204TIP3    H234028   3.559   1.334   5.725  1.2535  0.5992  1.8401
 4205TIP3   OH234029   0.764   5.505  11.625 -0.1923  0.1971 -0.1741
 4205TIP3    H134030   0.823   5.432  11.646  2.8858  1.7879 -2.4450
 4205TIP3    H234031   0.743   5.545  11.709  2.5894 -0.0713  0.7465
 4206TIP3   OH234032   2.388   6.011  13.250  0.1081 -0.0271 -0.9354
 4206TIP3    H134033   2.352   5.983  13.334  0.0620  1.0858 -0.5701
 4206TIP3    H234034   2.478   6.036  13.270  0.2592 -0.2541 -1.3270
 4207TIP3   OH234035   1.884   4.168  14.930  0.8412 -0.3443 -0.2718
 4207TIP3    H134036   1.878   4.239  14.995  1.3039 -0.0913 -0.5020
 4207TIP3    H234037   1.794   4.136  14.921  0.9040 -1.0400  1.2202
 4208TIP3   OH234038   1.789   3.841   2.423  0.6668  0.5274 -0.5045
 4208TIP3    H134039   1.832   3.919   2.390 -3.1765  2.6812 -1.0982
 4208TIP3    H234040   1.780   3.784   2.347 -0.0761  1.3996 -1.0960
 4209TIP3   OH234041   1.562   5.390   6.229  0.0899 -0.0784  0.1638
 4209TIP3    H134042   1.473   5.392   6.264  0.3091  1.5922  0.7489
 4209TIP3    H234043   1.584   5.483   6.216  1.4799 -0.4942 -0.6631
 4210TIP3   OH234044   0.539   5.274   2.321 -0.0255 -0.4749  0.3269
 4210TIP3    H134045   0.561   5.343   2.258 -1.0926 -1.5835 -1.3448
 4210TIP3    H234046   0.611   5.275   2.384  0.4170  1.5650 -0.1351
 4211TIP3   OH234047   5.048   0.687  12.088 -0.0938 -0.1005 -0.0030
 4211TIP3    H134048   4.959   0.721  12.102 -0.5870 -1.7300  1.1514
 4211TIP3    H234049   5.097   0.715  12.164 -0.3842 -1.4734  0.7295
 4212TIP3   OH234050   4.467   3.261  12.923  0.0440  0.5122 -0.0135
 4212TIP3    H134051   4.524   3.273  12.848 -0.1971  0.9576 -0.1327
 4212TIP3    H234052   4.462   3.166  12.936 -0.6834  0.3779 -1.1557
 4213TIP3   OH234053   3.523   1.277  15.534  0.1122 -0.3075 -0.0529
 4213TIP3    H134054   3.601   1.331  15.522  1.2822 -2.1466 -1.3389
 4213TIP3    H234055   3.464   1.303  15.464 -0.6503  1.3769  1.1689
 4214TIP3   OH234056   0.179   1.438   0.505 -0.1016 -0.0584 -0.4832
 4214TIP3    H134057   0.109   1.396   0.455 -0.6594  0.3373 -0.0399
 4214TIP3    H234058   0.136   1.506   0.555  0.1782 -1.4465  1.7622
 4215TIP3   OH234059   1.261   5.732  12.731 -0.3914  0.2426 -0.3686
 4215TIP3    H134060   1.231   5.756  12.818 -1.6195 -0.2993 -0.6206
 4215TIP3    H234061   1.356   5.724  12.739 -0.4156  0.9531  0.7216
 4216TIP3   OH234062   2.283   2.954   1.455  1.7382 -0.1537 -0.2744
 4216TIP3    H134063   2.264   2.880   1.512 -1.0182  1.0411  0.5381
 4216TIP3    H234064   2.248   2.929   1.370  0.6111  0.2550  0.0537
 4217TIP3   OH234065   5.815   4.205   6.028 -0.1316 -0.3095 -0.1900
 4217TIP3    H134066   5.751   4.135   6.036  1.4361 -1.9655 -1.1459
 4217TIP3    H234067   5.880   4.186   6.096 -1.1446  1.9900  1.5319
 4218TIP3   OH234068   3.593   5.562   4.513 -0.3942  0.0627 -0.1470
 4218TIP3    H134069   3.627   5.616   4.441 -1.3690 -1.4422 -1.8409
 4218TIP3    H234070   3.659   5.568   4.581 -0.9748  4.3135  0.2955
 4219TIP3   OH234071   6.440   4.488   3.701 -0.5721  0.2144  0.4982
 4219TIP3    H134072   6.348   4.463   3.686 -0.4876  0.1079  0.1479
 4219TIP3    H234073   6.441   4.522   3.790 -1.0740  0.7828  0.2946
 4220TIP3   OH234074   0.514   5.171  12.451 -0.1880  0.2939 -0.2787
 4220TIP3    H134075   0.519   5.100  12.387  2.8741 -0.0890  0.1980
 4220TIP3    H234076   0.533   5.250  12.401 -0.5807  0.3671 -0.3109
 4221TIP3   OH234077   6.639   1.015  13.425 -0.7802 -0.3910 -0.8596
 4221TIP3    H134078   6.656   0.971  13.342 -1.2223 -0.7300 -0.7741
 4221TIP3    H234079   6.725   1.048  13.453 -0.9683  1.9030 -2.6447
 4222TIP3   OH234080   0.963   4.053  14.399  0.2895 -0.2752  0.0468
 4222TIP3    H134081   1.020   3.979  14.379 -0.2442 -1.0750  1.3882
 4222TIP3    H234082   0.926   4.033  14.485 -0.2720  1.3068  0.2109
 4223TIP3   OH234083   2.515   6.304  14.201  0.1987 -0.4829 -0.4133
 4223TIP3    H134084   2.485   6.230  14.253 -0.9185  0.3539  0.1903
 4223TIP3    H234085   2.605   6.320  14.229 -0.8699  0.9997  2.6010
 4224TIP3   OH234086   6.221   2.496  14.530  0.0539  0.3492  0.3010
 4224TIP3    H134087   6.193   2.457  14.447  1.8661  1.1699 -0.7544
 4224TIP3    H234088   6.162   2.571  14.542 -1.4324 -0.8291  0.7644
 4225TIP3   OH234089   4.698   2.297  16.695  0.3695  0.0643  0.5402
 4225TIP3    H134090   4.713   2.389  16.717 -1.3334  0.9743 -1.8094
 4225TIP3    H234091   4.778   2.253  16.724  2.0756  2.5928  0.0110
 4226TIP3   OH234092   0.878   4.652  10.619 -0.0679 -0.5465 -0.2089
 4226TIP3    H134093   0.893   4.639  10.526 -1.0179 -1.1423 -0.2846
 4226TIP3    H234094   0.838   4.571  10.649  0.7767 -0.5975  0.8487
 4227TIP3   OH234095   4.127   5.825  14.152 -0.2076  0.2518 -0.2169
 4227TIP3    H134096   4.052   5.836  14.211 -0.7524 -2.2501 -0.3636
 4227TIP3    H234097   4.151   5.915  14.128 -2.9715  1.1593  0.0659
 4228TIP3   OH234098   1.385   0.626   5.984 -0.0266 -0.0822 -0.2188
 4228TIP3    H134099   1.469   0.581   5.998 -0.1112 -0.2238 -0.1594
 4228TIP3    H234100   1.380   0.691   6.055  0.5575  0.7140 -0.8946
 4229TIP3   OH234101   0.748   6.058  13.242 -0.3727  0.0958  0.4364
 4229TIP3    H134102   0.713   6.138  13.204  0.2028  0.0042 -0.3225
 4229TIP3    H234103   0.746   6.072  13.336 -4.6455 -0.7717  0.7156
 4230TIP3   OH234104   1.437   1.792  11.503  0.0835  0.3851  0.0671
 4230TIP3    H134105   1.381   1.739  11.448 -0.9934  0.9721  0.5676
 4230TIP3    H234106   1.517   1.804  11.452 -0.4625  0.0079 -0.8914
 4231TIP3   OH234107   5.332   4.762  15.353  0.7903 -0.3134 -0.1942
 4231TIP3    H134108   5.284   4.823  15.410  1.0244 -1.0055  0.7768
 4231TIP3    H234109   5.330   4.679  15.401  2.0048 -0.6305 -0.6607
 4232TIP3   OH234110   1.805   1.716   2.000 -0.4274 -0.1474 -0.4181
 4232TIP3    H134111   1.723   1.757   1.974 -1.4537 -0.3025  2.1923
 4232TIP3    H234112   1.869   1.744   1.935 -2.3340  0.7343 -2.0095
 4233TIP3   OH234113   3.592   5.720   4.944  0.1416 -0.0830 -0.5818
 4233TIP3    H134114   3.623   5.765   4.865 -1.9067  3.0682  0.2312
 4233TIP3    H234115   3.649   5.752   5.014 -1.2457  1.2760 -0.0182
 4234TIP3   OH234116   6.399   5.321   5.674  0.1425  0.4956  0.2682
 4234TIP3    H134117   6.409   5.274   5.591 -0.6353  0.9499 -0.0922
 4234TIP3    H234118   6.482   5.308   5.719  1.4931  2.1871 -1.5830
 4235TIP3   OH234119   1.077   2.541   0.154  0.0287 -0.3548  0.2805
 4235TIP3    H134120   0.986   2.510   0.156  0.0624 -0.5189 -0.5011
 4235TIP3    H234121   1.104   2.539   0.246  0.2073 -3.2272  0.2757
 4236TIP3   OH234122   3.976   5.839   5.506 -0.3040  0.1989 -0.0018
 4236TIP3    H134123   4.029   5.788   5.444  0.0061  0.5485 -0.0275
 4236TIP3    H234124   3.969   5.925   5.465  0.5338  0.6619  0.7898
 4237TIP3   OH234125   0.807   6.171  10.497 -0.8331 -0.4116  0.4504
 4237TIP3    H134126   0.854   6.111  10.555  2.1727  1.4892  0.2306
 4237TIP3    H234127   0.756   6.226  10.556  0.0387 -0.2653  1.0979
 4238TIP3   OH234128   5.132   4.178   1.633 -0.4798  0.1121 -0.8504
 4238TIP3    H134129   5.175   4.222   1.560  0.2007  1.0801  0.0949
 4238TIP3    H234130   5.197   4.115   1.665  0.0265  1.1088  0.1611
 4239TIP3   OH234131   3.787   4.585   0.410  0.1408 -0.0648 -0.2147
 4239TIP3    H134132   3.700   4.624   0.424  0.1801  1.2371 -2.8993
 4239TIP3    H234133   3.771   4.512   0.350  0.8297 -0.3185 -0.0998
 4240TIP3   OH234134   5.009   2.222  16.835  0.4448  0.0339 -0.4763
 4240TIP3    H134135   5.055   2.183  16.909 -0.2894 -0.9431 -0.5172
 4240TIP3    H234136   5.016   2.317  16.849 -0.3424 -0.1214  1.2743
 4241TIP3   OH234137   1.866   5.200   1.994  0.2336 -0.5912 -0.4155
 4241TIP3    H134138   1.906   5.115   2.012  1.1838 -0.3705 -1.3382
 4241TIP3    H234139   1.913   5.261   2.051  0.6788 -0.4493 -0.9287
 4242TIP3   OH234140   2.172   4.426   5.729 -0.1024 -0.2147  0.0159
 4242TIP3    H134141   2.176   4.331   5.742 -0.3106 -0.3569 -0.9166
 4242TIP3    H234142   2.101   4.454   5.787 -0.0684 -0.6352  0.2689
 4243TIP3   OH234143   0.996   0.920   2.587  0.3622 -0.5913  0.0292
 4243TIP3    H134144   1.023   0.845   2.534 -0.9996  0.7308 -2.8000
 4243TIP3    H234145   0.931   0.884   2.647  0.9096 -1.9437 -0.1384
 4244TIP3   OH234146   2.868   6.203   3.921 -0.1474 -0.3923  0.3656
 4244TIP3    H134147   2.842   6.144   3.992  0.1704 -2.4796 -1.1650
 4244TIP3    H234148   2.787   6.246   3.895 -0.4654 -0.4373  1.2271
 4245TIP3   OH234149   0.381   3.541   1.325  0.1471 -0.5279 -0.1494
 4245TIP3    H134150   0.316   3.558   1.394 -0.4149  0.6459 -0.9251
 4245TIP3    H234151   0.334   3.562   1.244  0.5143 -2.7049 -0.9751
 4246TIP3   OH234152   5.902   3.216  15.927 -0.1522 -0.1918  0.0150
 4246TIP3    H134153   5.862   3.141  15.883  1.4612 -1.3138  0.3570
 4246TIP3    H234154   5.924   3.276  15.856  0.9089 -1.2375 -0.5779
 4247TIP3   OH234155   1.235   6.261  12.491  0.8225 -0.0854  0.2255
 4247TIP3    H134156   1.268   6.323  12.557  0.8098 -1.5429  1.6508
 4247TIP3    H234157   1.295   6.187  12.495  0.2561 -0.6201 -0.7323
 4248TIP3   OH234158   5.486   6.708  14.182 -0.5940  0.6223  0.0181
 4248TIP3    H134159   5.481   6.796  14.144  0.5638  1.0171  0.7466
 4248TIP3    H234160   5.574   6.678  14.162 -0.3483  0.3807  1.3645
 4249TIP3   OH234161   4.437   4.161  15.763  0.0014 -0.1556 -1.2032
 4249TIP3    H134162   4.367   4.135  15.702 -1.3565  0.7397 -0.1058
 4249TIP3    H234163   4.404   4.241  15.804  0.7952 -0.7756  0.7791
 4250TIP3   OH234164   5.544   3.195   0.475  0.4281  0.3261  0.3565
 4250TIP3    H134165   5.529   3.134   0.548  0.7209 -0.9907 -0.6315
 4250TIP3    H234166   5.474   3.174   0.413  2.2131 -1.1109 -1.3008
 4251TIP3   OH234167   2.490   1.955   2.405 -0.2134  0.4520 -0.0212
 4251TIP3    H134168   2.532   1.872   2.380 -1.9629  0.0531 -1.9587
 4251TIP3    H234169   2.559   2.005   2.448  0.6697 -2.3269  2.0793
 4252TIP3   OH234170   4.074   5.891  14.942 -0.6944  0.5128 -0.1186
 4252TIP3    H134171   4.050   5.979  14.969 -0.4762  0.0172  1.8140
 4252TIP3    H234172   4.083   5.842  15.023  2.6431 -0.4339 -0.8816
 4253TIP3   OH234173   5.941   5.584   5.632 -0.8082 -0.6533 -0.3870
 4253TIP3    H134174   6.019   5.633   5.606 -1.4963 -0.6873 -2.8315
 4253TIP3    H234175   5.870   5.648   5.628 -1.1246 -0.9413  0.4429
 4254TIP3   OH234176   1.157   3.856   6.062 -0.6337  0.3542  0.3270
 4254TIP3    H134177   1.235   3.830   6.111  0.9104  1.9753 -1.1485
 4254TIP3    H234178   1.088   3.798   6.095  1.2098 -1.2762  1.5447
 4255TIP3   OH234179   4.095   2.943  10.692 -0.4600 -0.0232  0.6178
 4255TIP3    H134180   4.084   2.962  10.785 -1.5357 -1.1604  0.7476
 4255TIP3    H234181   4.010   2.909  10.664  0.4811 -1.8398 -0.2412
 4256TIP3   OH234182   5.515   4.413   4.030  0.0075 -0.2780 -0.3703
 4256TIP3    H134183   5.530   4.444   4.120 -1.6329  2.8400 -0.9961
 4256TIP3    H234184   5.434   4.362   4.037 -0.8086  0.9792 -0.1806
 4257TIP3   OH234185   3.039   2.844   3.150 -0.3931 -0.2182  0.0903
 4257TIP3    H134186   3.100   2.770   3.152  1.4799  1.1475 -1.3290
 4257TIP3    H234187   3.070   2.902   3.219 -0.4880  0.1675 -0.1861
 4258TIP3   OH234188   0.892   3.152  14.685 -0.6006  0.1989 -0.3388
 4258TIP3    H134189   0.921   3.243  14.673 -0.1266 -0.1515 -2.0503
 4258TIP3    H234190   0.971   3.106  14.715 -1.3866  0.7385  2.9988
 4259TIP3   OH234191   3.695   4.674  12.475 -0.2148 -0.0533 -0.3186
 4259TIP3    H134192   3.608   4.635  12.467 -0.7061  1.4624 -3.6052
 4259TIP3    H234193   3.680   4.768  12.474  1.4846  0.2441 -1.6303
 4260TIP3   OH234194   2.072   0.537   2.486  0.0190 -0.2587 -0.2132
 4260TIP3    H134195   2.144   0.601   2.487  0.3020 -0.5692  0.8537
 4260TIP3    H234196   2.109   0.460   2.443  0.7560 -0.8647  1.4310
 4261TIP3   OH234197   1.524   1.124  14.387  0.5487 -0.1315  0.0552
 4261TIP3    H134198   1.518   1.217  14.409 -0.2268  0.2601 -1.6414
 4261TIP3    H234199   1.608   1.115  14.343  0.5913 -0.2266  0.1548
 4262TIP3   OH234200   2.985   2.605   1.122 -0.2347  0.0297  0.6890
 4262TIP3    H134201   3.048   2.674   1.100 -0.9525  0.5432  0.1980
 4262TIP3    H234202   3.024   2.561   1.198  1.3764 -0.5549 -0.4168
 4263TIP3   OH234203   0.170   3.645   2.467  1.2984 -0.6721 -0.0650
 4263TIP3    H134204   0.224   3.724   2.468 -2.1471  1.8865  1.1767
 4263TIP3    H234205   0.094   3.668   2.414 -1.8565 -1.4863  3.6304
 4264TIP3   OH234206   2.028   0.272  12.816  0.4252 -0.5802  0.3568
 4264TIP3    H134207   2.070   0.221  12.886  3.3295  1.1680  0.0261
 4264TIP3    H234208   2.079   0.251  12.738  0.8826  1.7686 -0.0386
 4265TIP3   OH234209   3.368   5.044  15.288  0.1593  0.2721  0.1200
 4265TIP3    H134210   3.280   5.026  15.321  0.2330  0.2852  0.3251
 4265TIP3    H234211   3.389   5.131  15.321  0.4188  0.0929  0.4329
 4266TIP3   OH234212   6.427   5.082  13.071  0.3380  0.2112  0.1521
 4266TIP3    H134213   6.337   5.053  13.061  0.4586 -0.4584  0.9175
 4266TIP3    H234214   6.442   5.142  12.997 -0.2771 -0.7738 -0.7929
 4267TIP3   OH234215   2.232   1.283  10.602 -0.1308 -0.5044  0.4798
 4267TIP3    H134216   2.207   1.195  10.573 -4.4016  0.2636  1.1864
 4267TIP3    H234217   2.308   1.269  10.658  0.0504 -3.5738 -0.3380
 4268TIP3   OH234218   5.699   0.787   0.445 -0.8779 -0.1427 -0.2320
 4268TIP3    H134219   5.770   0.831   0.399  0.5866 -0.8708  1.2585
 4268TIP3    H234220   5.625   0.848   0.440 -0.6701  0.0097 -3.1022
 4269TIP3   OH234221   0.652   5.301   4.996 -0.0230  0.1423  0.5982
 4269TIP3    H134222   0.646   5.210   5.026  0.8115  0.1683  0.8635
 4269TIP3    H234223   0.577   5.344   5.037  1.3119  0.2779  3.1006
 4270TIP3   OH234224   5.116   1.438  14.976  0.0471 -0.1144 -0.3303
 4270TIP3    H134225   5.098   1.520  15.022  0.1242  0.0610 -0.6089
 4270TIP3    H234226   5.075   1.449  14.890  1.8197  0.4808 -1.1637
 4271TIP3   OH234227   0.001   2.024  16.985  0.2911  0.7639  0.0315
 4271TIP3    H134228   0.048   2.054  17.063  3.1197 -0.3946 -1.1005
 4271TIP3    H234229   0.013   1.929  16.984 -0.8036  0.6075 -1.1354
 4272TIP3   OH234230   2.967   0.919   5.623  0.2070  0.1464 -0.0931
 4272TIP3    H134231   2.974   0.984   5.693  0.7627 -0.0320  0.0194
 4272TIP3    H234232   3.048   0.868   5.629 -1.1369 -2.0127  1.2709
 4273TIP3   OH234233   0.781   6.058  16.814 -0.9216  0.3823 -0.4970
 4273TIP3    H134234   0.741   5.972  16.802 -1.0688  0.3095  0.5039
 4273TIP3    H234235   0.841   6.067  16.739 -3.0272  0.6400 -2.2693
 4274TIP3   OH234236   1.681   1.430   2.131  0.3863  0.6562 -0.3807
 4274TIP3    H134237   1.629   1.463   2.057 -1.4638 -1.7373 -0.2901
 4274TIP3    H234238   1.733   1.359   2.094  0.2627  0.1449  0.4036
 4275TIP3   OH234239   4.031   6.366   1.648 -0.0908 -0.4748  0.0553
 4275TIP3    H134240   3.954   6.412   1.680  1.4640  1.0457  1.7744
 4275TIP3    H234241   4.081   6.432   1.600 -0.1313 -1.6122 -1.6484
 4276TIP3   OH234242   3.295   2.916  15.875 -0.0242 -0.1909  0.1707
 4276TIP3    H134243   3.242   2.877  15.944 -0.3063  0.8613  0.5627
 4276TIP3    H234244   3.277   3.010  15.880 -0.1219 -0.0935 -1.3836
 4277TIP3   OH234245   0.782   4.929  13.585  0.2256 -0.0952  0.2820
 4277TIP3    H134246   0.693   4.963  13.594  0.5639  0.3984  2.3132
 4277TIP3    H234247   0.772   4.847  13.537 -1.3323 -0.0797  0.5337
 4278TIP3   OH234248   6.524   4.838  15.617 -0.3780  0.0785  0.6352
 4278TIP3    H134249   6.519   4.806  15.527  1.1439 -0.0466  0.5712
 4278TIP3    H234250   6.480   4.770  15.669 -2.1314  0.6113 -0.0812
 4279TIP3   OH234251   6.301   4.522   4.535  0.0254  0.6685 -0.0619
 4279TIP3    H134252   6.294   4.617   4.522 -2.6838  0.6260  0.5078
 4279TIP3    H234253   6.309   4.512   4.629 -0.4182  0.3368 -0.0546
 4280TIP3   OH234254   6.406   0.293  13.750 -0.3337  0.7062 -0.3425
 4280TIP3    H134255   6.358   0.240  13.686  1.5113 -0.2539 -1.0112
 4280TIP3    H234256   6.381   0.256  13.835 -1.0854  0.5128 -0.6445
 4281TIP3   OH234257   4.880   5.455  14.526  0.3405  0.0369  0.1406
 4281TIP3    H134258   4.899   5.431  14.436  2.0752  0.0069  0.4801
 4281TIP3    H234259   4.792   5.420  14.543 -0.0217  0.0789 -1.5231
 4282TIP3   OH234260   0.554   3.425   0.167  0.3196 -0.8443 -0.3057
 4282TIP3    H134261   0.459   3.428   0.182  0.6975 -0.7899  2.6738
 4282TIP3    H234262   0.578   3.335   0.188  0.8055 -1.2142 -2.3015
 4283TIP3   OH234263   1.811   6.418   5.301  0.3855  0.3208  0.2674
 4283TIP3    H134264   1.732   6.426   5.247  1.3076  1.1970 -1.0003
 4283TIP3    H234265   1.846   6.507   5.307  2.2509 -0.2937 -0.7358
 4284TIP3   OH234266   2.567   4.632  16.554 -0.0353 -0.1333 -0.0458
 4284TIP3    H134267   2.635   4.621  16.488  0.7297 -0.6185  0.8041
 4284TIP3    H234268   2.490   4.662  16.504  0.3841 -0.9262 -1.2188
 4285TIP3   OH234269   2.143   1.770  15.996 -0.2544 -0.3482 -0.3563
 4285TIP3    H134270   2.153   1.702  15.929  2.7569 -1.1375  0.7256
 4285TIP3    H234271   2.102   1.726  16.070 -2.1388  0.1292 -1.0776
 4286TIP3   OH234272   1.110   6.307  15.698 -0.8900  0.1550  0.1416
 4286TIP3    H134273   1.073   6.219  15.691 -0.4351 -0.0178 -0.2008
 4286TIP3    H234274   1.036   6.366  15.687 -0.8853 -0.1625 -1.9840
 4287TIP3   OH234275   5.585   0.248  12.321  0.2956 -0.1911 -0.0740
 4287TIP3    H134276   5.584   0.308  12.246  1.1956  0.6229  0.5406
 4287TIP3    H234277   5.672   0.208  12.319  1.2569  1.6276  1.8691
 4288TIP3   OH234278   2.688   3.004  12.611  0.2436 -0.4671 -0.0530
 4288TIP3    H134279   2.614   3.061  12.632  1.1905  0.3266  1.2919
 4288TIP3    H234280   2.740   3.002  12.691  1.5485 -1.2180 -0.8840
 4289TIP3   OH234281   0.996   0.845  16.575 -0.5202  0.1373  0.1459
 4289TIP3    H134282   1.068   0.819  16.518  1.5053  4.2047  0.4340
 4289TIP3    H234283   0.926   0.873  16.515 -0.5494 -0.6495 -0.1934
 4290TIP3   OH234284   5.990   4.023  14.988  0.1748  0.1532  0.2639
 4290TIP3    H134285   5.962   4.036  15.078 -0.4059  1.0629 -0.0343
 4290TIP3    H234286   5.970   3.931  14.970  0.4871 -0.0931  1.1139
 4291TIP3   OH234287   2.556   6.087  11.033  0.7433 -0.1884 -0.0665
 4291TIP3    H134288   2.507   6.029  11.091 -2.5717  1.2395 -1.2307
 4291TIP3    H234289   2.546   6.049  10.946  1.4995  0.3072 -0.3851
 4292TIP3   OH234290   0.744   3.173   4.677  0.4353 -0.6336  0.0277
 4292TIP3    H134291   0.674   3.208   4.731  1.7226 -0.8959  1.9880
 4292TIP3    H234292   0.751   3.234   4.604 -1.1003 -0.0196  0.3580
 4293TIP3   OH234293   5.629   1.436  13.110  0.2705 -0.0930  0.8107
 4293TIP3    H134294   5.697   1.496  13.081  0.3234 -0.5567 -0.0564
 4293TIP3    H234295   5.589   1.479  13.185  0.1085  1.1487  0.0301
 4294TIP3   OH234296   3.122   3.286  15.529 -0.1902  0.1683  0.1950
 4294TIP3    H134297   3.114   3.199  15.567  1.2457 -1.3532 -2.5793
 4294TIP3    H234298   3.199   3.280  15.472  0.1921  3.3989  0.1578
 4295TIP3   OH234299   6.583   6.534  13.760 -0.4308 -0.3100 -0.6909
 4295TIP3    H134300   6.656   6.483  13.724 -0.0602  1.8505 -3.3057
 4295TIP3    H234301   6.616   6.570  13.842  0.8274 -0.7708 -0.9718
 4296TIP3   OH234302   2.775   5.039   4.176  0.4644 -0.2053  0.3453
 4296TIP3    H134303   2.806   5.101   4.110  0.2130  0.6938  1.0531
 4296TIP3    H234304   2.795   5.080   4.260 -0.4972 -0.6710  0.8258
 4297TIP3   OH234305   5.570   2.133   5.876  0.0216  0.2304 -0.3624
 4297TIP3    H134306   5.494   2.150   5.820 -0.8527  2.0787  1.2625
 4297TIP3    H234307   5.632   2.202   5.853  0.5972 -0.3528 -0.5954
 4298TIP3   OH234308   0.011   6.502   6.617 -0.5947  0.6279 -0.2317
 4298TIP3    H134309   0.079   6.561   6.650  0.8864 -0.8732 -0.4696
 4298TIP3    H234310  -0.004   6.441   6.689 -2.3735  1.4180  0.1477
 4299TIP3   OH234311   0.514   6.407  16.557 -0.3054 -0.5185 -0.0159
 4299TIP3    H134312   0.537   6.323  16.597  0.9182 -0.2866 -0.1967
 4299TIP3    H234313   0.491   6.384  16.467 -1.5383 -0.8389  0.3546
 4300TIP3   OH234314   5.151   4.558  13.783  0.6645  0.6197  0.5231
 4300TIP3    H134315   5.111   4.575  13.698  0.0426  0.1928  0.7237
 4300TIP3    H234316   5.081   4.574  13.846 -0.1825 -3.0618  0.7116
 4301TIP3   OH234317   5.227   3.396   1.569  0.1160 -0.1931 -0.5805
 4301TIP3    H134318   5.309   3.374   1.525  0.2939  1.1662 -0.9499
 4301TIP3    H234319   5.189   3.467   1.517 -0.8494 -0.1778  0.1126
 4302TIP3   OH234320   2.017   2.471   1.677  0.0944 -0.3846 -0.0564
 4302TIP3    H134321   1.937   2.512   1.712  0.8811  0.1897  1.1447
 4302TIP3    H234322   2.042   2.407   1.744  2.0021  1.1873  0.8419
 4303TIP3   OH234323   6.027   0.232  11.144 -0.2398  0.0440  0.1882
 4303TIP3    H134324   5.977   0.169  11.092  0.4552  0.9563 -1.6750
 4303TIP3    H234325   6.074   0.284  11.080 -0.9855  2.6705  1.6213
 4304TIP3   OH234326   4.239   3.121  12.061  0.7530 -0.4359  0.3311
 4304TIP3    H134327   4.233   3.182  12.135 -1.1714 -0.5085  0.2962
 4304TIP3    H234328   4.166   3.060  12.075 -0.6432  0.4511 -2.3817
 4305TIP3   OH234329   1.929   1.481  14.519 -0.1270 -0.3711 -0.2128
 4305TIP3    H134330   1.923   1.388  14.542  0.0041 -0.8516 -1.9564
 4305TIP3    H234331   2.016   1.507  14.550  0.3844 -1.2132 -0.8455
 4306TIP3   OH234332   3.490   6.718   4.122 -0.1138  0.1717 -0.4436
 4306TIP3    H134333   3.540   6.656   4.070 -1.1186 -0.9799 -0.0953
 4306TIP3    H234334   3.490   6.681   4.210 -0.3537  0.9012 -0.1278
 4307TIP3   OH234335   4.040   1.821   4.079  0.3017  0.5366 -0.1514
 4307TIP3    H134336   4.044   1.917   4.072 -0.5234  0.6076  0.2916
 4307TIP3    H234337   4.110   1.798   4.139  1.3660  0.7345 -1.2673
 4308TIP3   OH234338   1.617   5.930   1.077 -0.1679  0.1506  0.1573
 4308TIP3    H134339   1.530   5.961   1.051 -1.0305  0.3515  2.9378
 4308TIP3    H234340   1.601   5.844   1.116  0.9048  0.1356  0.6051
 4309TIP3   OH234341   2.924   6.772   5.344 -0.3151 -0.6332  0.4256
 4309TIP3    H134342   2.994   6.727   5.393  0.2867 -0.1681  0.0097
 4309TIP3    H234343   2.876   6.701   5.301  1.5610 -0.8801 -1.4764
 4310TIP3   OH234344   1.997   0.572  11.493 -0.0667 -0.4055 -0.0079
 4310TIP3    H134345   2.062   0.510  11.459  0.0362 -0.5568  0.4520
 4310TIP3    H234346   2.049   0.649  11.518 -0.0225 -0.6128  0.5722
 4311TIP3   OH234347   4.407   4.943   3.210  0.1728 -0.0859 -0.2748
 4311TIP3    H134348   4.422   4.852   3.234  0.6545  0.0289 -0.1185
 4311TIP3    H234349   4.490   4.987   3.230 -0.0742  0.3979 -0.2850
 4312TIP3   OH234350   1.946   5.171  10.976  0.5531  0.2202  0.1276
 4312TIP3    H134351   2.030   5.166  10.931  1.5012  1.5576  1.6552
 4312TIP3    H234352   1.881   5.170  10.906  1.8600  0.0052 -1.1218
 4313TIP3   OH234353   3.220   1.588  12.163 -0.4847 -0.1070  0.1930
 4313TIP3    H134354   3.174   1.621  12.240  1.1392 -1.9888  2.0715
 4313TIP3    H234355   3.151   1.578  12.097 -2.3395 -0.4976  2.0837
 4314TIP3   OH234356   2.021   6.530   4.180 -0.0490  0.3737 -0.4569
 4314TIP3    H134357   2.039   6.437   4.164  0.3481  0.3726 -0.0119
 4314TIP3    H234358   2.105   6.566   4.208 -0.1667  0.9029 -0.7702
 4315TIP3   OH234359   5.746   1.833  17.227  0.0153  0.0052  0.1948
 4315TIP3    H134360   5.817   1.787  17.182  1.5798  0.2950  2.2352
 4315TIP3    H234361   5.687   1.764  17.255  1.0788 -0.5747  1.0938
 4316TIP3   OH234362   2.042   1.173  13.793  0.3661 -0.4947  0.3751
 4316TIP3    H134363   2.071   1.180  13.884  1.0106  0.5864  0.0968
 4316TIP3    H234364   2.104   1.226  13.743 -0.9180  0.2378 -0.4955
 4317TIP3   OH234365   1.904   6.564  11.874  0.2749  0.1381  0.1940
 4317TIP3    H134366   1.862   6.481  11.849  2.1313 -0.5417 -0.9187
 4317TIP3    H234367   1.997   6.543  11.880  0.9451  2.3371 -1.1187
 4318TIP3   OH234368   2.229   3.543  10.804  0.1597  0.1923  0.1355
 4318TIP3    H134369   2.284   3.611  10.764 -0.7604  1.6780  1.3095
 4318TIP3    H234370   2.160   3.527  10.740  1.8784 -1.7222 -1.3741
 4319TIP3   OH234371   3.729   4.585   2.466  0.1774  0.0507 -0.0652
 4319TIP3    H134372   3.738   4.679   2.483  2.2864 -0.1342  0.1355
 4319TIP3    H234373   3.710   4.579   2.372  1.8052  0.6607 -0.4661
 4320TIP3   OH234374   6.656   3.036   2.970  0.6215  0.3992 -0.1374
 4320TIP3    H134375   6.697   3.056   3.054  1.6324  1.6366 -0.8891
 4320TIP3    H234376   6.621   3.120   2.940 -1.2624 -0.3634 -0.1833
 4321TIP3   OH234377   5.049   3.332  14.961 -0.6446  0.3181 -0.2071
 4321TIP3    H134378   4.982   3.274  14.999  1.1820 -1.4186  0.5669
 4321TIP3    H234379   5.041   3.413  15.011 -0.9943 -0.4999  1.1211
 4322TIP3   OH234380   4.210   4.458  12.317 -0.2940 -0.5905 -0.0163
 4322TIP3    H134381   4.265   4.503  12.252  0.0274  0.6378  1.0561
 4322TIP3    H234382   4.143   4.522  12.340 -2.4369 -2.1575 -1.4987
 4323TIP3   OH234383   4.060   1.702  13.760 -0.4652 -0.1148  0.0499
 4323TIP3    H134384   4.126   1.635  13.778 -1.1795 -0.8065  0.1168
 4323TIP3    H234385   3.983   1.674  13.809 -0.9945  0.3956 -0.4714
 4324TIP3   OH234386   5.717   2.074  15.703  0.5733  0.5679 -0.4585
 4324TIP3    H134387   5.730   1.979  15.706  0.1795  0.5202  2.2969
 4324TIP3    H234388   5.771   2.107  15.775 -0.3524  2.2936 -0.5257
 4325TIP3   OH234389   1.581   2.390   5.783 -0.5865  0.0296  0.3849
 4325TIP3    H134390   1.591   2.391   5.878  0.7941 -0.6688  0.2722
 4325TIP3    H234391   1.621   2.307   5.756 -0.5440  0.4367 -0.8386
 4326TIP3   OH234392   1.291   3.353   3.751 -0.1818  0.1794  0.3831
 4326TIP3    H134393   1.345   3.278   3.775  0.1664  0.2919 -0.0403
 4326TIP3    H234394   1.353   3.426   3.743 -0.2591  0.1260 -0.9583
 4327TIP3   OH234395   6.322   3.783  10.987 -0.0959  0.0358  0.3020
 4327TIP3    H134396   6.357   3.869  11.011 -2.2185  0.6259  1.5755
 4327TIP3    H234397   6.249   3.802  10.929  0.2043 -1.0014 -0.4350
 4328TIP3   OH234398   2.049   3.679  14.252  0.1363  0.2551 -0.3020
 4328TIP3    H134399   2.073   3.588  14.267  1.0809  0.2564 -1.6077
 4328TIP3    H234400   2.053   3.689  14.157  0.4960  1.7753 -0.1459
 4329TIP3   OH234401   2.720   3.273   1.446 -0.3411 -0.1891 -0.3800
 4329TIP3    H134402   2.689   3.338   1.509 -0.6695 -1.0876  0.4095
 4329TIP3    H234403   2.651   3.206   1.446  0.4491 -1.0161 -0.4382
 4330TIP3   OH234404   3.731   2.011  11.558  0.2757 -0.0529  0.2315
 4330TIP3    H134405   3.652   2.007  11.612  1.2914 -0.8125  1.7400
 4330TIP3    H234406   3.781   2.084  11.594  0.5402  0.0231 -0.2862
 4331TIP3   OH234407   1.501   4.153  13.048 -0.1455 -0.2929 -0.3824
 4331TIP3    H134408   1.591   4.122  13.034 -0.0073  0.5006 -1.3321
 4331TIP3    H234409   1.486   4.216  12.978 -1.3969 -0.2949 -0.1367
 4332TIP3   OH234410   6.565   2.931   3.429  0.2723  0.0240 -0.4697
 4332TIP3    H134411   6.633   2.991   3.460  0.4359 -0.6704  0.5898
 4332TIP3    H234412   6.508   2.919   3.505 -0.5522 -0.0618 -1.0945
 4333TIP3   OH234413   4.172   5.066   4.407  0.1396  0.2136 -0.1238
 4333TIP3    H134414   4.194   5.124   4.335  0.2191 -1.4445 -1.5122
 4333TIP3    H234415   4.078   5.078   4.420  0.4527  1.9182  0.8399
 4334TIP3   OH234416   6.599   3.551  14.256  0.3086 -0.3128  0.3814
 4334TIP3    H134417   6.505   3.550  14.237  0.3161  0.9687  0.1974
 4334TIP3    H234418   6.607   3.509  14.342 -0.3380 -1.1138  0.0620
 4335TIP3   OH234419   3.539   5.478   5.591 -0.2448 -0.2962  0.6517
 4335TIP3    H134420   3.560   5.536   5.664  1.1691  1.1002 -0.7584
 4335TIP3    H234421   3.597   5.403   5.601 -0.0132 -0.0824  0.9159
 4336TIP3   OH234422   1.693   3.772   1.344  0.1075 -0.4862  0.1376
 4336TIP3    H134423   1.749   3.715   1.397  0.8221  0.2405  0.1879
 4336TIP3    H234424   1.747   3.796   1.269 -0.2404 -0.0180  0.0309
 4337TIP3   OH234425   1.312   3.963  13.083  0.3081  0.3398  0.1445
 4337TIP3    H134426   1.379   4.032  13.083  1.4833 -0.7620 -0.9583
 4337TIP3    H234427   1.233   4.007  13.117  0.8231  2.4032 -1.1159
 4338TIP3   OH234428   4.609   2.587   0.683 -0.4182  0.3603 -0.0621
 4338TIP3    H134429   4.694   2.544   0.697 -1.2363 -1.3312 -0.0400
 4338TIP3    H234430   4.567   2.535   0.615 -1.9102  0.4541  0.7513
 4339TIP3   OH234431   3.068   2.385  11.894  0.8088  0.2232  0.1588
 4339TIP3    H134432   3.062   2.332  11.973 -2.1542 -1.0502 -0.7801
 4339TIP3    H234433   3.006   2.456  11.907  1.5321  0.9828 -0.3864
 4340TIP3   OH234434   1.365   3.041   4.747  0.5406  0.4054 -0.1565
 4340TIP3    H134435   1.281   2.996   4.737 -0.6177  2.4509 -0.2283
 4340TIP3    H234436   1.411   3.025   4.665 -0.6325  0.8737 -0.9284
 4341TIP3   OH234437   2.908   4.685  16.604 -0.0914  0.3767  0.4838
 4341TIP3    H134438   2.902   4.662  16.512 -1.1891 -1.7519  1.0312
 4341TIP3    H234439   2.833   4.742  16.620 -0.4449 -0.0230  0.2605
 4342TIP3   OH234440   5.674   3.537   0.959  0.1241 -0.3425 -0.7223
 4342TIP3    H134441   5.670   3.442   0.950  0.6145 -0.7953  2.5028
 4342TIP3    H234442   5.750   3.552   1.017  1.3922  2.2154 -2.8242
 4343TIP3   OH234443   6.753   2.891  13.299  0.4895 -0.3687 -0.4415
 4343TIP3    H134444   6.788   2.940  13.224 -0.2808  1.1133  0.1361
 4343TIP3    H234445   6.676   2.941  13.327 -0.5647 -2.1251 -0.0408
 4344TIP3   OH234446   1.383   5.268   2.303  1.1068 -0.1902  0.2636
 4344TIP3    H134447   1.347   5.340   2.354 -1.1189 -1.5439  0.7581
 4344TIP3    H234448   1.335   5.271   2.219  0.7425 -1.2172  0.4084
 4345TIP3   OH234449   1.170   2.835   4.730 -0.4037 -0.2385  0.0532
 4345TIP3    H134450   1.129   2.834   4.644 -0.3391 -0.1370  0.0205
 4345TIP3    H234451   1.239   2.769   4.724  0.6735  0.8690 -0.5098
 4346TIP3   OH234452   3.426   2.809  16.640  0.0028 -0.6181 -0.4526
 4346TIP3    H134453   3.477   2.883  16.672 -0.2713 -1.0551  1.0771
 4346TIP3    H234454   3.342   2.816  16.686 -1.5599  0.3646 -3.2521
 4347TIP3   OH234455   5.749   0.774  13.095 -0.1976 -0.9758 -0.1649
 4347TIP3    H134456   5.785   0.732  13.017 -1.7535  0.0423 -1.4995
 4347TIP3    H234457   5.825   0.805  13.143  0.7957 -1.6576 -1.2560
 4348TIP3   OH234458   6.231   0.331   0.905  0.3518  0.1516  0.1696
 4348TIP3    H134459   6.306   0.278   0.929 -0.0461  0.0648  1.2558
 4348TIP3    H234460   6.258   0.376   0.824  1.0343 -0.9546 -0.2348
 4349TIP3   OH234461   5.072   1.842   3.860 -0.2768 -0.8573 -0.1139
 4349TIP3    H134462   5.097   1.926   3.898 -1.1032  0.7284 -2.7560
 4349TIP3    H234463   5.151   1.810   3.818 -0.4102 -0.3976 -0.7359
 4350TIP3   OH234464   5.003   3.624   4.020  0.5098 -0.1700 -0.1182
 4350TIP3    H134465   4.981   3.581   4.102  0.0047  0.4609  0.0871
 4350TIP3    H234466   5.099   3.629   4.020  0.5037  0.0288  0.5391
 4351TIP3   OH234467   4.328   3.507  12.645 -0.0958  0.5086  0.0564
 4351TIP3    H134468   4.270   3.536  12.574  2.0883  0.6367 -1.7795
 4351TIP3    H234469   4.327   3.411  12.639 -0.1084  0.5104  0.0285
 4352TIP3   OH234470   3.510   0.069   0.539  0.5678 -0.2123  0.1375
 4352TIP3    H134471   3.487  -0.016   0.579  0.3582 -1.1285 -1.8060
 4352TIP3    H234472   3.535   0.124   0.613 -3.4250 -0.5613  2.0399
 4353TIP3   OH234473   0.058   5.246   0.227 -0.3280  0.3710  0.4142
 4353TIP3    H134474   0.036   5.182   0.159 -0.5532  0.6130  0.2506
 4353TIP3    H234475  -0.020   5.303   0.231 -0.5667  0.0018  1.2993
 4354TIP3   OH234476   5.487   3.038   5.228 -0.6902  1.0048 -0.0651
 4354TIP3    H134477   5.561   3.057   5.170 -0.5803  0.7977  0.0083
 4354TIP3    H234478   5.474   3.119   5.276 -0.5728  1.0740 -0.1471
 4355TIP3   OH234479   4.736   3.158  12.139 -0.3431 -0.0387 -0.1766
 4355TIP3    H134480   4.697   3.073  12.116 -1.6176  0.6734 -0.7204
 4355TIP3    H234481   4.755   3.199  12.055 -0.6930  0.6428  0.0706
 4356TIP3   OH234482   2.573   3.003   3.339  0.0327 -0.1533  0.6522
 4356TIP3    H134483   2.516   2.944   3.388  1.3685 -0.9799  1.2520
 4356TIP3    H234484   2.652   2.952   3.322  1.2892  1.4967  1.2861
 4357TIP3   OH234485   6.666   5.531  15.730  0.6073 -0.2359 -0.2826
 4357TIP3    H134486   6.717   5.495  15.803  0.8195  0.6397  0.0145
 4357TIP3    H234487   6.692   5.623  15.726 -2.3593  0.8183  1.1833
 4358TIP3   OH234488   1.355   1.640  15.387 -0.2860  0.2070 -0.6351
 4358TIP3    H134489   1.409   1.672  15.459  0.1954 -0.7605 -0.5580
 4358TIP3    H234490   1.366   1.545  15.389  1.0895  0.2524 -3.0286
 4359TIP3   OH234491   5.220   1.341  15.229  0.5338 -0.0265  0.1154
 4359TIP3    H134492   5.218   1.372  15.138 -1.2755  0.5528  0.3100
 4359TIP3    H234493   5.256   1.252  15.223 -0.0479 -0.1984 -1.2329
 4360TIP3   OH234494   6.692   4.263  12.073  0.0575 -0.5488  0.4801
 4360TIP3    H134495   6.629   4.236  12.006 -0.4828  2.6092 -0.4200
 4360TIP3    H234496   6.763   4.305  12.025  1.8079 -1.9896  1.6632
 4361TIP3   OH234497   4.207   0.346   2.104  0.0978 -0.1247  0.3986
 4361TIP3    H134498   4.129   0.382   2.062  0.3544 -0.4050 -0.3468
 4361TIP3    H234499   4.179   0.261   2.137 -0.2187  0.2787  1.1792
 4362TIP3   OH234500   3.671   5.751   4.349  0.4034 -0.5007  0.8859
 4362TIP3    H134501   3.740   5.752   4.282 -0.0755 -0.0066  0.3824
 4362TIP3    H234502   3.705   5.805   4.420 -0.4480  1.9100 -0.4159
 4363TIP3   OH234503   3.246   6.091  14.429  0.0149 -0.2527  0.0066
 4363TIP3    H134504   3.321   6.040  14.398 -1.3396 -1.1332 -2.0250
 4363TIP3    H234505   3.204   6.035  14.495  1.0245  0.1982  1.0704
 4364TIP3   OH234506   1.997   1.758  15.388  0.2452  0.5908  0.4766
 4364TIP3    H134507   2.092   1.767  15.393  0.1902  1.0035  0.7155
 4364TIP3    H234508   1.963   1.808  15.462 -0.3178  3.1089 -1.3442
 4365TIP3   OH234509   0.440   4.037  14.121  0.1287  0.0766 -0.4001
 4365TIP3    H134510   0.515   4.045  14.062  1.4648 -0.3337  1.1932
 4365TIP3    H234511   0.468   4.077  14.203 -2.6594  3.2538 -0.7718
 4366TIP3   OH234512   3.602   0.305   6.138  0.1389  0.5956 -0.1420
 4366TIP3    H134513   3.597   0.349   6.223 -0.9787 -0.3456  0.3073
 4366TIP3    H234514   3.519   0.328   6.095 -0.5042 -1.0540  0.1294
 4367TIP3   OH234515   0.198   4.177  15.065  0.0931  0.7321 -0.5896
 4367TIP3    H134516   0.180   4.209  14.977 -0.1219  1.2358 -0.3673
 4367TIP3    H234517   0.214   4.084  15.054  0.7534  0.9179 -1.2561
 4368TIP3   OH234518   4.103   2.680  14.387 -0.4706  0.1194 -0.2836
 4368TIP3    H134519   4.116   2.689  14.481  1.8180  1.2949 -0.6314
 4368TIP3    H234520   4.103   2.586  14.372  4.3738 -0.2634  0.4550
 4369TIP3   OH234521   2.945   2.046  16.962  0.1634 -0.4935  0.2189
 4369TIP3    H134522   3.013   2.071  16.900  0.5017  0.2073  0.8605
 4369TIP3    H234523   2.930   2.124  17.014  2.0829 -1.8705  3.1000
 4370TIP3   OH234524   3.928   5.217   1.429 -0.3816  0.0219  0.1035
 4370TIP3    H134525   3.893   5.143   1.380  1.2823 -0.2967 -0.6976
 4370TIP3    H234526   3.879   5.293   1.397 -0.0778 -0.3405 -1.3022
 4371TIP3   OH234527   1.211   5.632  14.243  0.4774  0.5423  0.4110
 4371TIP3    H134528   1.165   5.666  14.320 -1.4564  1.6830 -1.1729
 4371TIP3    H234529   1.177   5.683  14.170  2.0352 -0.7066 -1.2805
 4372TIP3   OH234530   4.277   2.835   1.340  0.1021 -0.3636 -0.0913
 4372TIP3    H134531   4.344   2.796   1.283  0.3162  0.6506 -0.5601
 4372TIP3    H234532   4.318   2.916   1.372 -0.6499 -0.0710  0.1472
 4373TIP3   OH234533   2.830   2.057  11.503  0.4315 -0.0760 -0.7063
 4373TIP3    H134534   2.785   2.057  11.419 -0.1312 -2.0997 -0.4521
 4373TIP3    H234535   2.774   2.005  11.561 -0.1205  2.6994  1.4881
 4374TIP3   OH234536   3.510   1.989  13.238  0.0159 -0.4456 -0.5427
 4374TIP3    H134537   3.542   1.903  13.264 -0.4004 -0.8603 -1.3852
 4374TIP3    H234538   3.564   2.014  13.163  0.3400  0.1664 -0.1142
 4375TIP3   OH234539   1.966   0.854   2.401 -0.2207 -0.2610  0.1186
 4375TIP3    H134540   1.953   0.947   2.417 -1.6759 -0.2745 -0.8203
 4375TIP3    H234541   2.052   0.835   2.439  2.2563  2.4483 -3.4533
 4376TIP3   OH234542   4.733   4.782   4.771 -0.1560  0.0645 -0.3909
 4376TIP3    H134543   4.668   4.774   4.840 -1.2074 -1.1966 -1.4617
 4376TIP3    H234544   4.800   4.716   4.794 -0.3831 -0.1867 -0.4470
 4377TIP3   OH234545   0.476   4.654   3.555 -0.0050 -0.2947  0.0570
 4377TIP3    H134546   0.486   4.687   3.645  1.4909  1.8306 -0.7963
 4377TIP3    H234547   0.557   4.679   3.511 -0.4511 -1.8187 -1.7642
 4378TIP3   OH234548   2.708   0.592  16.036  0.1331  0.5598 -0.3674
 4378TIP3    H134549   2.698   0.545  15.953 -1.4655 -1.9021  1.0835
 4378TIP3    H234550   2.737   0.525  16.098 -0.5583  1.8760  1.4674
 4379TIP3   OH234551   6.059   4.036  12.750  0.5515  0.5365  0.9594
 4379TIP3    H134552   6.046   3.956  12.700  2.6286  1.1774 -0.7699
 4379TIP3    H234553   6.012   4.022  12.832 -1.6484 -1.2263 -0.4810
 4380TIP3   OH234554   0.690   4.876  15.024  0.1715 -0.2621 -0.2916
 4380TIP3    H134555   0.608   4.925  15.018  1.1302  1.4530  0.0244
 4380TIP3    H234556   0.729   4.885  14.937 -0.0959 -1.3354 -0.5372
 4381TIP3   OH234557   2.432   6.390   4.561  0.0319 -0.4659  0.1696
 4381TIP3    H134558   2.518   6.424   4.538 -0.4766  0.8444  0.1356
 4381TIP3    H234559   2.444   6.295   4.567  0.7621 -0.6587 -2.9128
 4382TIP3   OH234560   0.245   5.640  15.609 -0.6931  0.4736 -0.0856
 4382TIP3    H134561   0.269   5.732  15.602  0.9518 -0.0011 -1.7731
 4382TIP3    H234562   0.170   5.630  15.550 -0.2307  0.5619 -0.6996
 4383TIP3   OH234563   3.088   2.759  11.553  0.0189  0.1170  0.2642
 4383TIP3    H134564   3.153   2.724  11.492 -2.1701 -0.4496 -1.8995
 4383TIP3    H234565   3.089   2.854  11.537 -0.6600 -0.0447 -0.8291
 4384TIP3   OH234566   3.561   4.751  16.104  0.4381  0.3219  0.5227
 4384TIP3    H134567   3.515   4.676  16.068  0.5108 -0.0051  1.1057
 4384TIP3    H234568   3.504   4.783  16.174  0.3988  0.8200  0.2660
 4385TIP3   OH234569   4.391   1.815   4.019  0.3639  0.4170 -0.5192
 4385TIP3    H134570   4.364   1.748   3.955  1.0557 -1.1130  0.7273
 4385TIP3    H234571   4.435   1.766   4.088  0.7446  2.1700  0.5455
 4386TIP3   OH234572   4.616   2.114  16.203  0.6430  0.2157 -0.5604
 4386TIP3    H134573   4.531   2.123  16.246  0.5508  0.3977 -0.7741
 4386TIP3    H234574   4.595   2.088  16.113  0.7192  1.8203 -1.0805
 4387TIP3   OH234575   0.241   6.766   2.859  0.1078 -0.4060 -0.1761
 4387TIP3    H134576   0.222   6.857   2.836  0.4465 -0.9687 -3.1516
 4387TIP3    H234577   0.333   6.766   2.885 -0.1511  0.2230  0.7718
 4388TIP3   OH234578   4.442   5.600   2.890  0.3509  0.1094  0.0695
 4388TIP3    H134579   4.460   5.667   2.824 -0.0870 -1.2355 -1.4811
 4388TIP3    H234580   4.349   5.578   2.877  0.4347 -0.6464  0.6885
 4389TIP3   OH234581   0.286   2.095   1.050  0.2162 -0.1927 -0.7889
 4389TIP3    H134582   0.289   2.140   0.965  1.2414  1.9788  0.2997
 4389TIP3    H234583   0.196   2.063   1.056 -0.3443  0.9908 -2.0514
 4390TIP3   OH234584   5.068   6.727  16.389  0.1095  0.2616  0.2262
 4390TIP3    H134585   4.974   6.729  16.369  0.3514  1.9297 -0.9091
 4390TIP3    H234586   5.101   6.652  16.341 -0.5482 -0.0309  0.2149
 4391TIP3   OH234587   4.889   3.902   4.462  0.0514 -0.0800 -0.6754
 4391TIP3    H134588   4.928   3.818   4.439  0.1987 -0.8139  1.8768
 4391TIP3    H234589   4.815   3.879   4.519  1.9279  1.4309  2.7115
 4392TIP3   OH234590   5.402   2.374   5.038 -0.3519 -0.0017 -0.4440
 4392TIP3    H134591   5.365   2.456   5.072  0.5023  0.4684 -0.6089
 4392TIP3    H234592   5.458   2.402   4.965 -0.9183 -0.8479 -1.2214
 4393TIP3   OH234593   2.854   0.487  11.579 -0.4289 -0.7185 -0.1500
 4393TIP3    H134594   2.806   0.568  11.595 -0.3162 -0.8126  0.6994
 4393TIP3    H234595   2.918   0.510  11.511  1.9241  0.8759  2.3808
 4394TIP3   OH234596   2.945   3.448  16.065 -0.0261  0.4910 -0.4310
 4394TIP3    H134597   2.963   3.436  15.972 -1.1696  1.4839 -0.8216
 4394TIP3    H234598   2.979   3.369  16.107 -1.3348 -0.9593 -1.9520
 4395TIP3   OH234599   4.354   1.775  11.998 -0.4108 -0.7778 -0.2183
 4395TIP3    H134600   4.448   1.759  11.990 -0.1119 -1.1418  2.8554
 4395TIP3    H234601   4.346   1.836  12.072 -2.6345 -1.3436  0.0927
 4396TIP3   OH234602   1.005   3.051   5.701  0.3900  0.2662 -0.2903
 4396TIP3    H134603   1.000   3.012   5.614 -0.5449  0.5380 -0.3742
 4396TIP3    H234604   0.941   3.001   5.753  1.9033 -0.7951  0.6217
 4397TIP3   OH234605   1.899   1.701   3.631 -0.6017  0.7910 -0.3658
 4397TIP3    H134606   1.933   1.653   3.707 -1.1676 -0.0302 -0.6253
 4397TIP3    H234607   1.959   1.775   3.621  0.9337 -0.4358 -0.6086
 4398TIP3   OH234608   1.987   3.450   0.881 -0.1288 -0.3159 -0.3204
 4398TIP3    H134609   1.961   3.540   0.863  3.9429  1.8167  2.7736
 4398TIP3    H234610   1.977   3.441   0.976  1.9763 -2.1987 -0.2065
 4399TIP3   OH234611   4.311   5.504  14.902  0.1353 -0.0393  0.4038
 4399TIP3    H134612   4.364   5.427  14.885  2.1347  1.3907 -0.3210
 4399TIP3    H234613   4.290   5.539  14.816  2.4590  2.1784  0.5948
 4400TIP3   OH234614   6.377   0.585  12.763  0.2824  0.3155  0.0484
 4400TIP3    H134615   6.428   0.580  12.844 -0.4089  0.6378  0.5163
 4400TIP3    H234616   6.308   0.649  12.782  1.1523  1.7700 -1.3959
 4401TIP3   OH234617   4.093   3.527   3.049 -0.1970 -0.4927 -0.5374
 4401TIP3    H134618   4.150   3.499   3.120  0.4301 -0.3865 -0.9957
 4401TIP3    H234619   4.077   3.620   3.066 -0.2977 -0.5411 -0.3671
 4402TIP3   OH234620   1.338   0.282   2.843  0.1085 -0.1937 -0.4954
 4402TIP3    H134621   1.347   0.187   2.854  0.4691 -0.2987 -1.5966
 4402TIP3    H234622   1.319   0.315   2.931  1.1887 -1.1494  0.1181
 4403TIP3   OH234623   3.176   1.745   0.742 -0.2057  0.4772  0.8940
 4403TIP3    H134624   3.254   1.784   0.703 -0.0861 -0.4337  0.1790
 4403TIP3    H234625   3.124   1.819   0.771 -0.6147  1.2666 -1.6352
 4404TIP3   OH234626   1.465   4.255  17.173 -0.4204  0.1916 -0.2364
 4404TIP3    H134627   1.453   4.161  17.188  0.4460 -0.0167 -0.7586
 4404TIP3    H234628   1.525   4.283  17.242  1.3254 -0.1834 -1.5362
 4405TIP3   OH234629   5.817   0.367   4.237 -0.5179  0.1969 -0.1271
 4405TIP3    H134630   5.820   0.306   4.163  2.8323 -0.7375  0.6121
 4405TIP3    H234631   5.900   0.415   4.232 -1.1052  1.5266  1.8733
 4406TIP3   OH234632   3.608   6.347   0.236  0.0927  0.0890 -0.1517
 4406TIP3    H134633   3.607   6.440   0.262  2.9355 -0.1744  1.2106
 4406TIP3    H234634   3.688   6.337   0.185  0.1609 -1.7306  0.2501
 4407TIP3   OH234635   5.190   0.129   0.116  0.2808  0.2046  0.3169
 4407TIP3    H134636   5.143   0.129   0.199  0.5007  1.0738  0.4572
 4407TIP3    H234637   5.138   0.186   0.059 -0.1762 -0.8402 -0.3343
 4408TIP3   OH234638   5.928   5.550   2.394  0.5553  0.5366 -0.0384
 4408TIP3    H134639   5.969   5.606   2.328  1.3604  0.5390  0.4562
 4408TIP3    H234640   5.993   5.482   2.411  0.5055  0.7403  1.0147
 4409TIP3   OH234641   2.745   3.241   4.952  0.3817 -0.0525 -0.1187
 4409TIP3    H134642   2.698   3.158   4.958 -1.4702  0.9650  0.1223
 4409TIP3    H234643   2.722   3.288   5.032  1.2913  0.7573 -0.3147
 4410TIP3   OH234644   0.344   0.996   5.427  0.2437  0.8652  0.1428
 4410TIP3    H134645   0.318   0.950   5.347  0.8345  0.6435  0.0710
 4410TIP3    H234646   0.396   0.932   5.475 -0.7901  0.7199  1.0974
 4411TIP3   OH234647   0.368   2.567  11.417 -0.0668 -0.2850 -0.9008
 4411TIP3    H134648   0.460   2.579  11.442 -0.2654 -1.0924  0.3286
 4411TIP3    H234649   0.364   2.598  11.327  1.5275 -0.6698 -1.1498
 4412TIP3   OH234650   2.801   4.692   3.979  0.0775  0.2665 -0.0561
 4412TIP3    H134651   2.885   4.726   4.009  0.5533 -1.4295  0.6606
 4412TIP3    H234652   2.741   4.711   4.052  0.3523 -0.4400  0.3633
 4413TIP3   OH234653   5.744   6.617  14.082 -0.3723  0.1747 -0.3723
 4413TIP3    H134654   5.696   6.581  14.007 -0.6215  1.3855 -0.8214
 4413TIP3    H234655   5.829   6.643  14.046  0.0665 -0.5906  0.0963
 4414TIP3   OH234656   2.450   0.988  17.184 -0.1312  0.6142 -0.3428
 4414TIP3    H134657   2.438   1.082  17.173  2.1531  1.2044  1.4346
 4414TIP3    H234658   2.503   0.979  17.263  0.2415 -2.1425 -0.7857
 4415TIP3   OH234659   6.714   0.149   3.250 -0.7112 -0.4460  0.3509
 4415TIP3    H134660   6.638   0.146   3.193 -0.7388 -1.7283  0.4118
 4415TIP3    H234661   6.785   0.181   3.195 -0.1600 -3.8820 -1.2106
 4416TIP3   OH234662   0.218   0.935  11.066  0.5692 -0.2952  0.2505
 4416TIP3    H134663   0.237   0.902  11.154  1.8741 -0.2928 -0.0145
 4416TIP3    H234664   0.127   0.909  11.050  0.4744 -0.7274  1.4009
 4417TIP3   OH234665   4.410   2.673   0.445 -1.0019 -0.6077 -0.2870
 4417TIP3    H134666   4.376   2.585   0.460 -0.5604 -0.8728 -0.7982
 4417TIP3    H234667   4.416   2.713   0.532  1.0510 -1.9181  0.2416
 4418TIP3   OH234668   5.379   0.358  12.830 -0.1475  0.7974  0.1660
 4418TIP3    H134669   5.371   0.280  12.885  0.0092  0.2674 -0.5510
 4418TIP3    H234670   5.423   0.328  12.751 -0.1347  1.6057 -0.1505
 4419TIP3   OH234671   6.505   5.047   2.373 -0.5531 -0.2324  0.5485
 4419TIP3    H134672   6.510   4.965   2.421  0.3940  0.7295  2.1915
 4419TIP3    H234673   6.538   5.026   2.285 -1.2572 -1.7870  0.6188
 4420TIP3   OH234674   5.997   2.349   3.614 -0.0147 -0.0081 -0.4435
 4420TIP3    H134675   5.935   2.335   3.686  0.7894  0.0895  0.2957
 4420TIP3    H234676   5.976   2.436   3.581  0.3493  0.4345  0.4540
 4421TIP3   OH234677   2.305   6.296   3.395  0.1393  0.0835 -0.2985
 4421TIP3    H134678   2.332   6.350   3.321 -0.4296  0.1183 -0.4851
 4421TIP3    H234679   2.230   6.343   3.433 -0.6354 -0.7861 -0.7235
 4422TIP3   OH234680   4.939   5.569   2.740  0.3370  0.0567  0.1465
 4422TIP3    H134681   4.885   5.528   2.807  0.7980 -0.5707  0.1469
 4422TIP3    H234682   4.887   5.562   2.660  0.2858 -0.2654  0.2063
 4423TIP3   OH234683   5.621   0.073   1.990 -0.1758  0.2273 -0.0316
 4423TIP3    H134684   5.714   0.091   1.980  0.1916 -0.9052  1.1558
 4423TIP3    H234685   5.594   0.126   2.065 -0.7449  1.3233 -0.9731
 4424TIP3   OH234686   2.917   2.263   2.919  0.0681 -0.0250 -0.2379
 4424TIP3    H134687   2.834   2.244   2.875  0.4087  1.4548 -1.6226
 4424TIP3    H234688   2.983   2.223   2.862  0.3232 -1.4650  1.0189
 4425TIP3   OH234689   3.507   0.925   2.688  0.1502 -0.2327 -0.8546
 4425TIP3    H134690   3.521   0.909   2.782 -2.8830 -1.5283 -0.4856
 4425TIP3    H234691   3.489   1.018   2.682  2.7981  0.3620 -0.5932
 4426TIP3   OH234692   3.768   5.610  12.075  0.2705  0.1355  0.6223
 4426TIP3    H134693   3.779   5.601  11.980  1.7557 -0.3725  0.8216
 4426TIP3    H234694   3.676   5.635  12.086  0.5510  2.2652 -1.0935
 4427TIP3   OH234695   6.684   6.142  11.986  0.0081  0.3875 -0.4007
 4427TIP3    H134696   6.604   6.191  11.969 -1.0771 -0.3463  2.1051
 4427TIP3    H234697   6.743   6.206  12.027 -0.4056  0.2747  0.3959
 4428TIP3   OH234698   5.672   4.808  17.144  0.5546  0.1427 -0.0017
 4428TIP3    H134699   5.640   4.884  17.096 -1.8844 -2.9351 -3.8270
 4428TIP3    H234700   5.618   4.806  17.223 -1.4946  0.8287 -1.2966
 4429TIP3   OH234701   4.487   2.799   5.350 -0.4195 -0.9255  0.3161
 4429TIP3    H134702   4.511   2.766   5.437 -0.0932 -3.3278 -0.6173
 4429TIP3    H234703   4.568   2.837   5.316 -0.1538 -1.3269  0.4938
 4430TIP3   OH234704   4.444   5.746  13.967 -0.6879 -0.3698 -0.2454
 4430TIP3    H134705   4.519   5.687  13.974  0.7814  1.5933  2.6996
 4430TIP3    H234706   4.369   5.692  13.990  0.1916 -1.7482 -0.4992
 4431TIP3   OH234707   3.573   1.556   4.365  0.7971  0.1752  0.3241
 4431TIP3    H134708   3.586   1.482   4.425  1.5784 -0.1532 -0.2412
 4431TIP3    H234709   3.532   1.623   4.419  1.8357  0.0302  1.3305
 4432TIP3   OH234710   0.822   5.920  14.505 -0.2880  0.1772  0.2495
 4432TIP3    H134711   0.789   5.830  14.497 -0.7822  0.2368  1.4524
 4432TIP3    H234712   0.914   5.910  14.529  0.3391  0.0135 -2.0006
 4433TIP3   OH234713   4.202   3.948  15.406 -0.4342 -0.5120 -1.2532
 4433TIP3    H134714   4.219   3.854  15.397 -1.3899 -0.5733 -2.7273
 4433TIP3    H234715   4.285   3.990  15.379 -0.0392 -0.9160 -0.6888
 4434TIP3   OH234716   5.191   5.350   1.294  0.0090  0.0073  0.0439
 4434TIP3    H134717   5.119   5.398   1.253 -1.3116 -0.2531  1.9057
 4434TIP3    H234718   5.147   5.286   1.351  1.5938  1.5960  3.2895
 4435TIP3   OH234719   1.543   1.254   2.789  0.1392  0.3082 -0.0947
 4435TIP3    H134720   1.495   1.178   2.757  0.1847  0.2480 -0.0189
 4435TIP3    H234721   1.477   1.308   2.832  0.3100 -0.2546  0.9119
 4436TIP3   OH234722   5.617   0.797   2.386 -0.1378  0.6945 -0.1276
 4436TIP3    H134723   5.669   0.734   2.437 -0.8818 -1.7236 -2.1573
 4436TIP3    H234724   5.527   0.771   2.401 -0.4377  0.9051 -1.4590
 4437TIP3   OH234725   0.639   3.637   4.002  0.2755 -0.3544  1.0276
 4437TIP3    H134726   0.711   3.575   3.990 -0.1518 -1.0206  1.8589
 4437TIP3    H234727   0.563   3.593   3.965  0.0387 -0.1774  1.3030
 4438TIP3   OH234728   3.955   3.677   0.524 -0.1130 -0.4992  0.2821
 4438TIP3    H134729   3.930   3.767   0.544  1.6817  0.0351  0.3377
 4438TIP3    H234730   3.876   3.625   0.541 -0.8591  0.9194  1.3404
 4439TIP3   OH234731   1.139   5.779   1.809 -0.0157  0.7061 -0.6776
 4439TIP3    H134732   1.134   5.711   1.741 -1.7629  0.2224 -0.1201
 4439TIP3    H234733   1.049   5.788   1.840  0.7067  0.9694  1.5276
 4440TIP3   OH234734   3.053   0.354  10.529  0.5185  0.3370  0.3950
 4440TIP3    H134735   3.099   0.417  10.584 -0.6620  0.7470  0.9617
 4440TIP3    H234736   3.079   0.376  10.439  0.0279  1.7447  0.5741
 4441TIP3   OH234737   5.869   2.579   3.495 -0.2044  0.0740  0.2135
 4441TIP3    H134738   5.900   2.664   3.465 -1.6142  0.1277 -1.2489
 4441TIP3    H234739   5.795   2.599   3.552 -1.0752 -0.1533 -0.8007
 4442TIP3   OH234740   3.283   5.411  15.054  0.0828 -0.3452 -0.3257
 4442TIP3    H134741   3.373   5.402  15.085  0.2847  1.4348 -0.2890
 4442TIP3    H234742   3.232   5.351  15.108  1.0284 -0.2710  0.6696
 4443TIP3   OH234743   0.683   2.343  11.829  0.7691 -0.0413 -0.0591
 4443TIP3    H134744   0.592   2.320  11.850  0.4496  1.1327 -0.0599
 4443TIP3    H234745   0.716   2.269  11.779 -0.5002 -0.0788 -0.8912
 4444TIP3   OH234746   3.977   1.864  16.421 -0.2945  0.0396  0.3075
 4444TIP3    H134747   3.891   1.828  16.442 -0.3464 -0.1106 -0.1600
 4444TIP3    H234748   3.962   1.921  16.345  0.3945 -1.8102 -1.2980
 4445TIP3   OH234749   2.456   1.437   0.022 -0.0787 -0.1689  0.3576
 4445TIP3    H134750   2.437   1.531   0.017 -0.3480 -0.1781  1.1862
 4445TIP3    H234751   2.485   1.422   0.112  0.6812 -0.7533  0.0296
 4446TIP3   OH234752   0.078   0.374  16.333 -0.0458 -0.0321 -0.0149
 4446TIP3    H134753   0.111   0.392  16.421 -0.7181 -0.4542  0.3309
 4446TIP3    H234754   0.143   0.412  16.274 -0.5159  1.9231  0.6695
 4447TIP3   OH234755   1.784   5.199   5.485  0.6477  0.1695 -0.2098
 4447TIP3    H134756   1.811   5.241   5.566 -1.5782  2.3014 -0.4610
 4447TIP3    H234757   1.763   5.109   5.509  0.8302  0.5401  1.4030
 4448TIP3   OH234758   0.713   3.463   3.362  0.1912  0.5292 -0.4102
 4448TIP3    H134759   0.621   3.480   3.382 -0.2130 -2.6626  1.0909
 4448TIP3    H234760   0.761   3.508   3.432 -0.4079  0.1260  0.2729
 4449TIP3   OH234761   4.823   1.023   0.971 -0.3518 -0.6678  0.3781
 4449TIP3    H134762   4.909   1.057   0.948 -0.8055  1.3967  1.4463
 4449TIP3    H234763   4.823   0.932   0.940  1.4167 -0.0892 -1.5385
 4450TIP3   OH234764   6.427   4.011  16.608  0.0202  0.2573 -0.0204
 4450TIP3    H134765   6.479   3.992  16.530 -0.1083 -0.8496  0.1392
 4450TIP3    H234766   6.344   3.967  16.593 -0.9716  2.1578 -0.3431
 4451TIP3   OH234767   4.464   4.727   0.136  0.0692  0.4549  0.0571
 4451TIP3    H134768   4.381   4.725   0.182 -0.4220 -1.6081 -0.8252
 4451TIP3    H234769   4.445   4.774   0.054 -0.6514 -1.2253 -0.7950
 4452TIP3   OH234770   6.658   3.324   3.242  0.2278  0.4366 -0.2871
 4452TIP3    H134771   6.707   3.387   3.190  0.7352 -0.2868 -0.7106
 4452TIP3    H234772   6.585   3.297   3.185  0.7412 -0.3005 -0.6128
 4453TIP3   OH234773   5.357   5.365   0.021  0.2447  0.0745 -0.1624
 4453TIP3    H134774   5.347   5.333  -0.069  1.7126  0.5779 -0.5367
 4453TIP3    H234775   5.431   5.315   0.055  0.1093  0.3576  0.5541
 4454TIP3   OH234776   4.150   5.318  16.637  0.2374 -0.2956 -0.4264
 4454TIP3    H134777   4.176   5.405  16.666  0.5306 -0.5968  0.2270
 4454TIP3    H234778   4.232   5.276  16.610 -0.2337  0.7498 -3.9360
 4455TIP3   OH234779   0.094   1.749   0.434 -0.3848  0.2508  0.0126
 4455TIP3    H134780   0.005   1.742   0.470 -0.0864 -0.6526  0.6074
 4455TIP3    H234781   0.092   1.694   0.356 -0.6284  1.0450 -0.5420
 4456TIP3   OH234782   1.491   6.513   3.159 -0.1752  0.0286 -0.0405
 4456TIP3    H134783   1.404   6.479   3.182 -1.8047  2.2553 -2.2474
 4456TIP3    H234784   1.534   6.441   3.114 -2.1418 -0.2505 -1.6011
 4457TIP3   OH234785   3.380   4.660   3.531 -0.0182  0.4876 -0.0433
 4457TIP3    H134786   3.390   4.599   3.603  2.8405  1.1022  0.2023
 4457TIP3    H234787   3.295   4.702   3.546 -0.5245 -1.0428  1.6225
 4458TIP3   OH234788   6.507   2.517   1.398 -0.0148 -0.2671  0.4234
 4458TIP3    H134789   6.501   2.613   1.407  0.2033 -0.2458  0.3523
 4458TIP3    H234790   6.424   2.485   1.431 -0.5354  0.0178 -0.5417
 4459TIP3   OH234791   2.389   4.933   1.028  0.1182 -0.0121 -0.2278
 4459TIP3    H134792   2.347   4.934   0.942  0.2279 -1.6743 -0.3456
 4459TIP3    H234793   2.383   4.841   1.056 -0.1092  0.5378  1.6453
 4460TIP3   OH234794   3.080   6.057  11.030  0.5955 -0.4182 -0.2554
 4460TIP3    H134795   3.113   6.026  10.946  0.8011 -0.5482 -0.1295
 4460TIP3    H234796   2.990   6.084  11.013  0.3094 -1.3835 -0.2981
 4461TIP3   OH234797   1.783   0.505   0.758  0.4625  0.1767  0.6066
 4461TIP3    H134798   1.699   0.476   0.724  0.4915  0.4033  0.3410
 4461TIP3    H234799   1.791   0.596   0.730 -0.7961  1.3318  3.5574
 4462TIP3   OH234800   6.732   0.625   5.781  0.6688  0.2944  0.2445
 4462TIP3    H134801   6.792   0.598   5.850 -0.2541 -0.4917  0.7563
 4462TIP3    H234802   6.772   0.593   5.700  1.2438  0.3246  0.5170
 4463TIP3   OH234803   1.109   4.219  16.867  0.1145 -0.0174 -0.2112
 4463TIP3    H134804   1.029   4.189  16.910  0.2959 -0.4565 -0.1757
 4463TIP3    H234805   1.168   4.243  16.939 -0.2183  0.9431 -0.2452
 4464TIP3   OH234806   6.238   6.187   4.902  0.3147 -0.2477 -0.3896
 4464TIP3    H134807   6.303   6.119   4.884 -0.0763 -1.0875  1.2112
 4464TIP3    H234808   6.155   6.140   4.909  0.0606  0.3649  0.9450
 4465TIP3   OH234809   1.469   0.532   6.279 -0.0025 -0.3777  0.4959
 4465TIP3    H134810   1.556   0.562   6.304  0.7022 -2.3323  0.5062
 4465TIP3    H234811   1.411   0.571   6.344  0.9322  0.3962  0.8891
 4466TIP3   OH234812   0.861   3.704   3.189 -0.1274 -0.3085 -0.5558
 4466TIP3    H134813   0.812   3.663   3.118 -0.6103  0.6862 -0.8030
 4466TIP3    H234814   0.801   3.705   3.263 -0.8583  1.7610 -1.1223
 4467TIP3   OH234815   0.695   2.168   0.268 -0.2737  0.5648  0.6039
 4467TIP3    H134816   0.701   2.076   0.295 -0.2183  0.1773 -0.6461
 4467TIP3    H234817   0.620   2.170   0.209  1.1944  0.7750 -1.3570
 4468TIP3   OH234818   1.373   3.949   1.620 -0.1462  0.1879  0.0832
 4468TIP3    H134819   1.430   4.022   1.594 -0.4142  1.1784  2.1323
 4468TIP3    H234820   1.433   3.876   1.636  0.2697  0.4046 -0.4610
 4469TIP3   OH234821   4.493   3.094   3.885  0.4775  0.0789 -0.3768
 4469TIP3    H134822   4.580   3.076   3.922  0.1722  1.1720  0.9810
 4469TIP3    H234823   4.508   3.100   3.791  1.8465  0.0666 -0.1827
 4470TIP3   OH234824   2.596   4.854   2.155  0.0693 -0.3211  0.3910
 4470TIP3    H134825   2.679   4.901   2.147  0.7166 -1.2875  1.1354
 4470TIP3    H234826   2.548   4.876   2.075  0.8254  0.6566  0.1848
 4471TIP3   OH234827   3.022   6.662  16.538 -0.0201 -0.0026  0.1572
 4471TIP3    H134828   3.118   6.661  16.540  0.0982 -1.0304 -2.1815
 4471TIP3    H234829   2.996   6.701  16.621  2.4014 -0.9251  1.4442
 4472TIP3   OH234830   4.933   0.805  16.293  0.0462 -0.1832 -0.2881
 4472TIP3    H134831   4.983   0.863  16.351  0.6884 -1.7870  0.8357
 4472TIP3    H234832   4.991   0.731  16.276 -1.4036 -1.4074 -0.1525
 4473TIP3   OH234833   0.527   3.051  17.056 -0.4855  0.7338  0.3814
 4473TIP3    H134834   0.575   3.116  17.108  1.1993 -0.1772  0.0216
 4473TIP3    H234835   0.585   2.975  17.053 -1.9219 -0.3793 -0.1819
 4474TIP3   OH234836   3.317   5.941   0.591 -0.0447  0.1794 -0.2256
 4474TIP3    H134837   3.308   5.867   0.652 -0.0131  0.3884  0.0360
 4474TIP3    H234838   3.269   6.012   0.633 -1.5734 -0.1817 -1.3086
 4475TIP3   OH234839   4.115   4.466   5.108 -0.5662  0.0519  0.5014
 4475TIP3    H134840   4.144   4.390   5.159  0.9781  0.8689  0.9193
 4475TIP3    H234841   4.134   4.541   5.165  0.8973  0.9764 -1.0815
 4476TIP3   OH234842   2.038   5.797  15.178  0.0096  0.1763 -0.3424
 4476TIP3    H134843   2.012   5.709  15.204 -2.8560  1.7356  2.7900
 4476TIP3    H234844   1.955   5.845  15.169  1.4035  2.3721 -2.9913
 4477TIP3   OH234845   3.192   1.590   4.162  0.1100  0.2405 -0.4681
 4477TIP3    H134846   3.131   1.550   4.101 -0.6611 -0.8657  0.9860
 4477TIP3    H234847   3.146   1.669   4.193  0.4597  0.7463 -1.1939
 4478TIP3   OH234848   4.338   3.038   5.843  0.0914 -0.2579 -0.0743
 4478TIP3    H134849   4.253   3.071   5.873 -0.2308  0.2490 -1.4609
 4478TIP3    H234850   4.347   2.953   5.885 -0.7667 -0.0057  0.6616
 4479TIP3   OH234851   5.093   5.333  12.593  0.2925 -0.0290 -0.1575
 4479TIP3    H134852   5.037   5.272  12.641  1.0037 -0.4229  0.1799
 4479TIP3    H234853   5.068   5.322  12.502 -0.6622  0.3012  0.0498
 4480TIP3   OH234854   5.248   4.409   0.588  0.0779 -0.5516  0.1301
 4480TIP3    H134855   5.223   4.373   0.503 -0.0602 -0.6059  0.1935
 4480TIP3    H234856   5.242   4.335   0.648  1.3565 -0.8178 -0.0253
 4481TIP3   OH234857   0.883   0.636   1.083  0.1032  0.6167  0.0446
 4481TIP3    H134858   0.966   0.649   1.129  0.0813 -1.8110  0.9221
 4481TIP3    H234859   0.817   0.631   1.152 -0.5409  0.9463 -0.5353
 4482TIP3   OH234860   0.090   3.508   0.113 -0.3163 -0.6171  0.1341
 4482TIP3    H134861   0.057   3.597   0.124  0.0356 -0.3952 -0.5992
 4482TIP3    H234862   0.177   3.518   0.075 -0.2733 -1.2738  0.0423
 4483TIP3   OH234863   5.238   4.022   0.412  0.1339 -0.1662 -0.4145
 4483TIP3    H134864   5.309   3.995   0.470 -0.2386  1.6941  0.9962
 4483TIP3    H234865   5.266   4.108   0.379 -1.6459  0.8584  0.6010
 4484TIP3   OH234866   2.507   3.720   2.974  0.6603  0.1801 -0.0477
 4484TIP3    H134867   2.455   3.798   2.955 -1.4081 -1.5175 -1.8999
 4484TIP3    H234868   2.526   3.682   2.889  2.1135 -1.0752  0.7832
 4485TIP3   OH234869   2.332   3.750  15.355  0.9279  0.3401 -0.6184
 4485TIP3    H134870   2.258   3.701  15.320  1.0076 -0.9726  0.9151
 4485TIP3    H234871   2.295   3.833  15.384  0.5446  0.7040 -2.0733
 4486TIP3   OH234872   1.174   4.152   4.241 -0.1643 -0.2139  0.4592
 4486TIP3    H134873   1.098   4.139   4.297  0.5766  0.5338  1.6864
 4486TIP3    H234874   1.190   4.246   4.244 -0.4749 -0.0457 -1.5492
 4487TIP3   OH234875   6.462   0.537  13.827 -0.1066 -0.5224  0.3351
 4487TIP3    H134876   6.519   0.506  13.897  0.8248  2.1747  0.8893
 4487TIP3    H234877   6.431   0.458  13.784  2.1787 -2.1647  1.5215
 4488TIP3   OH234878   5.705   0.183   3.139 -0.8907 -0.2237  0.2724
 4488TIP3    H134879   5.735   0.202   3.050  1.5394 -2.8294  0.4021
 4488TIP3    H234880   5.611   0.167   3.130 -1.0029  1.0410 -1.5019
 4489TIP3   OH234881   5.522   5.358  15.579  0.1037  0.0790 -0.0791
 4489TIP3    H134882   5.583   5.301  15.625 -0.9150  0.1457  1.4241
 4489TIP3    H234883   5.564   5.375  15.494  1.5774 -0.8432  0.4326
 4490TIP3   OH234884   5.497   3.020   1.309 -0.1579  0.1339  0.4208
 4490TIP3    H134885   5.478   2.957   1.240  0.7409 -0.5734  0.8024
 4490TIP3    H234886   5.592   3.022   1.314 -0.1257  2.0779 -0.0787
 4491TIP3   OH234887   2.094   3.538  11.676 -0.5318  0.8470 -0.7082
 4491TIP3    H134888   2.154   3.600  11.632 -1.2477  0.8121 -1.7698
 4491TIP3    H234889   2.121   3.452  11.644 -1.4882  0.8736 -1.6536
 4492TIP3   OH234890   0.538   5.650  11.523  0.0505  0.6308  0.3491
 4492TIP3    H134891   0.614   5.622  11.574 -0.2386  1.7076  1.3908
 4492TIP3    H234892   0.518   5.738  11.554 -1.5881  0.3990  0.0516
 4493TIP3   OH234893   3.076   5.613  14.922  0.6629  0.0128 -0.0810
 4493TIP3    H134894   3.054   5.704  14.940 -1.0245 -0.4220  0.2489
 4493TIP3    H234895   3.090   5.573  15.008 -2.2506 -0.8474  0.0880
 4494TIP3   OH234896   0.030   3.610   3.286  0.5569  0.0359  0.0296
 4494TIP3    H134897   0.032   3.576   3.376  0.3205  2.2436  0.9275
 4494TIP3    H234898   0.101   3.674   3.283 -0.3475  1.0198 -0.9266
 4495TIP3   OH234899   0.601   4.846   3.261  0.1352 -0.1683 -0.7201
 4495TIP3    H134900   0.529   4.813   3.206  0.2132 -2.5978  0.5064
 4495TIP3    H234901   0.559   4.909   3.319 -1.1047 -1.6558  0.0865
 4496TIP3   OH234902   0.015   5.037  14.178 -0.2710  0.1261  0.7354
 4496TIP3    H134903  -0.071   5.014  14.144  0.1662 -0.3133 -0.1074
 4496TIP3    H234904   0.071   5.041  14.101  0.6069 -0.2487  1.3328
 4497TIP3   OH234905   6.327   2.548   2.792 -0.7365  0.2322 -0.0097
 4497TIP3    H134906   6.391   2.619   2.801 -0.8399  0.6336 -1.9405
 4497TIP3    H234907   6.375   2.478   2.747 -0.9949 -0.4221  0.7200
 4498TIP3   OH234908   3.331   4.518   5.489  0.4440  0.0577  0.1862
 4498TIP3    H134909   3.349   4.432   5.528 -0.6490  0.1948  1.0730
 4498TIP3    H234910   3.363   4.581   5.553 -2.8050  0.3011  1.7675
 4499TIP3   OH234911   1.338   6.661   0.577  0.3886  0.1025  0.7947
 4499TIP3    H134912   1.428   6.632   0.592  0.5587  0.2971  0.1276
 4499TIP3    H234913   1.316   6.628   0.490  0.8572  2.6484 -0.3580
 4500TIP3   OH234914   2.593   5.110  14.223  0.0894 -0.6001 -0.2786
 4500TIP3    H134915   2.688   5.098  14.221  0.1194 -0.7820  1.3932
 4500TIP3    H234916   2.580   5.201  14.249 -0.1911 -0.9615  0.8649
 4501TIP3   OH234917   1.185   5.608   6.171 -0.3833 -0.0035 -0.4375
 4501TIP3    H134918   1.222   5.548   6.236  0.3704  1.7469  0.8371
 4501TIP3    H234919   1.149   5.680   6.223 -2.7919 -0.0958 -1.8149
 4502TIP3   OH234920   2.938   4.971  16.029  0.1587 -0.0154 -0.0433
 4502TIP3    H134921   3.007   4.907  16.013  0.8275  0.5760  0.3997
 4502TIP3    H234922   2.882   4.966  15.952  2.0400  1.1892 -1.6064
 4503TIP3   OH234923   0.839   2.529   1.426 -0.3837 -0.0900 -0.1593
 4503TIP3    H134924   0.848   2.496   1.515  0.9448 -0.4558 -0.4095
 4503TIP3    H234925   0.747   2.513   1.403 -0.4150 -1.1967  0.6772
 4504TIP3   OH234926   0.317   2.680  12.389 -0.1067  0.1408 -0.2347
 4504TIP3    H134927   0.388   2.743  12.400 -1.7383  2.0391 -0.1294
 4504TIP3    H234928   0.258   2.698  12.461  0.3490 -2.9941  1.0853
 4505TIP3   OH234929   6.264   5.494   6.761  0.2876 -0.1379  0.2658
 4505TIP3    H134930   6.170   5.493   6.744 -0.1007  0.3918  2.1427
 4505TIP3    H234931   6.298   5.419   6.712 -0.6728  1.0759 -2.4677
 4506TIP3   OH234932   3.179   4.611   1.729 -0.1381 -0.0003  0.3918
 4506TIP3    H134933   3.183   4.707   1.730 -1.3380  0.1541 -2.3179
 4506TIP3    H234934   3.126   4.590   1.807 -2.2448  1.7713 -0.4283
 4507TIP3   OH234935   3.336   1.828  13.092 -0.0447  0.1306 -0.7422
 4507TIP3    H134936   3.380   1.874  13.020  3.0293 -2.4135 -0.6964
 4507TIP3    H234937   3.357   1.880  13.170  1.2422  0.0483 -1.0150
 4508TIP3   OH234938   4.292   0.283   4.819 -0.0952  0.5428  0.0780
 4508TIP3    H134939   4.327   0.317   4.902 -1.0150  1.9114 -0.0702
 4508TIP3    H234940   4.201   0.263   4.839 -0.6789  2.0895 -0.9125
 4509TIP3   OH234941   0.696   4.571  11.727  0.4757 -0.1012  0.3545
 4509TIP3    H134942   0.701   4.499  11.664  1.1011  1.3649 -1.3405
 4509TIP3    H234943   0.602   4.585  11.739  0.3504 -0.8698  0.3208
 4510TIP3   OH234944   6.377   3.697  14.098  0.1198  0.3205 -0.0609
 4510TIP3    H134945   6.356   3.611  14.136  1.1085  0.3276  0.5352
 4510TIP3    H234946   6.386   3.680  14.004 -0.5259 -0.0547 -0.0629
 4511TIP3   OH234947   2.073   0.105  14.643  0.1612 -0.7019  0.4380
 4511TIP3    H134948   2.104   0.176  14.587 -0.3269 -1.1518 -0.4035
 4511TIP3    H234949   2.077   0.142  14.732  1.8008 -0.2923  0.2367
 4512TIP3   OH234950   5.278   6.546  15.029 -0.0127  0.0816  0.2793
 4512TIP3    H134951   5.337   6.514  15.097 -1.5306  0.2503  1.7639
 4512TIP3    H234952   5.293   6.641  15.026 -2.0723  0.6098  2.7257
 4513TIP3   OH234953   4.709   1.769   6.300  0.0346  0.1301 -0.2721
 4513TIP3    H134954   4.709   1.856   6.260 -0.3803  0.2336 -0.0629
 4513TIP3    H234955   4.765   1.716   6.244  1.0587  0.7685  0.1168
 4514TIP3   OH234956   3.768   3.584  16.938  0.3149  0.7229 -0.1718
 4514TIP3    H134957   3.797   3.673  16.959  1.4641 -0.0611  1.9642
 4514TIP3    H234958   3.723   3.592  16.854 -0.6542  3.4965  0.4992
 4515TIP3   OH234959   5.088   2.104  14.282 -0.1749 -0.0844  0.0398
 4515TIP3    H134960   5.133   2.025  14.310 -0.1974  0.2762  1.1635
 4515TIP3    H234961   5.155   2.157  14.240  0.1645 -0.0985  0.5577
 4516TIP3   OH234962   4.647   4.334  11.034  0.2478 -0.4477  0.0890
 4516TIP3    H134963   4.725   4.287  11.062  0.1484 -0.1971  0.8121
 4516TIP3    H234964   4.643   4.321  10.939  1.9280  0.6683 -0.1860
 4517TIP3   OH234965   6.078   0.147  15.307  0.1883  0.3973 -0.0252
 4517TIP3    H134966   6.004   0.140  15.368 -0.7292 -1.4286 -1.2670
 4517TIP3    H234967   6.154   0.122  15.360 -0.4576 -0.2730  0.6183
 4518TIP3   OH234968   5.522   4.011   5.272  0.9328  0.0924  0.3589
 4518TIP3    H134969   5.454   4.070   5.237 -0.8834 -1.3542  1.2783
 4518TIP3    H234970   5.590   4.010   5.204 -1.0770 -0.2581 -1.7814
 4519TIP3   OH234971   5.019   4.236   2.336 -0.3803 -0.4954  0.5518
 4519TIP3    H134972   4.985   4.248   2.425 -1.1433 -0.9636  0.3360
 4519TIP3    H234973   4.960   4.171   2.297  0.3630 -0.8046 -0.0711
 4520TIP3   OH234974   3.005   0.708  17.026  0.5803  0.2192 -0.1258
 4520TIP3    H134975   3.012   0.632  16.969  1.1453 -0.7154  1.1290
 4520TIP3    H234976   3.054   0.776  16.981  0.7527 -0.3920 -0.8922
 4521TIP3   OH234977   4.269   1.363  11.840 -0.0183  0.2750  0.1682
 4521TIP3    H134978   4.195   1.319  11.799 -0.3745 -0.3627  1.4358
 4521TIP3    H234979   4.345   1.338  11.787 -0.6988  1.0419 -1.2173
 4522TIP3   OH234980   4.020   5.995  15.606  0.0738  0.1388 -0.1982
 4522TIP3    H134981   3.941   5.941  15.602  0.8013 -1.0516  0.8565
 4522TIP3    H234982   4.007   6.052  15.681  1.1865 -1.7439  1.5227
 4523TIP3   OH234983   0.809   2.322  11.108  0.0648  0.5493 -0.0950
 4523TIP3    H134984   0.720   2.338  11.078 -0.7846 -1.2347  1.2531
 4523TIP3    H234985   0.857   2.296  11.030 -0.7255  1.0363 -0.7496
 4524TIP3   OH234986   3.545   5.345   4.343  0.0471 -0.2145 -0.6668
 4524TIP3    H134987   3.590   5.372   4.263 -1.6397  0.3754 -1.4592
 4524TIP3    H234988   3.553   5.420   4.402 -2.4518  1.1777 -1.9403
 4525TIP3   OH234989   4.651   3.855  15.863  0.2012 -0.3838  0.0343
 4525TIP3    H134990   4.627   3.843  15.955 -0.5928  0.1421 -0.0893
 4525TIP3    H234991   4.594   3.794  15.815  1.6360 -1.7509 -0.0285
 4526TIP3   OH234992   1.492   4.926  12.356 -0.4277  0.1294 -0.6786
 4526TIP3    H134993   1.408   4.886  12.380  0.3137 -2.4397 -1.9618
 4526TIP3    H234994   1.552   4.898  12.425 -0.1025 -0.1986 -1.0869
 4527TIP3   OH234995   2.556   1.655  15.321 -0.1133  0.7315 -0.0251
 4527TIP3    H134996   2.631   1.714  15.328  0.7477 -0.3470  0.0922
 4527TIP3    H234997   2.536   1.653  15.227 -0.9154  2.0990  0.0805
 4528TIP3   OH234998   6.219   0.398  11.451  0.2820  0.7615 -0.9543
 4528TIP3    H134999   6.178   0.478  11.418  0.2985  0.8635 -0.7261
 4528TIP3    H235000   6.161   0.367  11.519  0.4806  0.7983 -0.7670
 4529TIP3   OH235001   1.438   1.202   5.122 -0.0803  0.3287 -0.3639
 4529TIP3    H135002   1.501   1.256   5.170  0.0710  1.0856 -1.3810
 4529TIP3    H235003   1.487   1.170   5.046 -0.7037  0.3041 -0.7622
 4530TIP3   OH235004   3.102   6.405  12.858  0.2788 -0.2252  0.5576
 4530TIP3    H135005   3.016   6.368  12.838 -0.3693  1.1982  0.6331
 4530TIP3    H235006   3.155   6.384  12.781 -0.7620  0.7751 -0.4604
 4531TIP3   OH235007   0.062   1.447   3.543 -0.1542  0.4429 -0.0158
 4531TIP3    H135008   0.072   1.372   3.602  0.2454  0.1833 -0.4003
 4531TIP3    H235009  -0.027   1.440   3.510  0.1636 -0.3863 -0.7358
 4532TIP3   OH235010   5.538   3.426   3.420 -0.1013  0.0884 -0.0645
 4532TIP3    H135011   5.555   3.359   3.353 -3.2407 -0.0357 -0.8924
 4532TIP3    H235012   5.513   3.376   3.498  1.2247  0.2823  0.5081
 4533TIP3   OH235013   2.856   4.175  15.952 -0.0721 -0.0886 -0.0478
 4533TIP3    H135014   2.827   4.087  15.927 -0.5509  0.2125 -0.5525
 4533TIP3    H235015   2.852   4.226  15.872 -0.4694  0.5751  0.3805
 4534TIP3   OH235016   6.129   2.182   2.339  0.1138 -0.1536  0.4739
 4534TIP3    H135017   6.223   2.173   2.353  0.1712 -1.3335 -0.5292
 4534TIP3    H235018   6.115   2.151   2.249 -1.1368  0.6889  0.3589
 4535TIP3   OH235019   5.679   5.489   2.423  0.1719  0.1184  0.5938
 4535TIP3    H135020   5.635   5.534   2.495 -0.1181  1.8829 -0.6219
 4535TIP3    H235021   5.771   5.512   2.433  0.1068  0.5135  0.3170
 4536TIP3   OH235022   3.754   0.156   5.691  0.1796 -0.3817 -0.3612
 4536TIP3    H135023   3.791   0.068   5.679  0.6817 -0.1350 -0.6670
 4536TIP3    H235024   3.830   0.212   5.708 -0.1513 -0.0290 -0.0393
 4537TIP3   OH235025   6.654   0.684   5.142  0.8318  0.1187 -0.1934
 4537TIP3    H135026   6.703   0.714   5.218  0.4507 -0.7905  0.4210
 4537TIP3    H235027   6.614   0.763   5.106  0.9458  0.5427  0.5956
 4538TIP3   OH235028   1.240   2.369  10.658 -0.3387 -0.4254  0.3305
 4538TIP3    H135029   1.220   2.363  10.751 -2.6214 -0.4760 -0.1249
 4538TIP3    H235030   1.229   2.280  10.625 -0.3317 -0.2507 -0.1463
 4539TIP3   OH235031   5.972   4.779  13.273 -0.2103  0.3792  0.1655
 4539TIP3    H135032   6.062   4.746  13.268 -0.4436 -0.4376  1.1525
 4539TIP3    H235033   5.959   4.824  13.189  1.0982  0.4724 -0.0062
 4540TIP3   OH235034   2.362   4.158   0.754 -0.3036  0.0866  0.5177
 4540TIP3    H135035   2.355   4.174   0.848 -2.5947  0.0007  0.4047
 4540TIP3    H235036   2.420   4.228   0.723  0.9674 -0.2311  2.0507
 4541TIP3   OH235037   6.321   5.005  16.386 -0.0800 -0.1011  0.8216
 4541TIP3    H135038   6.373   4.993  16.306  0.4412 -0.9561  1.2763
 4541TIP3    H235039   6.251   5.064  16.360 -0.2779 -0.8576 -0.4318
 4542TIP3   OH235040   4.541   4.888  16.809  0.2349 -0.0773 -0.1918
 4542TIP3    H135041   4.629   4.867  16.839  0.8210  2.3075 -0.0754
 4542TIP3    H235042   4.484   4.832  16.862  1.6472 -2.0430 -0.6385
 4543TIP3   OH235043   5.026   0.645   2.777  0.1242  0.4216  0.1091
 4543TIP3    H135044   4.933   0.633   2.759  0.1146  0.6927 -0.0135
 4543TIP3    H235045   5.068   0.570   2.735 -0.2925 -1.3582  2.5813
 4544TIP3   OH235046   3.687   3.987  11.405 -0.3600 -0.1724  0.0804
 4544TIP3    H135047   3.640   3.999  11.322  1.4562 -2.2511 -1.3736
 4544TIP3    H235048   3.730   4.071  11.420 -2.6371  1.0325  0.2727
 4545TIP3   OH235049   0.879   6.070   2.619 -0.4249 -0.5128  0.0616
 4545TIP3    H135050   0.810   6.137   2.621  0.0246 -0.0566  0.7878
 4545TIP3    H235051   0.847   6.004   2.558 -1.8274 -0.6555  0.9217
 4546TIP3   OH235052   0.705   5.144   5.896  0.5773 -0.3892 -0.3848
 4546TIP3    H135053   0.618   5.182   5.911  0.5955 -0.5646  0.1875
 4546TIP3    H235054   0.739   5.191   5.820  0.3244  0.2737 -0.0942
 4547TIP3   OH235055   3.026   0.508  15.652 -0.0098 -0.1160  0.0058
 4547TIP3    H135056   2.966   0.459  15.709 -0.4307 -0.5257 -0.7749
 4547TIP3    H235057   3.064   0.442  15.594  2.1896 -0.0782  1.2895
 4548TIP3   OH235058   4.675   3.521   5.487 -0.6825  0.4800 -0.0928
 4548TIP3    H135059   4.681   3.441   5.436 -2.0146  0.9920 -1.0988
 4548TIP3    H235060   4.766   3.539   5.513 -0.4700 -1.9648  1.1981
 4549TIP3   OH235061   4.279   5.219  12.769 -0.1525  0.1187 -0.5900
 4549TIP3    H135062   4.302   5.265  12.688 -0.0079  2.3117  0.6131
 4549TIP3    H235063   4.203   5.266  12.803 -0.7137 -1.2723  0.1500
 4550TIP3   OH235064   0.126   6.343  15.620  0.0994  0.3032  0.2793
 4550TIP3    H135065   0.187   6.277  15.589 -0.8986 -0.5983  0.1803
 4550TIP3    H235066   0.142   6.348  15.714 -0.6545 -0.9808  0.4887
 4551TIP3   OH235067   3.586   1.972   3.164  0.8048 -0.3955  0.2491
 4551TIP3    H135068   3.637   2.032   3.110  1.8680 -1.3479  0.1653
 4551TIP3    H235069   3.646   1.942   3.232  0.1734 -1.0336  0.5438
 4552TIP3   OH235070   3.803   6.084  17.227  0.0096  0.2115  0.5085
 4552TIP3    H135071   3.793   6.060  17.319 -1.8506  0.0296  0.2988
 4552TIP3    H235072   3.754   6.018  17.179  0.1763  0.8258 -0.5524
 4553TIP3   OH235073   0.784   2.397  15.808  0.2823  0.1934 -0.2713
 4553TIP3    H135074   0.854   2.332  15.810  0.3199  0.2128  1.6183
 4553TIP3    H235075   0.718   2.362  15.868 -0.0330  1.5204  0.1918
 4554TIP3   OH235076   0.158   6.633  14.214  0.1863  0.6100 -0.4781
 4554TIP3    H135077   0.180   6.583  14.292  1.1861  0.9937 -0.5053
 4554TIP3    H235078   0.233   6.622  14.156 -0.7769 -0.1517 -1.6544
 4555TIP3   OH235079   3.501   5.450   2.829  0.1633 -0.2424  0.3790
 4555TIP3    H135080   3.563   5.387   2.793  1.2557  0.7404  0.4500
 4555TIP3    H235081   3.551   5.496   2.897 -0.9199 -0.0038  1.0314
 4556TIP3   OH235082   0.054   0.088  10.364 -0.8986  0.3590 -0.3490
 4556TIP3    H135083   0.137   0.135  10.370 -0.8267  0.1081  1.1274
 4556TIP3    H235084   0.079  -0.004  10.355 -1.0107  0.3137 -0.2104
 4557TIP3   OH235085   3.621   2.075  12.982 -0.0069  0.2322  0.7580
 4557TIP3    H135086   3.663   2.160  12.998 -0.2171  0.7646 -1.2456
 4557TIP3    H235087   3.544   2.096  12.929  0.3955 -1.2455 -0.4928
 4558TIP3   OH235088   2.223   6.181   6.002 -0.0541 -0.0521 -0.5304
 4558TIP3    H135089   2.190   6.144   5.921 -2.0780 -2.6106  1.2999
 4558TIP3    H235090   2.221   6.108   6.064  1.0212  1.8740  1.9382
 4559TIP3   OH235091   2.592   0.155   4.136  0.0763  0.3453  0.2186
 4559TIP3    H135092   2.554   0.200   4.211 -1.2930  1.0374 -0.8484
 4559TIP3    H235093   2.596   0.063   4.163 -1.8445  0.3275  0.6260
 4560TIP3   OH235094   0.060   6.273  12.209 -0.2941  1.2977  0.0412
 4560TIP3    H135095   0.120   6.237  12.274  1.7758  0.8443 -2.0085
 4560TIP3    H235096   0.114   6.327  12.153 -1.8070  0.9094 -1.8975
 4561TIP3   OH235097   6.252   1.042  13.987 -0.1574  0.2007  0.0599
 4561TIP3    H135098   6.329   0.992  14.014  0.5153  0.3120 -1.5640
 4561TIP3    H235099   6.199   0.981  13.937 -0.3735  0.5425 -0.1322
 4562TIP3   OH235100   2.113   4.940   5.676 -0.0220  0.1471 -0.0911
 4562TIP3    H135101   2.132   5.032   5.662  2.4862 -0.4006 -0.7923
 4562TIP3    H235102   2.176   4.912   5.742  0.5223 -1.4393 -1.2227
 4563TIP3   OH235103   5.440   1.090  12.236  0.1701  0.2956  0.0523
 4563TIP3    H135104   5.443   1.004  12.277 -0.2442  0.2968  0.0821
 4563TIP3    H235105   5.415   1.072  12.145 -3.0084  0.6050  0.7490
 4564TIP3   OH235106   1.905   1.039   3.596 -0.5748  0.8450  0.6010
 4564TIP3    H135107   1.920   0.958   3.547  0.0255  0.5808  1.2044
 4564TIP3    H235108   1.822   1.072   3.562 -1.0971 -0.2897  0.6962
 4565TIP3   OH235109   1.766   2.931  11.590 -0.2113  0.0310  0.1654
 4565TIP3    H135110   1.809   2.845  11.586 -0.1560 -0.0057  1.3650
 4565TIP3    H235111   1.839   2.993  11.583 -0.2589 -0.0033 -0.7922
 4566TIP3   OH235112   1.154   6.598  10.706 -0.2382  0.0382 -0.3007
 4566TIP3    H135113   1.211   6.632  10.637  1.6851 -1.7310  0.2934
 4566TIP3    H235114   1.116   6.518  10.668 -2.2952  1.0957 -0.6245
 4567TIP3   OH235115   1.430   0.679  12.191 -0.2062 -0.2991  0.5654
 4567TIP3    H135116   1.520   0.649  12.195  0.3129  1.3148  1.6189
 4567TIP3    H235117   1.430   0.764  12.234 -1.6759  1.1037 -1.9180
 4568TIP3   OH235118   1.443   3.616   2.311 -1.2667  0.3810  0.2656
 4568TIP3    H135119   1.407   3.688   2.364 -0.7747  0.6273  0.2749
 4568TIP3    H235120   1.504   3.571   2.370 -0.4986  0.8295 -0.1679
 4569TIP3   OH235121   0.085   4.763   2.736  0.4609  0.3959 -0.1600
 4569TIP3    H135122   0.024   4.831   2.706 -1.3408 -0.7564  0.7258
 4569TIP3    H235123   0.116   4.795   2.821  0.3697  0.5364 -0.1788
 4570TIP3   OH235124   2.809   0.681  12.089 -0.3808  0.1680  0.4203
 4570TIP3    H135125   2.724   0.723  12.103 -0.1266  1.4684 -1.5237
 4570TIP3    H235126   2.794   0.619  12.018  0.1676  0.0390  0.4171
 4571TIP3   OH235127   3.499   2.750   1.848 -0.2037  0.1273 -0.0386
 4571TIP3    H135128   3.515   2.699   1.928  0.7141  0.5227  0.0453
 4571TIP3    H235129   3.404   2.762   1.846 -0.2338  0.2354  1.0874
 4572TIP3   OH235130   0.059   6.441  13.751 -0.3699  0.1686  0.1336
 4572TIP3    H135131   0.077   6.528  13.789 -1.8617  0.1402  0.9919
 4572TIP3    H235132   0.142   6.394  13.758  0.3288  1.3660  0.1143
 4573TIP3   OH235133   6.681   5.414   0.589 -0.0971  0.1094  0.2766
 4573TIP3    H135134   6.713   5.329   0.617  0.4524  0.1662 -0.1757
 4573TIP3    H235135   6.754   5.474   0.605  0.2445  0.1454 -1.2481
 4574TIP3   OH235136   0.592   6.515   4.912  0.9277  0.8108  0.3455
 4574TIP3    H135137   0.615   6.559   4.993  0.1764  3.4762 -0.7618
 4574TIP3    H235138   0.501   6.488   4.925  0.9467  0.8455  0.5566
 4575TIP3   OH235139   1.924   2.076  14.418  0.4291 -0.7706 -0.2646
 4575TIP3    H135140   1.842   2.075  14.466  0.4952 -0.9424 -0.1518
 4575TIP3    H235141   1.913   2.145  14.352  0.2139 -0.7608 -0.2195
 4576TIP3   OH235142   1.943   0.245   3.573 -0.1628 -0.0691  0.5736
 4576TIP3    H135143   1.934   0.289   3.489 -0.3103  1.8473  1.5245
 4576TIP3    H235144   1.853   0.238   3.606 -0.0016  0.6013  1.2061
 4577TIP3   OH235145   0.540   5.172  15.765  0.4602  0.1214 -0.0280
 4577TIP3    H135146   0.567   5.237  15.829  0.6358 -1.1136  1.1956
 4577TIP3    H235147   0.622   5.130  15.738  0.2369 -0.4381  0.1480
 4578TIP3   OH235148   6.631   4.593   2.832 -0.0331  0.6608  0.0141
 4578TIP3    H135149   6.707   4.557   2.786  0.5144 -0.1724  1.5156
 4578TIP3    H235150   6.558   4.535   2.807  0.7932 -1.4935  2.2211
 4579TIP3   OH235151   3.946   0.232  13.740  0.1465  0.0539  0.0113
 4579TIP3    H135152   3.939   0.233  13.835 -2.9586  1.6177 -0.1170
 4579TIP3    H235153   3.866   0.190  13.710  0.2375  1.1174 -1.9007
 4580TIP3   OH235154   1.154   3.316  15.946  0.4237  0.2598 -0.2851
 4580TIP3    H135155   1.120   3.229  15.967  1.7409  0.0559  1.2076
 4580TIP3    H235156   1.076   3.370  15.932 -0.4288 -0.8824 -0.0675
 4581TIP3   OH235157   5.738   4.533   6.092  0.2605  0.2844 -0.0414
 4581TIP3    H135158   5.692   4.458   6.130  0.1852 -0.5260 -1.6760
 4581TIP3    H235159   5.702   4.542   6.004  2.3228  0.4078 -0.9377
 4582TIP3   OH235160   5.878   3.085   2.255  0.2882 -0.3335  0.3254
 4582TIP3    H135161   5.866   2.990   2.263  0.5798 -0.2547  2.3222
 4582TIP3    H235162   5.797   3.116   2.216  0.2437 -1.4112 -0.4958
 4583TIP3   OH235163   5.302   2.365  12.505 -0.1680  0.0625  0.0400
 4583TIP3    H135164   5.374   2.308  12.531  0.4015  0.9948  0.5798
 4583TIP3    H235165   5.278   2.336  12.417  0.8277 -0.2954 -0.1189
 4584TIP3   OH235166   3.233   6.641  12.632 -0.4914  0.1949  0.6113
 4584TIP3    H135167   3.308   6.582  12.635 -0.5797 -0.0430 -1.1583
 4584TIP3    H235168   3.212   6.657  12.724  2.4549  1.2116  1.2300
 4585TIP3   OH235169   1.245   1.816   2.339 -0.1134  0.4119 -0.0975
 4585TIP3    H135170   1.332   1.855   2.332  0.0479 -0.0833 -0.9888
 4585TIP3    H235171   1.185   1.887   2.319  0.2250 -0.1420 -3.6511
 4586TIP3   OH235172   4.199   5.742   0.394 -0.3613 -0.0123 -0.0640
 4586TIP3    H135173   4.287   5.765   0.422 -0.6963  1.6363 -0.2473
 4586TIP3    H235174   4.212   5.699   0.309  0.3156 -0.5569  0.3075
 4587TIP3   OH235175   4.310   6.103  16.962 -0.0524 -0.0809  0.2740
 4587TIP3    H135176   4.257   6.023  16.964 -1.4861  0.8174 -0.2329
 4587TIP3    H235177   4.384   6.081  16.906 -0.0444 -1.2763  0.7243
 4588TIP3   OH235178   2.293   0.487   6.251 -0.0287  0.6809  0.5173
 4588TIP3    H135179   2.297   0.573   6.210 -0.0747  0.7013  0.5544
 4588TIP3    H235180   2.344   0.497   6.332 -1.7841  1.2970  1.6234
 4589TIP3   OH235181   0.930   2.904   4.863 -0.2787 -0.1449  0.2408
 4589TIP3    H135182   1.007   2.904   4.806 -0.5602  0.3651 -0.1448
 4589TIP3    H235183   0.856   2.897   4.803 -0.6951  2.4423  0.3594
 4590TIP3   OH235184   3.608   4.998   1.017 -0.0635 -0.5987 -0.2094
 4590TIP3    H135185   3.624   5.068   0.954  1.7218 -2.1500 -1.5933
 4590TIP3    H235186   3.514   5.003   1.034  0.1454  2.8048  0.6667
 4591TIP3   OH235187   0.206   3.263  15.612 -0.4383 -0.2234  0.0255
 4591TIP3    H135188   0.249   3.267  15.527  1.5306  0.9091  1.0107
 4591TIP3    H235189   0.120   3.302  15.597 -1.5355 -3.1004 -2.1253
 4592TIP3   OH235190   0.990   5.563  12.346  0.2569  0.5220  0.2684
 4592TIP3    H135191   0.998   5.617  12.425 -0.2714  0.3186  0.4711
 4592TIP3    H235192   0.903   5.522  12.355 -0.3510  1.4653 -1.0312
 4593TIP3   OH235193   6.743   4.262  15.672 -0.2746  0.2412  0.3792
 4593TIP3    H135194   6.838   4.262  15.674 -0.1608  0.1853 -2.1594
 4593TIP3    H235195   6.718   4.354  15.677 -0.1258  0.2466  1.1880
 4594TIP3   OH235196   3.062   6.742  15.908  0.0218  0.0729  0.1299
 4594TIP3    H135197   3.128   6.809  15.892  0.6668 -0.7478 -0.7903
 4594TIP3    H235198   3.007   6.743  15.830  0.3590 -0.8092 -0.1345
 4595TIP3   OH235199   1.093   0.401   3.353 -0.1914  0.2708 -0.8622
 4595TIP3    H135200   1.106   0.324   3.408  0.8906  0.4260 -0.8859
 4595TIP3    H235201   1.138   0.472   3.399 -2.2326  1.2078 -0.1946
 4596TIP3   OH235202   6.544   0.616  17.067 -0.0165  0.3463  0.5306
 4596TIP3    H135203   6.510   0.608  16.978 -1.0627 -1.8079  1.0579
 4596TIP3    H235204   6.625   0.564  17.067 -0.4884 -0.4072  1.0315
 4597TIP3   OH235205   0.522   1.385   3.619  0.1203  0.6395  0.4421
 4597TIP3    H135206   0.606   1.358   3.655 -0.5684 -1.3346  0.7300
 4597TIP3    H235207   0.540   1.401   3.526  1.0545  1.5130  0.7629
 4598TIP3   OH235208   5.590   0.025   3.765  0.0326 -0.5273  0.0762
 4598TIP3    H135209   5.501   0.014   3.730 -0.6439  1.4054  1.0301
 4598TIP3    H235210   5.631   0.088   3.706  0.5901 -0.9650 -0.0131
 4599TIP3   OH235211   6.154   0.420   1.162 -0.3247 -0.3472  0.5162
 4599TIP3    H135212   6.220   0.370   1.209  1.7617  1.0453 -0.7575
 4599TIP3    H235213   6.148   0.379   1.076 -1.9931 -1.1177  0.9454
 4600TIP3   OH235214   3.034   4.892   6.091  0.6145  0.7401 -0.5635
 4600TIP3    H135215   2.995   4.958   6.148 -0.1093 -0.3587  0.2410
 4600TIP3    H235216   3.108   4.937   6.049  0.0881  2.0727 -0.1032
 4601TIP3   OH235217   5.440   6.639   2.623 -0.0839 -0.3095 -0.2710
 4601TIP3    H135218   5.430   6.548   2.595  0.7052 -0.1668 -1.0582
 4601TIP3    H235219   5.469   6.632   2.714  0.0607 -0.8583 -0.3502
 4602TIP3   OH235220   5.404   6.437   4.755  0.1855  0.0726  0.1939
 4602TIP3    H135221   5.342   6.404   4.690 -0.0038  1.7706 -0.5372
 4602TIP3    H235222   5.476   6.474   4.704  0.5108  0.5489  0.9808
 4603TIP3   OH235223   3.633   6.765  12.536  0.3707 -0.0059  0.5407
 4603TIP3    H135224   3.675   6.771  12.450  0.5235  0.3929  0.6406
 4603TIP3    H235225   3.552   6.718  12.520 -0.7249  2.0117 -0.2371
 4604TIP3   OH235226   2.806   1.435  16.861  0.3141  0.3236 -0.9358
 4604TIP3    H135227   2.882   1.422  16.804  0.8793  0.9269 -0.3449
 4604TIP3    H235228   2.809   1.362  16.922  1.5010  1.2940  0.2302
 4605TIP3   OH235229   0.786   1.739  13.520  0.2169 -0.1319 -0.3964
 4605TIP3    H135230   0.725   1.704  13.585  0.6574 -0.1530  0.0126
 4605TIP3    H235231   0.731   1.783  13.456 -0.2644 -0.5988 -0.3085
 4606TIP3   OH235232   0.632   5.968  17.112 -0.1247  0.5366  0.2132
 4606TIP3    H135233   0.708   5.909  17.118  0.2787  1.1253  1.0714
 4606TIP3    H235234   0.602   5.958  17.022  0.8314  0.1137 -0.0761
 4607TIP3   OH235235   5.253   2.696   3.207 -0.1908 -0.6281 -0.5684
 4607TIP3    H135236   5.158   2.708   3.203 -0.1440 -0.5446 -1.9586
 4607TIP3    H235237   5.273   2.645   3.129  1.1110  0.8092 -1.2141
 4608TIP3   OH235238   6.529   3.852  13.526 -0.3319  0.0847  0.1743
 4608TIP3    H135239   6.536   3.757  13.529  0.9858  0.1638  0.6428
 4608TIP3    H235240   6.439   3.871  13.552 -0.5451 -1.0211  0.2859
 4609TIP3   OH235241   0.801   0.686   4.480  0.0182 -0.3515  0.6270
 4609TIP3    H135242   0.819   0.769   4.436  0.6780  0.8977  3.0861
 4609TIP3    H235243   0.740   0.641   4.422  0.6853  1.2410 -1.4311
 4610TIP3   OH235244   0.041   2.150   1.391  0.2749  0.2318  0.1297
 4610TIP3    H135245  -0.036   2.097   1.413 -0.0878  0.9888  0.7379
 4610TIP3    H235246   0.023   2.235   1.430  2.1232 -0.0086  1.6441
 4611TIP3   OH235247   0.254   3.826   5.798 -0.2924 -0.5805 -0.0729
 4611TIP3    H135248   0.228   3.736   5.818 -1.0547 -0.6411 -1.2263
 4611TIP3    H235249   0.349   3.827   5.810 -0.2876 -1.5235  0.0317
 4612TIP3   OH235250   4.324   3.478  16.234  0.4520  0.7288 -0.9233
 4612TIP3    H135251   4.326   3.384  16.251  2.4900  0.4824 -2.1282
 4612TIP3    H235252   4.383   3.515  16.301 -0.4017  1.1785 -0.4048
 4613TIP3   OH235253   6.349   5.784  14.616 -0.4046  0.6813 -0.2717
 4613TIP3    H135254   6.371   5.708  14.562  1.1806  1.4171 -0.7271
 4613TIP3    H235255   6.391   5.766  14.700 -1.6950  0.1849  0.3002
 4614TIP3   OH235256   5.119   5.000   1.976  0.1689  0.6001  0.6036
 4614TIP3    H135257   5.151   5.033   1.892  0.0693  2.4815  1.2618
 4614TIP3    H235258   5.070   4.920   1.954  1.0854  0.4346 -0.9706
 4615TIP3   OH235259   6.614   6.330  15.625 -0.1959  0.3397  0.9748
 4615TIP3    H135260   6.615   6.425  15.643 -5.0455  1.1298 -1.1787
 4615TIP3    H235261   6.661   6.321  15.542  1.6255  0.5336  1.9464
 4616TIP3   OH235262   4.634   4.191   4.759  0.0771  0.1044 -0.9424
 4616TIP3    H135263   4.640   4.102   4.794  1.1557  0.4614 -0.1750
 4616TIP3    H235264   4.555   4.227   4.798  1.1180  0.4120  1.0378
 4617TIP3   OH235265   2.608   1.718  12.483  0.0464 -0.1569 -0.6926
 4617TIP3    H135266   2.584   1.763  12.402  1.4483  1.3451 -0.3390
 4617TIP3    H235267   2.681   1.769  12.518  0.4560 -1.6382  0.7605
 4618TIP3   OH235268   3.052   2.600   0.751 -0.4646  0.2767 -0.2238
 4618TIP3    H135269   3.145   2.587   0.732 -0.3526 -2.2740  1.5794
 4618TIP3    H235270   3.007   2.552   0.681 -0.2774 -1.1844  0.6027
 4619TIP3   OH235271   0.589   6.167   1.307  0.4585  0.0281  0.3740
 4619TIP3    H135272   0.643   6.203   1.378 -0.5335  0.7376  0.8036
 4619TIP3    H235273   0.642   6.176   1.228  0.5087  1.8866  0.5766
 4620TIP3   OH235274   4.406   1.148   3.987  0.0980 -0.1980  0.2482
 4620TIP3    H135275   4.344   1.086   4.026 -1.2508  0.3548 -0.9674
 4620TIP3    H235276   4.491   1.106   3.998 -0.7618 -2.2703 -0.4901
 4621TIP3   OH235277   5.368   4.318  11.187  0.3278 -0.4657  0.1473
 4621TIP3    H135278   5.273   4.309  11.179  0.4497 -3.2539  0.8486
 4621TIP3    H235279   5.403   4.268  11.114  1.2462 -0.7398  0.7559
 4622TIP3   OH235280   0.142   0.496   4.992 -0.3031 -0.1977  0.3559
 4622TIP3    H135281   0.047   0.488   4.979 -0.4023  0.3966  0.6887
 4622TIP3    H235282   0.151   0.530   5.081  0.2484 -0.7773  0.5329
 4623TIP3   OH235283   0.653   6.308   3.267  0.5222 -0.5010 -0.4369
 4623TIP3    H135284   0.641   6.393   3.225 -0.7195  0.4928  1.7309
 4623TIP3    H235285   0.723   6.323   3.331  0.9829 -1.3896 -0.7305
 4624TIP3   OH235286   5.798   3.080   2.643  0.4806  0.4182 -0.0956
 4624TIP3    H135287   5.812   2.991   2.677  0.1303  0.3409 -0.1477
 4624TIP3    H235288   5.706   3.081   2.617  0.3449  0.9630  0.3928
 4625TIP3   OH235289   4.085   0.064   0.907 -0.3780 -0.3579  0.4775
 4625TIP3    H135290   4.066   0.126   0.837 -1.0364 -2.0827 -0.9609
 4625TIP3    H235291   4.107   0.118   0.982 -1.3912  1.6045 -0.5650
 4626TIP3   OH235292   1.952   0.177   4.108  0.4363 -0.6810  0.1072
 4626TIP3    H135293   1.992   0.097   4.143 -0.0986 -1.9063 -1.9002
 4626TIP3    H235294   2.010   0.248   4.138  0.8349 -1.7743  2.0721
 4627TIP3   OH235295   0.893   6.062   4.162 -0.1550 -0.3656 -0.2674
 4627TIP3    H135296   0.841   6.042   4.084 -0.3466  2.5958 -1.0439
 4627TIP3    H235297   0.829   6.094   4.226  0.3802  0.8668 -0.3175
 4628TIP3   OH235298   0.922   0.393  15.758  0.2222 -0.4558  0.1400
 4628TIP3    H135299   1.013   0.397  15.729  0.1763  1.1159  0.1659
 4628TIP3    H235300   0.879   0.466  15.714 -1.0589 -1.2012  0.0913
 4629TIP3   OH235301   3.398   6.700   5.301 -0.1891  0.1868 -0.1301
 4629TIP3    H135302   3.409   6.619   5.350 -0.3714  0.7546  0.8868
 4629TIP3    H235303   3.333   6.750   5.351  2.4134  2.4405  1.3115
 4630TIP3   OH235304   2.080   6.188   0.542  0.8395  0.2332  0.0780
 4630TIP3    H135305   2.045   6.112   0.495  1.7962  0.5003 -1.1181
 4630TIP3    H235306   2.138   6.150   0.608  0.7059 -0.1135 -0.0023
 4631TIP3   OH235307   0.670   6.298   5.749 -0.1785 -0.3802 -0.5564
 4631TIP3    H135308   0.644   6.227   5.808 -1.1816  0.3106 -0.1332
 4631TIP3    H235309   0.738   6.345   5.797  0.5315 -1.0710 -0.8629
 4632TIP3   OH235310   5.429   3.514  15.200  0.3928 -0.1541 -0.0324
 4632TIP3    H135311   5.378   3.593  15.182 -0.3465 -0.4523  0.6973
 4632TIP3    H235312   5.405   3.454  15.130 -1.3627 -0.7960  1.0741
 4633TIP3   OH235313   1.130   5.518   3.869  0.3879  0.0771 -0.0969
 4633TIP3    H135314   1.070   5.577   3.914 -0.0054 -0.1272 -0.3398
 4633TIP3    H235315   1.140   5.444   3.928  1.8356  0.9016  0.7515
 4634TIP3   OH235316   0.383   5.467  11.969  0.3584 -0.5208  0.8874
 4634TIP3    H135317   0.446   5.527  12.008  0.8475  0.4932 -1.2897
 4634TIP3    H235318   0.299   5.493  12.005  0.6875  0.8804  0.6720
 4635TIP3   OH235319   3.939   2.457  13.906  0.0721  0.8696 -0.4228
 4635TIP3    H135320   4.021   2.410  13.897 -0.0738  0.1702  1.4175
 4635TIP3    H235321   3.965   2.548  13.924  0.4413  0.7048 -0.1115
 4636TIP3   OH235322   1.444   5.335   0.148  0.2633  0.1820  0.4202
 4636TIP3    H135323   1.455   5.427   0.174 -1.4803  0.3766  0.5971
 4636TIP3    H235324   1.400   5.294   0.223 -2.7020  0.2034 -1.1531
 4637TIP3   OH235325   1.790   0.828  12.044  0.0354  0.1029 -0.3132
 4637TIP3    H135326   1.849   0.769  12.093  1.3105  0.7865 -0.9710
 4637TIP3    H235327   1.729   0.859  12.110  0.5959 -0.3970  0.4762
 4638TIP3   OH235328   2.641   4.726   4.230  1.1781  0.1098 -0.6495
 4638TIP3    H135329   2.719   4.733   4.285  0.2314  0.3159  0.7165
 4638TIP3    H235330   2.597   4.647   4.261 -0.3126  1.2102  0.1692
 4639TIP3   OH235331   4.521   5.052   0.198  0.2933 -0.3606 -0.2176
 4639TIP3    H135332   4.536   5.027   0.107  0.1606  0.1216 -0.3738
 4639TIP3    H235333   4.446   5.112   0.195  0.0260 -0.6625  0.2547
 4640TIP3   OH235334   2.753   1.583   0.516  0.6863  0.5310 -1.1574
 4640TIP3    H135335   2.794   1.516   0.571 -0.8943 -1.3344 -2.1095
 4640TIP3    H235336   2.822   1.612   0.457  1.3633 -0.4332 -0.8603
 4641TIP3   OH235337   1.308   5.022  14.691  0.0391 -0.6848 -0.0196
 4641TIP3    H135338   1.247   5.013  14.764 -0.4775 -0.0818 -0.3628
 4641TIP3    H235339   1.312   4.935  14.651 -1.5569 -0.4510 -0.7363
 4642TIP3   OH235340   3.149   6.103   3.377  0.9150  0.5864 -0.0073
 4642TIP3    H135341   3.103   6.061   3.450  1.4135  0.1055  0.0323
 4642TIP3    H235342   3.207   6.166   3.419  0.3749  1.1171 -0.0518
 4643TIP3   OH235343   6.234   5.122   2.497  0.1407  0.5409  0.0373
 4643TIP3    H135344   6.323   5.137   2.464 -0.2819  2.3600 -0.3969
 4643TIP3    H235345   6.213   5.033   2.468  2.5969 -0.8385  2.0763
 4644TIP3   OH235346   0.019   4.081   5.139  0.8927  0.5614  0.1176
 4644TIP3    H135347   0.086   4.071   5.207  1.5133 -1.5450 -0.7230
 4644TIP3    H235348  -0.007   3.991   5.118  0.4803  1.1644 -2.1925
 4645TIP3   OH235349   6.020   2.124   4.374  0.0027 -0.7611 -0.3658
 4645TIP3    H135350   6.103   2.165   4.399 -0.5303  0.2455 -0.2152
 4645TIP3    H235351   6.026   2.118   4.278  1.4039 -3.2517 -0.2029
 4646TIP3   OH235352   3.656   1.215   5.419  0.3106 -0.0959 -0.0922
 4646TIP3    H135353   3.598   1.154   5.464 -1.3720  2.3290  1.3235
 4646TIP3    H235354   3.691   1.271   5.488 -0.2443  2.0879 -1.4455
 4647TIP3   OH235355   0.587   2.562   5.717 -0.1635 -0.6318  0.1795
 4647TIP3    H135356   0.524   2.630   5.740  0.4713  0.3661 -0.9369
 4647TIP3    H235357   0.597   2.511   5.798 -0.8785  0.4084  0.9550
 4648TIP3   OH235358   2.696   2.209   1.158  0.4872 -0.1964 -0.2032
 4648TIP3    H135359   2.760   2.275   1.133  1.6588 -0.2420  2.3197
 4648TIP3    H235360   2.744   2.126   1.154 -0.7179 -0.8524 -2.4904
 4649TIP3   OH235361   3.895   3.840  11.508 -0.0933  0.0013 -0.2543
 4649TIP3    H135362   3.814   3.878  11.475  0.7786  2.1555 -0.0917
 4649TIP3    H235363   3.896   3.863  11.601 -0.0787 -1.4911  0.1348
 4650TIP3   OH235364   3.877   1.493   0.124 -0.6118 -0.3411 -0.3030
 4650TIP3    H135365   3.818   1.519   0.054 -0.2746  1.8533  0.1742
 4650TIP3    H235366   3.964   1.517   0.092 -0.3183 -0.5653  0.3157
 4651TIP3   OH235367   6.685   1.093   3.468  0.1466  0.3214  0.4903
 4651TIP3    H135368   6.723   1.005   3.464  0.2798  0.4249 -1.4099
 4651TIP3    H235369   6.648   1.099   3.556  0.9590 -1.2794  0.9885
 4652TIP3   OH235370   4.875   5.373   1.387 -0.8249  0.3895  0.1858
 4652TIP3    H135371   4.842   5.418   1.465 -2.7750 -2.0216  0.8844
 4652TIP3    H235372   4.912   5.291   1.420  0.3365  0.3081 -1.2272
 4653TIP3   OH235373   6.008   3.249  17.049 -0.3548 -0.0032  0.5219
 4653TIP3    H135374   5.941   3.249  16.980  0.9734  1.5305 -0.8774
 4653TIP3    H235375   5.958   3.260  17.130 -1.9168 -0.9076 -0.2547
 4654TIP3   OH235376   2.185   2.102   2.144 -0.5565  0.0341 -0.1897
 4654TIP3    H135377   2.179   2.024   2.200  1.8612 -0.1019 -0.0234
 4654TIP3    H235378   2.266   2.090   2.095 -0.9949  1.6890 -1.3860
 4655TIP3   OH235379   4.455   2.706  16.298 -0.0234  0.3848  0.0614
 4655TIP3    H135380   4.536   2.716  16.249  0.9300 -1.7752  1.0746
 4655TIP3    H235381   4.386   2.730  16.236  1.1991 -1.0875 -1.9876
 4656TIP3   OH235382   3.638   3.155  15.279 -0.6399  0.4565  0.7676
 4656TIP3    H135383   3.648   3.117  15.191 -2.8349 -0.7810  1.0027
 4656TIP3    H235384   3.703   3.226  15.281  1.6602 -1.4272 -0.7190
 4657TIP3   OH235385   0.137   5.077   5.203 -0.9041 -0.4555  0.2039
 4657TIP3    H135386   0.087   5.146   5.159 -0.1564 -0.0642 -0.0387
 4657TIP3    H235387   0.218   5.070   5.153 -0.5595 -0.8406  0.8031
 4658TIP3   OH235388   4.434   4.425   5.663 -0.0094 -0.3206 -0.4852
 4658TIP3    H135389   4.430   4.430   5.759 -2.4421 -1.7229 -0.4250
 4658TIP3    H235390   4.519   4.464   5.641  1.5595 -1.7479  2.3650
 4659TIP3   OH235391   0.746   4.604   4.983 -0.3902 -0.3581  0.3689
 4659TIP3    H135392   0.679   4.670   5.000 -0.7202 -0.7246  0.5023
 4659TIP3    H235393   0.702   4.538   4.930 -0.3011 -0.8864  0.9381
 4660TIP3   OH235394   0.113   5.245  14.593 -0.2765 -0.2870  0.2528
 4660TIP3    H135395   0.188   5.185  14.588 -0.4665 -0.4169 -1.5114
 4660TIP3    H235396   0.095   5.270  14.502 -1.0561  1.4080  0.8279
 4661TIP3   OH235397   5.952   3.242  13.062 -0.1930  0.7684  0.0636
 4661TIP3    H135398   5.961   3.173  13.128 -0.7437  1.2249  0.6277
 4661TIP3    H235399   6.006   3.212  12.989 -1.8321 -1.1841 -0.4700
 4662TIP3   OH235400   5.868   0.422   2.265 -0.0296 -0.2242  0.9944
 4662TIP3    H135401   5.807   0.491   2.239  1.5184  0.8745  0.0958
 4662TIP3    H235402   5.899   0.449   2.351 -0.1588 -0.3168  1.0698
 4663TIP3   OH235403   4.671   4.632  15.977  0.2339 -0.1959  0.2251
 4663TIP3    H135404   4.767   4.639  15.971  0.1744 -0.2851 -1.5140
 4663TIP3    H235405   4.654   4.614  16.069  1.7183  2.3350  1.0982
 4664TIP3   OH235406   3.933   6.386  17.002 -0.2144  0.1424 -0.5021
 4664TIP3    H135407   4.029   6.386  17.007 -0.1417 -1.1342 -1.2925
 4664TIP3    H235408   3.913   6.434  16.922 -0.1523 -0.6322 -0.9991
 4665TIP3   OH235409   4.074   1.643   2.395  0.0835  0.2346  0.2028
 4665TIP3    H135410   4.139   1.602   2.338  1.0169  2.3302 -0.3607
 4665TIP3    H235411   4.043   1.719   2.345 -1.8917 -0.0001  0.9921
 4666TIP3   OH235412   0.474   2.560   1.548  0.4839  0.5224  0.2393
 4666TIP3    H135413   0.468   2.540   1.455 -1.2136  2.4520 -0.1348
 4666TIP3    H235414   0.528   2.490   1.584 -1.5311 -2.2038 -1.6156
 4667TIP3   OH235415   3.121   0.359  14.866  0.0673 -0.3558 -0.5185
 4667TIP3    H135416   3.200   0.381  14.816  0.1525  1.3759  0.3160
 4667TIP3    H235417   3.134   0.401  14.951 -0.4571 -2.5158  0.7076
 4668TIP3   OH235418   0.001   4.561  13.868 -0.0489 -0.4437 -0.4506
 4668TIP3    H135419   0.018   4.544  13.960 -1.2975  0.6743  0.0114
 4668TIP3    H235420   0.051   4.493  13.822 -1.4598 -2.7148  1.1248
 4669TIP3   OH235421   3.725   0.595   3.775  0.1902  0.0294 -0.2107
 4669TIP3    H135422   3.701   0.604   3.683 -0.8191 -0.0229  0.0342
 4669TIP3    H235423   3.816   0.624   3.779  0.3491 -0.2666 -1.2765
 4670TIP3   OH235424   2.216   0.165   1.040  0.3132  1.0619  0.2132
 4670TIP3    H135425   2.279   0.214   1.092  1.6737  0.1212 -0.4878
 4670TIP3    H235426   2.244   0.073   1.047 -0.8748  0.6354 -0.2644
 4671TIP3   OH235427   5.008   0.163   2.471  0.8296 -0.3253 -0.3598
 4671TIP3    H135428   5.066   0.087   2.468  0.6727 -0.6007  2.1577
 4671TIP3    H235429   4.934   0.135   2.525 -0.0933  1.0815 -0.8370
 4672TIP3   OH235430   3.893   4.109   0.935 -0.0930  0.3818 -0.2233
 4672TIP3    H135431   3.827   4.179   0.928  0.8080  1.0784 -2.4792
 4672TIP3    H235432   3.974   4.150   0.907  0.8793 -1.0594  0.3954
 4673TIP3   OH235433   5.656   6.314  17.168  0.2219 -0.2653  0.7622
 4673TIP3    H135434   5.579   6.334  17.114  0.9736 -0.3951 -0.3912
 4673TIP3    H235435   5.730   6.332  17.111  1.0834  0.4349  2.0568
 4674TIP3   OH235436   5.877   2.802  15.705 -0.8662  0.0574 -0.4205
 4674TIP3    H135437   5.869   2.707  15.703 -1.9673  0.1117  0.4657
 4674TIP3    H235438   5.855   2.829  15.615  0.8074 -0.5770 -1.0592
 4675TIP3   OH235439   1.124   1.186  14.743 -0.3245 -0.0215  0.2470
 4675TIP3    H135440   1.143   1.159  14.653 -1.6655 -1.9983  0.5013
 4675TIP3    H235441   1.201   1.237  14.770  0.5827 -0.3291 -1.6299
 4676TIP3   OH235442   3.012   4.512   2.366  0.1309  0.1257 -0.5334
 4676TIP3    H135443   3.020   4.572   2.440 -0.3513 -0.3947 -0.0479
 4676TIP3    H235444   3.099   4.510   2.327  0.5879 -0.1342  0.4516
 4677TIP3   OH235445   0.122   5.979  15.603  0.0211 -0.8899  0.4932
 4677TIP3    H135446   0.120   5.983  15.699 -1.4336 -0.0984  0.4472
 4677TIP3    H235447   0.213   5.958  15.583  0.0597 -2.5667  2.0938
 4678TIP3   OH235448   5.753   1.824  11.412  0.3194 -0.1561 -0.7520
 4678TIP3    H135449   5.808   1.783  11.345  1.0808 -0.1598 -0.1423
 4678TIP3    H235450   5.705   1.893  11.365  0.8079 -0.1904 -1.3079
 4679TIP3   OH235451   5.893   0.923  16.411 -0.5536 -0.2792  0.5214
 4679TIP3    H135452   5.938   0.933  16.494 -2.1053  1.7489  1.2240
 4679TIP3    H235453   5.800   0.922  16.434 -0.9759 -1.6130 -1.0586
 4680TIP3   OH235454   0.591   4.571  14.928  0.2797 -0.1168 -0.2436
 4680TIP3    H135455   0.669   4.615  14.895  1.1959 -0.7096  1.0809
 4680TIP3    H235456   0.543   4.546  14.849  1.4336  0.2118 -1.0741
 4681TIP3   OH235457   6.034   5.069   1.391  0.3594  0.6698 -0.1280
 4681TIP3    H135458   6.075   4.984   1.406  1.1774  0.6381 -2.2308
 4681TIP3    H235459   6.103   5.122   1.351 -0.3384  2.1374  0.5271
 4682TIP3   OH235460   1.345   6.081   1.042  0.5263  0.5989 -0.4098
 4682TIP3    H135461   1.346   6.137   0.964  1.2154  0.4466 -0.5190
 4682TIP3    H235462   1.283   6.123   1.102  0.2155  0.8799 -0.9200
 4683TIP3   OH235463   6.113   6.350   6.831 -0.0985 -0.3284 -0.3538
 4683TIP3    H135464   6.050   6.414   6.799 -2.8803 -1.0165  3.0888
 4683TIP3    H235465   6.062   6.269   6.840  1.6884 -1.3756  1.0819
 4684TIP3   OH235466   1.910   2.152   2.975 -0.5925 -0.4966 -0.3675
 4684TIP3    H135467   1.931   2.088   3.043  0.8409 -0.5832 -0.8567
 4684TIP3    H235468   1.865   2.101   2.908 -0.8242 -0.6752 -0.0823
 4685TIP3   OH235469   6.082   6.281   2.224  0.4202  0.5901 -0.0694
 4685TIP3    H135470   6.067   6.189   2.205  1.2930  0.7838 -1.9195
 4685TIP3    H235471   6.048   6.293   2.313  1.6733 -1.8264  0.8332
 4686TIP3   OH235472   3.122   2.047  15.687 -0.3934 -0.4929 -0.1035
 4686TIP3    H135473   3.137   2.020  15.777  2.3481  1.7316  0.2508
 4686TIP3    H235474   3.124   1.966  15.636 -0.6570 -1.6531  1.6721
 4687TIP3   OH235475   0.102   4.423   1.823 -0.3238 -1.1992  0.0979
 4687TIP3    H135476   0.177   4.363   1.821 -0.9201 -1.9663  0.3460
 4687TIP3    H235477   0.111   4.474   1.742  0.4242 -1.3253  0.0888
 4688TIP3   OH235478   0.465   3.503  14.693 -0.5264 -0.1314 -0.2241
 4688TIP3    H135479   0.430   3.416  14.675 -0.0772 -0.1354 -1.1097
 4688TIP3    H235480   0.387   3.559  14.698 -0.9549 -0.8356  2.0224
 4689TIP3   OH235481   2.946   3.445  17.228  0.3750  0.2655  0.4886
 4689TIP3    H135482   2.922   3.538  17.217 -1.0010 -0.1446 -0.2659
 4689TIP3    H235483   3.038   3.442  17.204  0.2248  1.3182 -0.3435
 4690TIP3   OH235484   4.542   0.580  13.565  0.1940 -0.0815 -0.6337
 4690TIP3    H135485   4.558   0.669  13.597  0.7403 -0.4208  0.0566
 4690TIP3    H235486   4.471   0.547  13.620  1.0533 -0.6222  0.1897
 4691TIP3   OH235487   4.247   3.718  14.678 -0.7418 -0.5667 -0.1305
 4691TIP3    H135488   4.336   3.698  14.708 -0.3802 -1.1497 -1.5119
 4691TIP3    H235489   4.258   3.788  14.614 -1.0596 -1.6765 -1.4606
 4692TIP3   OH235490   3.692   3.429   2.309  0.1273 -0.3103  0.0082
 4692TIP3    H135491   3.722   3.424   2.218  2.3721 -0.4268  0.6837
 4692TIP3    H235492   3.662   3.519   2.319  0.1803 -0.1972 -0.7643
 4693TIP3   OH235493   1.164   4.512   2.509  0.1935  0.0929  0.7092
 4693TIP3    H135494   1.083   4.460   2.502  0.4021 -0.2563  0.8451
 4693TIP3    H235495   1.174   4.552   2.423 -0.1248  0.1366  0.6909
 4694TIP3   OH235496   2.529   2.267  12.220  0.3729  0.2849  0.1345
 4694TIP3    H135497   2.566   2.285  12.134  0.6726  0.0203  0.2040
 4694TIP3    H235498   2.480   2.346  12.242  0.4751  0.4386 -0.1844
 4695TIP3   OH235499   0.836   2.726   5.194 -0.1342  0.5768 -0.4469
 4695TIP3    H135500   0.872   2.679   5.269 -0.3107 -0.6056 -1.0768
 4695TIP3    H235501   0.901   2.795   5.175  0.6873 -0.1051 -0.1779
 4696TIP3   OH235502   5.231   0.547  13.732 -0.3592  0.5995 -0.1557
 4696TIP3    H135503   5.260   0.571  13.820  1.6624 -0.0754 -0.5962
 4696TIP3    H235504   5.149   0.500  13.746  1.3155 -2.0244  1.6847
 4697TIP3   OH235505   6.105   2.122  11.316 -0.1003 -0.3365  0.0975
 4697TIP3    H135506   6.070   2.098  11.401 -0.5853  0.3426  0.0948
 4697TIP3    H235507   6.111   2.217  11.318  0.3030 -0.3468 -0.4626
 4698TIP3   OH235508   5.961   4.398   2.773  0.1562 -0.7738  0.5902
 4698TIP3    H135509   5.939   4.431   2.686  2.2328 -4.0998 -1.4179
 4698TIP3    H235510   5.883   4.350   2.802 -0.0559 -0.8765 -0.1441
 4699TIP3   OH235511   5.112   4.127   5.051  0.1323 -0.2040 -0.2641
 4699TIP3    H135512   5.191   4.180   5.050  0.8088 -1.0874 -2.9928
 4699TIP3    H235513   5.050   4.174   4.995  0.0469 -1.2724 -1.1012
 4700TIP3   OH235514   0.532   2.297   0.754 -0.2673  0.0491 -0.4234
 4700TIP3    H135515   0.598   2.228   0.758 -0.7342 -0.4980 -1.6889
 4700TIP3    H235516   0.528   2.331   0.844  0.3612 -1.1927  0.1065
 4701TIP3   OH235517   1.898   3.635  17.073  0.0364 -1.0388 -0.2002
 4701TIP3    H135518   1.940   3.558  17.034 -0.7303 -2.3430  1.4135
 4701TIP3    H235519   1.815   3.602  17.106 -0.9084  0.8103 -0.6124
 4702TIP3   OH235520   5.013   3.765  13.109 -0.6122  0.0688  1.0874
 4702TIP3    H135521   4.928   3.788  13.147 -1.8751 -2.1082 -0.1812
 4702TIP3    H235522   5.016   3.669  13.114  1.6008  0.0600  0.7072
 4703TIP3   OH235523   5.775   1.235  10.991 -0.2237  0.9469  0.2460
 4703TIP3    H135524   5.773   1.161  10.930 -0.0028  0.4844  0.7911
 4703TIP3    H235525   5.795   1.311  10.936 -1.2660  0.7403 -0.4464
 4704TIP3   OH235526   4.503   6.075  17.159 -0.4733  1.0694  0.0886
 4704TIP3    H135527   4.456   6.083  17.076  0.5985  0.9231 -0.5514
 4704TIP3    H235528   4.513   6.165  17.190 -0.7066  1.1381 -0.0321
 4705TIP3   OH235529   1.043   2.639  15.480  0.0779 -0.0101 -0.0830
 4705TIP3    H135530   1.004   2.587  15.410  0.8196 -0.8365  0.1061
 4705TIP3    H235531   0.972   2.650  15.543 -0.7133  1.0801 -1.1254
 4706TIP3   OH235532   1.378   1.488   0.517 -0.0421 -0.5144  0.4482
 4706TIP3    H135533   1.366   1.395   0.535 -2.1067 -0.0271  1.9802
 4706TIP3    H235534   1.297   1.514   0.472 -0.2785  0.8769  1.6148
 4707TIP3   OH235535   3.090   4.650   2.589  0.0172  0.6433 -0.0105
 4707TIP3    H135536   3.113   4.743   2.587  0.7625  0.4592 -0.6810
 4707TIP3    H235537   3.059   4.634   2.678  0.5699  1.3789  0.3206
 4708TIP3   OH235538   1.546   2.171  12.834 -0.2101  0.5517  0.3785
 4708TIP3    H135539   1.468   2.137  12.790 -0.6183 -0.9870  2.1762
 4708TIP3    H235540   1.607   2.098  12.835  1.8230  2.0275 -1.9896
 4709TIP3   OH235541   6.137   1.575   1.096 -0.3668 -0.4299 -0.1740
 4709TIP3    H135542   6.101   1.663   1.090  0.7093 -0.0332 -1.0154
 4709TIP3    H235543   6.213   1.584   1.152 -1.7088 -1.3386  1.9174
 4710TIP3   OH235544   3.935   1.897   2.770 -0.4320 -0.0405  0.2477
 4710TIP3    H135545   3.915   1.878   2.678 -1.4681 -1.0192  0.6381
 4710TIP3    H235546   4.016   1.948   2.767 -0.8269  0.5731 -1.2420
 4711TIP3   OH235547   5.915   5.455  14.041  0.6850 -0.1815  0.5385
 4711TIP3    H135548   5.897   5.389  14.108 -0.2240  0.5214  1.0145
 4711TIP3    H235549   5.992   5.422  13.995  1.0752 -0.9036  1.6527
 4712TIP3   OH235550   6.408   2.854   0.425  0.1441 -0.5285 -0.2500
 4712TIP3    H135551   6.318   2.874   0.449  0.6628  0.7526  0.7333
 4712TIP3    H235552   6.410   2.857   0.330 -0.0481  3.3686 -0.2595
 4713TIP3   OH235553   0.497   5.734   2.279 -0.1956  0.4805  0.0507
 4713TIP3    H135554   0.458   5.706   2.196  1.1742 -0.3424 -0.3345
 4713TIP3    H235555   0.580   5.774   2.254  2.0452 -3.0509  1.1876
 4714TIP3   OH235556   2.000   3.498  15.952 -0.5665  0.8184 -0.2978
 4714TIP3    H135557   2.014   3.404  15.944  0.7290  0.9486  0.2210
 4714TIP3    H235558   1.987   3.528  15.862  3.4503  0.7440 -1.1021
 4715TIP3   OH235559   4.045   0.828   4.267 -0.4564 -0.3141  0.2133
 4715TIP3    H135560   4.116   0.804   4.326 -0.2050 -1.3869 -0.4916
 4715TIP3    H235561   4.015   0.744   4.230 -0.0851  0.3740 -1.7513
 4716TIP3   OH235562   2.249   6.058  11.556  0.4732  0.5009  0.2629
 4716TIP3    H135563   2.330   6.008  11.552 -0.2100 -0.5809 -0.4090
 4716TIP3    H235564   2.274   6.146  11.528  1.2580 -0.0346 -0.7946
 4717TIP3   OH235565   2.260   3.655   0.168 -0.3852 -0.4332 -0.0872
 4717TIP3    H135566   2.214   3.702   0.099  2.2189  3.4112  0.4470
 4717TIP3    H235567   2.258   3.715   0.243  0.5235 -2.5857  1.7685
 4718TIP3   OH235568   1.502   0.203   0.449 -0.1182  0.0876  1.0131
 4718TIP3    H135569   1.433   0.213   0.384 -0.5651 -2.6368  0.9668
 4718TIP3    H235570   1.549   0.124   0.422  0.8300 -0.0766  2.9751
 4719TIP3   OH235571   5.494   0.310  16.227 -0.0040  0.6263  0.2525
 4719TIP3    H135572   5.494   0.360  16.309 -0.1384  1.5081 -0.2715
 4719TIP3    H235573   5.433   0.238  16.243 -0.4365  1.0928  0.7535
 4720TIP3   OH235574   2.939   2.345   5.559 -0.4874  0.4816  0.3853
 4720TIP3    H135575   3.034   2.341   5.554 -0.4176 -0.3765  1.8876
 4720TIP3    H235576   2.909   2.258   5.531 -0.9387  1.1826 -1.4581
 4721TIP3   OH235577   0.593   2.060  11.125  0.3236 -0.6088  0.7224
 4721TIP3    H135578   0.522   2.030  11.181 -0.7286  1.2159  0.4470
 4721TIP3    H235579   0.549   2.104  11.052  1.7074 -1.2520 -0.5692
 4722TIP3   OH235580   5.480   1.093   1.688 -0.5391 -0.0266 -0.4698
 4722TIP3    H135581   5.502   1.025   1.752  0.1604  1.2010  0.6205
 4722TIP3    H235582   5.517   1.061   1.606  2.3912  0.3558  0.5989
 4723TIP3   OH235583   1.662   2.148   2.028 -0.2407  0.1290  0.2427
 4723TIP3    H135584   1.601   2.079   2.004 -1.6460  0.3814  2.7571
 4723TIP3    H235585   1.702   2.175   1.945 -2.2654 -1.2379 -1.2616
 4724TIP3   OH235586   0.413   5.310   0.468  0.3017 -0.2429  0.1409
 4724TIP3    H135587   0.398   5.404   0.453  2.3790 -0.0777 -1.3650
 4724TIP3    H235588   0.325   5.273   0.477 -0.5542  1.9420  1.6214
 4725TIP3   OH235589   6.423   0.640   0.925  0.8725 -0.1681  0.5785
 4725TIP3    H135590   6.347   0.628   0.868  2.5138 -2.8715 -1.2689
 4725TIP3    H235591   6.385   0.658   1.012 -1.7801  0.4563 -0.6052
 4726TIP3   OH235592   1.074   4.076  12.885  0.2388  0.0149 -0.3470
 4726TIP3    H135593   1.111   4.082  12.973 -0.9585 -3.1436  0.5353
 4726TIP3    H235594   1.145   4.102  12.827  1.1300  1.9689  1.5103
 4727TIP3   OH235595   4.272   2.260   2.691  0.1149 -0.2927 -0.0313
 4727TIP3    H135596   4.300   2.239   2.602 -0.0278  0.8578 -0.3635
 4727TIP3    H235597   4.347   2.306   2.729  0.0720 -0.5377  0.3573
 4728TIP3   OH235598   5.365   4.249   0.311  0.1946  0.4733 -0.1101
 4728TIP3    H135599   5.387   4.224   0.221  0.1502  1.1887 -0.3260
 4728TIP3    H235600   5.301   4.320   0.301  0.1873  0.5550  0.4849
 4729TIP3   OH235601   4.928   3.980   5.784  0.0025 -0.1857  0.2303
 4729TIP3    H135602   5.011   4.003   5.826  0.7594 -0.5876 -0.9880
 4729TIP3    H235603   4.902   3.898   5.826 -0.4013  0.5369  1.4399
 4730TIP3   OH235604   5.639   2.919  11.412  0.1309  0.5206  0.0719
 4730TIP3    H135605   5.628   2.950  11.322  1.6816  1.4835  0.1624
 4730TIP3    H235606   5.697   2.985  11.453  0.4765 -0.5546  1.4019
 4731TIP3   OH235607   4.742   3.272   3.796 -0.0209  0.7619  0.1437
 4731TIP3    H135608   4.696   3.347   3.833 -1.4669  0.6070 -1.2158
 4731TIP3    H235609   4.695   3.253   3.714  1.2104 -0.7132 -0.2704
 4732TIP3   OH235610   3.949   3.347   5.806  0.5182  0.1277  0.0151
 4732TIP3    H135611   3.975   3.309   5.722  0.2175  1.3121 -0.6394
 4732TIP3    H235612   3.896   3.279   5.848  1.4264 -0.8215 -0.3491
 4733TIP3   OH235613   5.240   4.938  13.608 -0.1497  0.6018  0.2775
 4733TIP3    H135614   5.270   4.902  13.691 -1.5703  0.9057  0.9480
 4733TIP3    H235615   5.145   4.929  13.610 -0.2706  1.2782 -1.0042
 4734TIP3   OH235616   1.138   4.551  13.678 -0.7582  0.0948  0.4238
 4734TIP3    H135617   1.197   4.622  13.701 -2.1111  1.1581  0.7583
 4734TIP3    H235618   1.151   4.537  13.584  2.9079 -2.4866  1.0811
 4735TIP3   OH235619   2.742   1.393   0.205  0.4304 -0.3622  0.1872
 4735TIP3    H135620   2.775   1.476   0.240 -1.0485  0.0874  0.5993
 4735TIP3    H235621   2.747   1.404   0.110  0.4591  0.1072  0.2388
 4736TIP3   OH235622   0.868   5.718   1.885  0.2309  0.3256  0.2666
 4736TIP3    H135623   0.823   5.783   1.831  1.6860  0.3688 -0.9563
 4736TIP3    H235624   0.829   5.634   1.860  1.0916  0.3120 -1.1197
 4737TIP3   OH235625   5.840   0.324  14.919 -0.0349  0.1051 -0.4356
 4737TIP3    H135626   5.882   0.393  14.971  1.4229  0.0133 -1.4410
 4737TIP3    H235627   5.748   0.351  14.914  0.4602  1.8873 -0.6509
 4738TIP3   OH235628   1.324   5.423   5.902  0.0155  0.1959 -0.5913
 4738TIP3    H135629   1.282   5.417   5.816 -0.0577  0.6337 -0.5889
 4738TIP3    H235630   1.256   5.459   5.959  0.3723  0.8516 -0.5713
 4739TIP3   OH235631   6.200   3.438  11.935 -0.1556  0.2435  0.0644
 4739TIP3    H135632   6.187   3.351  11.973  0.4327 -0.3084 -0.9406
 4739TIP3    H235633   6.137   3.442  11.863 -2.1021  1.7376  1.7197
 4740TIP3   OH235634   5.966   4.265   4.460 -0.0824 -0.5095  0.2404
 4740TIP3    H135635   5.930   4.181   4.432 -1.2465 -0.1388  0.5585
 4740TIP3    H235636   5.932   4.278   4.548  0.0068  0.3406  0.1646
 4741TIP3   OH235637   5.992   6.040   4.906  0.0279  0.1258 -0.1358
 4741TIP3    H135638   6.024   5.951   4.921 -2.5081 -0.9888 -0.8249
 4741TIP3    H235639   5.910   6.028   4.858 -1.2134  2.7666  1.1262
 4742TIP3   OH235640   2.786   1.605  13.283 -0.2621 -0.2368  0.5379
 4742TIP3    H135641   2.774   1.533  13.222  1.1166  0.1701 -0.2646
 4742TIP3    H235642   2.732   1.676  13.248 -1.4181 -0.7817  1.1872
 4743TIP3   OH235643   4.340   4.236   5.495  0.2382 -0.5267 -0.0935
 4743TIP3    H135644   4.358   4.305   5.558 -0.0382 -0.5669  0.0326
 4743TIP3    H235645   4.279   4.177   5.540  1.3122 -1.4528  0.2010
 4744TIP3   OH235646   3.358   6.312  11.533  0.1599 -0.2636 -0.0627
 4744TIP3    H135647   3.444   6.271  11.522 -0.1746 -0.8420 -0.5570
 4744TIP3    H235648   3.372   6.377  11.602  1.4672  0.9501 -1.3738
 4745TIP3   OH235649   6.079   6.067   4.627  0.0415  0.0659 -0.6483
 4745TIP3    H135650   6.154   6.124   4.607  0.6296 -0.4034  0.1804
 4745TIP3    H235651   6.053   6.091   4.716  0.3217 -0.9714 -0.2721
 4746TIP3   OH235652   2.502   3.088   5.484  0.1054 -0.0585  0.2130
 4746TIP3    H135653   2.448   3.166   5.496 -1.0188 -0.4848 -1.5647
 4746TIP3    H235654   2.555   3.107   5.406  0.0412 -0.9285 -0.0545
 4747TIP3   OH235655   0.611   4.575  12.549  0.6062 -0.1421  0.0573
 4747TIP3    H135656   0.542   4.630  12.586  0.7683  0.0940  0.0102
 4747TIP3    H235657   0.616   4.600  12.457  1.9676  1.1256  0.4473
 4748TIP3   OH235658   6.549   5.432   1.333 -0.4969 -0.2704  0.0921
 4748TIP3    H135659   6.597   5.513   1.348  0.1622 -0.9273  1.7240
 4748TIP3    H235660   6.616   5.363   1.336 -0.4254 -0.7347 -4.7387
 4749TIP3   OH235661   5.506   5.429   1.075 -0.3041 -0.0958 -0.2047
 4749TIP3    H135662   5.550   5.374   1.010 -1.6235  0.7285 -1.8700
 4749TIP3    H235663   5.497   5.373   1.152  1.0767 -1.1854 -0.7928
 4750TIP3   OH235664   3.349   1.285  14.477 -0.0376 -0.5436  0.4113
 4750TIP3    H135665   3.365   1.216  14.541 -0.5900 -1.4297 -0.3725
 4750TIP3    H235666   3.283   1.248  14.418  1.1954 -0.1856 -1.2811
 4751TIP3   OH235667   6.341   1.072  15.147 -1.3951 -0.1975 -0.3669
 4751TIP3    H135668   6.321   0.983  15.119  1.5571 -0.8203 -0.8379
 4751TIP3    H235669   6.330   1.125  15.068  0.0954 -0.7648 -0.9891
 4752TIP3   OH235670   4.600   2.282   3.901  0.1276 -0.1316  0.2474
 4752TIP3    H135671   4.647   2.338   3.962  0.0087  0.9176 -0.5694
 4752TIP3    H235672   4.531   2.339   3.865 -0.5398 -1.0575  0.0053
 4753TIP3   OH235673   4.749   1.264   4.187 -0.1337  0.5917  0.2268
 4753TIP3    H135674   4.690   1.197   4.221 -0.1179  0.4699  0.0152
 4753TIP3    H235675   4.818   1.272   4.254  0.7291 -0.7405 -0.4588
 4754TIP3   OH235676   1.795   3.998   5.230 -0.2048 -0.3360 -0.7804
 4754TIP3    H135677   1.716   3.997   5.284  1.0468 -1.2948  1.1480
 4754TIP3    H235678   1.792   4.083   5.186 -2.5174 -0.5339 -1.1471
 4755TIP3   OH235679   1.769   2.417   4.981 -0.3980  0.4314  0.0753
 4755TIP3    H135680   1.783   2.340   4.924 -0.0262  1.0351 -0.6722
 4755TIP3    H235681   1.677   2.439   4.969 -0.3701  0.4353 -0.1487
 4756TIP3   OH235682   0.585   6.265  13.083  0.0928  0.0669 -0.6624
 4756TIP3    H135683   0.523   6.332  13.053  0.9350  0.2077 -2.2606
 4756TIP3    H235684   0.671   6.299  13.054  0.7380 -0.8097  0.1881
 4757TIP3   OH235685   6.253   3.770   3.910 -0.5024 -0.0810 -0.2065
 4757TIP3    H135686   6.320   3.788   3.977  1.1257 -2.2720 -1.1467
 4757TIP3    H235687   6.182   3.728   3.958  0.0161 -0.2972  0.3932
 4758TIP3   OH235688   1.304   2.928  12.923  0.4342  0.1143 -0.6526
 4758TIP3    H135689   1.280   2.838  12.943 -0.1434  0.1365 -1.2205
 4758TIP3    H235690   1.331   2.965  13.008 -0.8054 -0.1510 -0.1125
 4759TIP3   OH235691   5.796   1.953  16.052  0.3867  0.3624  0.9758
 4759TIP3    H135692   5.846   1.997  15.984 -0.2907 -2.5157 -1.5674
 4759TIP3    H235693   5.859   1.896  16.096 -0.1420 -2.1415 -1.2479
 4760TIP3   OH235694   4.329   3.156   3.365 -0.1529  0.1375 -0.2536
 4760TIP3    H135695   4.317   3.074   3.318 -0.3263  0.4304 -0.7338
 4760TIP3    H235696   4.330   3.223   3.296 -2.4854  0.8109  0.2575
 4761TIP3   OH235697   3.998   3.385   2.314 -0.7208 -0.2101 -0.2211
 4761TIP3    H135698   3.998   3.479   2.295  0.7054  0.2247  1.6855
 4761TIP3    H235699   3.941   3.375   2.390 -0.2398 -0.7770  0.0750
 4762TIP3   OH235700   6.710   6.635   0.214  0.7549  0.4280  0.1341
 4762TIP3    H135701   6.717   6.685   0.133 -1.0478  1.2886  0.4471
 4762TIP3    H235702   6.651   6.563   0.193 -0.4265  1.1450  0.8596
 4763TIP3   OH235703   1.653   4.082   0.390 -0.7141  0.6383 -0.6549
 4763TIP3    H135704   1.615   4.011   0.338 -0.7396  0.5980 -0.5810
 4763TIP3    H235705   1.597   4.088   0.467 -0.4483  0.4366 -0.4424
 4764TIP3   OH235706   2.468   4.994  11.540  0.5980  0.1852 -0.5046
 4764TIP3    H135707   2.446   5.053  11.611  1.1369  0.8855 -0.9108
 4764TIP3    H235708   2.535   4.936  11.576 -0.6438 -0.8785  0.2131
 4765TIP3   OH235709   1.269   0.487  12.593 -0.1231 -0.3270  0.1658
 4765TIP3    H135710   1.326   0.557  12.625 -0.7906  0.0699  0.4980
 4765TIP3    H235711   1.294   0.477  12.501 -0.9655  1.3162 -0.2754
 4766TIP3   OH235712   3.090   5.229  16.061 -0.0189 -0.0849  0.4120
 4766TIP3    H135713   3.031   5.155  16.046 -1.1527  0.7983  0.3729
 4766TIP3    H235714   3.168   5.190  16.100 -1.3164 -1.1057  2.1437
 4767TIP3   OH235715   1.606   5.587  12.005 -0.2251  0.1970  0.2569
 4767TIP3    H135716   1.522   5.543  12.020 -0.7035  0.9306 -0.1856
 4767TIP3    H235717   1.643   5.599  12.092 -0.2636 -0.7262  0.4067
 4768TIP3   OH235718   1.546   1.152   0.980 -0.0305 -0.1314 -0.1550
 4768TIP3    H135719   1.563   1.230   0.928 -1.4073  1.0562  1.0660
 4768TIP3    H235720   1.592   1.167   1.062  0.7672 -1.2342 -0.3743
 4769TIP3   OH235721   5.015   1.944  13.883 -0.1653 -0.1660  0.2312
 4769TIP3    H135722   4.946   1.926  13.819  0.7697 -2.5478 -0.2203
 4769TIP3    H235723   5.011   1.870  13.944  2.9295 -1.3000 -0.7351
 4770TIP3   OH235724   4.959   6.429   5.758 -0.4546  0.4420 -0.2932
 4770TIP3    H135725   4.941   6.335   5.749  0.8137  0.0453  0.8788
 4770TIP3    H235726   4.885   6.463   5.807  0.3358 -0.5388  1.7111
 4771TIP3   OH235727   1.194   5.338   3.585  0.2170 -0.0602  0.6616
 4771TIP3    H135728   1.159   5.378   3.664 -1.0297 -3.3877  1.9955
 4771TIP3    H235729   1.137   5.263   3.568  1.9688 -0.9866 -1.9151
 4772TIP3   OH235730   5.004   2.506  14.573  0.2117 -0.0655  1.0261
 4772TIP3    H135731   5.033   2.583  14.524 -0.0402 -0.7657 -0.2632
 4772TIP3    H235732   4.927   2.536  14.622 -0.2650  0.3596  0.0386
 4773TIP3   OH235733   5.087   5.188   4.709 -0.6012 -0.0901  0.0624
 4773TIP3    H135734   5.005   5.146   4.737 -2.1983  1.6930 -1.6075
 4773TIP3    H235735   5.155   5.148   4.763 -2.5344 -1.8693  1.3036
 4774TIP3   OH235736   1.984   5.404  11.568  0.2626  0.3124 -0.2331
 4774TIP3    H135737   1.946   5.434  11.485  0.7674  0.2706 -0.4831
 4774TIP3    H235738   1.919   5.429  11.634  0.0514  0.7316 -0.5913
 4775TIP3   OH235739   1.420   3.268   4.266  0.4596  0.0156  0.2130
 4775TIP3    H135740   1.411   3.361   4.287 -1.9564 -0.1035  0.0014
 4775TIP3    H235741   1.494   3.264   4.204  1.4117  1.5948  1.1865
 4776TIP3   OH235742   5.831   4.900  16.662  0.5863  0.3537  0.3179
 4776TIP3    H135743   5.738   4.900  16.682  0.5489 -3.3054  0.9132
 4776TIP3    H235744   5.835   4.909  16.567 -0.2906  1.3218  0.3554
 4777TIP3   OH235745   6.169   2.202   5.024 -0.2158 -0.3386 -0.7528
 4777TIP3    H135746   6.107   2.227   4.956  0.3365 -0.4406 -1.3046
 4777TIP3    H235747   6.224   2.279   5.037 -0.8129 -0.0546  0.1430
 4778TIP3   OH235748   5.605   0.094  16.632  0.1636  0.9470 -0.4091
 4778TIP3    H135749   5.660   0.076  16.555  1.2140  0.2581  0.4852
 4778TIP3    H235750   5.590   0.188  16.629  1.6929  1.2038 -0.4880
 4779TIP3   OH235751   5.804   1.245  13.230  0.4073  0.3139  0.1044
 4779TIP3    H135752   5.895   1.275  13.226  0.0578  1.2642 -1.6207
 4779TIP3    H235753   5.753   1.320  13.200 -0.9023 -0.4597  0.3117
 4780TIP3   OH235754   6.471   0.919  13.188 -0.0038 -0.0746  0.5204
 4780TIP3    H135755   6.497   0.959  13.271 -1.0459 -0.4871  1.0763
 4780TIP3    H235756   6.399   0.974  13.157  0.7468  0.4078 -0.4205
 4781TIP3   OH235757   3.236   1.581  13.107 -0.2690  0.2802  0.5761
 4781TIP3    H135758   3.192   1.616  13.185 -2.5217  0.5801 -0.7393
 4781TIP3    H235759   3.287   1.654  13.073  0.0191  0.4046  1.2549
 4782TIP3   OH235760   3.215   0.664   1.548  0.1955 -0.0668 -0.5503
 4782TIP3    H135761   3.161   0.586   1.562  1.0476 -0.2770  2.0737
 4782TIP3    H235762   3.294   0.631   1.506 -0.2331 -0.2854 -1.2082
 4783TIP3   OH235763   6.697   4.184   2.805 -0.5654 -0.4698 -0.3266
 4783TIP3    H135764   6.622   4.172   2.747 -0.4041 -1.7770 -0.2971
 4783TIP3    H235765   6.751   4.250   2.760  0.1656 -2.3103 -2.3401
 4784TIP3   OH235766   2.362   6.785   3.649  0.0163  0.1653  0.4780
 4784TIP3    H135767   2.377   6.693   3.672 -1.5246 -0.2408 -0.0465
 4784TIP3    H235768   2.268   6.796   3.657  0.3301  2.1898  2.2264
 4785TIP3   OH235769   3.113   0.517  16.075  0.0728  0.1108  0.0830
 4785TIP3    H135770   3.198   0.523  16.032 -0.9362  0.1419 -2.0709
 4785TIP3    H235771   3.131   0.475  16.159  2.1940  0.1061 -0.3254
 4786TIP3   OH235772   1.345   3.142  11.129 -0.5298  0.4030  0.3373
 4786TIP3    H135773   1.342   3.055  11.169 -1.4191  0.1399 -0.2570
 4786TIP3    H235774   1.370   3.125  11.038  0.0478  0.8485  0.4112
 4787TIP3   OH235775   2.911   1.785  12.458  0.5157 -0.2489  0.2939
 4787TIP3    H135776   2.872   1.815  12.540 -1.1298  0.7366 -0.7807
 4787TIP3    H235777   2.893   1.691  12.455  0.4480 -0.2607  0.9972
 4788TIP3   OH235778   4.793   1.586  13.277 -0.1630  0.2972  0.4537
 4788TIP3    H135779   4.758   1.628  13.355  2.0317  0.1094  1.6167
 4788TIP3    H235780   4.781   1.650  13.207 -0.3069  1.3218  1.3872
 4789TIP3   OH235781   5.712   3.275   0.913 -0.6347  0.1795 -0.3133
 4789TIP3    H135782   5.736   3.235   0.830 -0.0534 -0.9023  0.3507
 4789TIP3    H235783   5.736   3.210   0.979 -0.0151  1.4633  0.7905
 4790TIP3   OH235784   1.378   2.656   1.063 -0.7523 -0.3322  0.6186
 4790TIP3    H135785   1.306   2.595   1.079 -3.7256  2.4723 -1.1475
 4790TIP3    H235786   1.405   2.638   0.973  0.0879 -0.6226  0.9126
 4791TIP3   OH235787   5.160   3.258  17.010 -0.0679  0.5231 -0.0051
 4791TIP3    H135788   5.144   3.323  17.079  0.7181 -0.2032  0.8858
 4791TIP3    H235789   5.090   3.273  16.946 -1.2876  0.6979  1.3237
 4792TIP3   OH235790   3.505   4.320   5.600 -0.5167  0.7952  0.3963
 4792TIP3    H135791   3.436   4.257   5.623  0.0094  0.2628  0.5547
 4792TIP3    H235792   3.525   4.302   5.508  1.1764 -0.8283  1.0071
 4793TIP3   OH235793   0.356   4.210   5.269 -0.6130 -0.3738  0.5071
 4793TIP3    H135794   0.345   4.242   5.358 -0.0682 -1.8427  1.1452
 4793TIP3    H235795   0.450   4.197   5.260 -0.6619 -0.2053 -0.2990
 4794TIP3   OH235796   5.821   0.727  15.721 -0.0263  0.4312  0.5061
 4794TIP3    H135797   5.759   0.744  15.792  1.6167 -1.3335  2.5438
 4794TIP3    H235798   5.876   0.656  15.755  2.5330  1.2955 -1.5038
 4795TIP3   OH235799   0.298   6.054   3.345  0.0677  0.2997 -0.4337
 4795TIP3    H135800   0.391   6.055   3.326  0.1145  0.8291 -0.2086
 4795TIP3    H235801   0.293   6.026   3.436 -0.0302 -0.3127 -0.6277
 4796TIP3   OH235802   5.737   1.710  16.220 -0.8078  0.5749  0.0689
 4796TIP3    H135803   5.821   1.699  16.175 -0.6751  1.8437 -0.0173
 4796TIP3    H235804   5.673   1.715  16.150 -1.0220 -0.7541  0.1446
 4797TIP3   OH235805   3.958   5.423  12.857  0.0478 -0.0934 -0.1575
 4797TIP3    H135806   4.005   5.363  12.915  1.5455  1.8115  0.6993
 4797TIP3    H235807   4.027   5.473  12.814 -1.1401  0.4685 -1.4713
 4798TIP3   OH235808   0.749   5.283  11.874  0.3025  0.1298 -0.2058
 4798TIP3    H135809   0.737   5.303  11.967 -0.7510 -1.1602 -0.0279
 4798TIP3    H235810   0.661   5.293  11.837  0.7083  0.5665 -1.0613
 4799TIP3   OH235811   6.093   0.063  11.483  0.1746 -0.1649 -0.8498
 4799TIP3    H135812   6.059   0.027  11.401 -0.3704  1.8356 -1.5761
 4799TIP3    H235813   6.049   0.148  11.492  1.8387  0.6265  0.3805
 4800TIP3   OH235814   2.399   5.576  15.058 -0.5527 -0.3849  0.1984
 4800TIP3    H135815   2.361   5.529  15.132 -1.0508  1.9249  1.5096
 4800TIP3    H235816   2.340   5.650  15.043  0.6783  0.3932 -1.1087
 4801TIP3   OH235817   4.779   1.070   2.982 -0.2367 -0.1794 -0.0256
 4801TIP3    H135818   4.837   1.084   2.907 -1.2532  0.4365 -0.7283
 4801TIP3    H235819   4.715   1.141   2.977  0.2839  0.5223  2.0690
 4802TIP3   OH235820   3.155   0.498   3.093  0.3548  0.2498  0.4060
 4802TIP3    H135821   3.177   0.580   3.049 -0.8977  1.0694  1.2456
 4802TIP3    H235822   3.171   0.430   3.027  1.4831  1.1486 -0.2756
 4803TIP3   OH235823   5.669   4.392  13.063 -0.3936 -0.0712 -0.1433
 4803TIP3    H135824   5.598   4.329  13.069  0.1257 -0.7579 -0.9404
 4803TIP3    H235825   5.627   4.477  13.074 -1.2778 -0.4879 -0.2218
 4804TIP3   OH235826   1.989   3.800  11.491 -0.0445  0.2679  0.4811
 4804TIP3    H135827   2.073   3.840  11.467 -1.0406  1.7080 -0.7683
 4804TIP3    H235828   1.991   3.798  11.587  1.3723  0.3342  0.4855
 4805TIP3   OH235829   6.614   5.716   4.860  0.0954 -0.1381 -0.1882
 4805TIP3    H135830   6.535   5.678   4.822 -0.6669  0.0190  1.1676
 4805TIP3    H235831   6.642   5.653   4.925  2.6593 -1.4744 -2.3870
 4806TIP3   OH235832   5.866   0.501  13.224  0.4826  0.1189 -0.1433
 4806TIP3    H135833   5.783   0.548  13.232  1.5782  2.0535  0.6508
 4806TIP3    H235834   5.891   0.512  13.133  0.1669  0.0517 -0.2399
 4807TIP3   OH235835   1.327   2.944  13.212 -0.1085 -0.1553 -0.3794
 4807TIP3    H135836   1.375   2.912  13.288 -1.3114 -0.3410  0.3342
 4807TIP3    H235837   1.264   2.875  13.193 -0.6875  0.4621 -0.7358
 4808TIP3   OH235838   6.251   4.705  13.161  0.2083 -0.4941  0.1037
 4808TIP3    H135839   6.233   4.640  13.229  0.1592  0.7442  1.3242
 4808TIP3    H235840   6.338   4.681  13.128  0.5031 -0.7795  1.0405
 4809TIP3   OH235841   4.703   6.649  14.119 -0.2439 -0.3762  0.4447
 4809TIP3    H135842   4.733   6.655  14.028 -0.0815 -0.7019  0.4754
 4809TIP3    H235843   4.609   6.668  14.115 -0.2780 -0.5988  0.1793
 4810TIP3   OH235844   3.857   3.289  16.559  0.1576 -0.5421  0.4135
 4810TIP3    H135845   3.895   3.328  16.480  0.1624  1.5489  1.4008
 4810TIP3    H235846   3.919   3.310  16.629 -0.4530 -1.2855  1.2078
 4811TIP3   OH235847   1.378   4.884  16.688 -0.2817 -0.0516 -0.2462
 4811TIP3    H135848   1.408   4.812  16.744  1.0280  1.0571  0.5625
 4811TIP3    H235849   1.437   4.882  16.613 -0.6729 -0.2218 -0.5532
 4812TIP3   OH235850   4.470   6.064   4.791  0.2055  0.4421  0.8299
 4812TIP3    H135851   4.438   6.081   4.880  1.0822  0.0185  1.2384
 4812TIP3    H235852   4.441   6.140   4.740 -0.4332  0.6204  1.4359
 4813TIP3   OH235853   3.713   6.087   2.854  0.6176  0.0933  0.0102
 4813TIP3    H135854   3.773   6.111   2.924  0.5045  2.1673 -0.5466
 4813TIP3    H235855   3.626   6.092   2.893  0.5721  0.9914 -0.1863
 4814TIP3   OH235856   2.273   2.867  12.808  0.0935  0.4363 -0.4436
 4814TIP3    H135857   2.309   2.832  12.726  1.0421 -0.7678  0.4442
 4814TIP3    H235858   2.343   2.922  12.843  0.1008  0.1079  0.0606
 4815TIP3   OH235859   5.690   0.246  13.132 -0.3254  0.0753  0.3668
 4815TIP3    H135860   5.691   0.255  13.228  0.4573 -0.6270  0.4398
 4815TIP3    H235861   5.771   0.199  13.112 -0.9404 -0.6243 -0.5592
 4816TIP3   OH235862   4.515   2.083   5.698 -0.3588 -0.2832 -0.3201
 4816TIP3    H135863   4.423   2.097   5.716  0.0514  1.0045  0.9086
 4816TIP3    H235864   4.526   1.988   5.702 -1.9676 -0.6502 -2.4538
 4817TIP3   OH235865   3.749   2.594   3.604 -0.3264 -0.2365 -0.1467
 4817TIP3    H135866   3.791   2.631   3.682 -0.4444  1.9143 -1.0170
 4817TIP3    H235867   3.657   2.587   3.628 -0.5337  1.3531 -0.3595
 4818TIP3   OH235868   2.019   2.004   1.390 -0.5730  0.5156 -0.7540
 4818TIP3    H135869   2.043   2.053   1.468 -0.4938 -0.1333 -0.3698
 4818TIP3    H235870   1.973   1.927   1.422  1.6306 -1.0672 -1.1549
 4819TIP3   OH235871   3.502   4.078  15.288  0.0144  0.8576 -0.3136
 4819TIP3    H135872   3.458   4.138  15.228 -1.2386  0.0053 -0.2896
 4819TIP3    H235873   3.460   3.993  15.272  2.2064 -0.1760 -0.8348
 4820TIP3   OH235874   6.401   2.194   2.382 -0.0857 -0.6647 -0.1827
 4820TIP3    H135875   6.442   2.198   2.296 -0.7345  1.7446 -0.4572
 4820TIP3    H235876   6.470   2.224   2.442  0.1629 -1.7166  0.0728
 4821TIP3   OH235877   2.338   0.263  17.037  0.2812  0.3522  0.3315
 4821TIP3    H135878   2.246   0.243  17.024 -0.3127  1.1231  2.7479
 4821TIP3    H235879   2.349   0.351  17.001  0.7232 -0.6461 -2.1464
 4822TIP3   OH235880   0.331   0.411   2.228 -0.5919 -0.2088 -0.1162
 4822TIP3    H135881   0.254   0.359   2.204 -1.8257  0.9372  1.1826
 4822TIP3    H235882   0.315   0.497   2.190  0.3760 -0.1482 -0.4038
 4823TIP3   OH235883   0.295   6.040   1.860  0.2909  0.1479 -0.6072
 4823TIP3    H135884   0.330   6.113   1.808 -2.2748  2.9620  1.2303
 4823TIP3    H235885   0.321   6.060   1.949 -0.5265 -1.1764 -0.0393
 4824TIP3   OH235886   0.411   4.344   2.906  0.3098  0.9753 -0.1187
 4824TIP3    H135887   0.452   4.383   2.828  0.2080  0.7578 -0.2797
 4824TIP3    H235888   0.453   4.390   2.979 -0.1318  1.7106 -0.3138
 4825TIP3   OH235889   4.823   5.463  12.849 -0.6522  0.5580 -0.0411
 4825TIP3    H135890   4.770   5.531  12.808 -1.8481  0.5229  1.3514
 4825TIP3    H235891   4.772   5.382  12.834 -0.5135  0.3714  0.4849
 4826TIP3   OH235892   2.564   2.639   0.035 -0.3026  0.6474  0.1109
 4826TIP3    H135893   2.554   2.701  -0.037 -0.8677  0.5854  0.1252
 4826TIP3    H235894   2.525   2.683   0.110 -1.0094  0.1606  0.0433
 4827TIP3   OH235895   3.606   3.654  15.210  0.2417 -0.5322  0.7244
 4827TIP3    H135896   3.586   3.626  15.300 -0.2477  1.4128  1.2844
 4827TIP3    H235897   3.541   3.722  15.192  0.3940 -0.8156 -1.1007
 4828TIP3   OH235898   1.612   5.528   4.835  0.5047 -0.0094  0.4388
 4828TIP3    H135899   1.627   5.608   4.886  3.7273  0.5266 -1.1212
 4828TIP3    H235900   1.699   5.501   4.806 -0.6261 -3.3031 -0.3595
 4829TIP3   OH235901   2.521   2.719   5.812  0.1121 -0.1248  0.5914
 4829TIP3    H135902   2.480   2.783   5.753 -0.0502  0.8438  1.7187
 4829TIP3    H235903   2.453   2.653   5.827 -0.3217  0.3466  0.7544
 4830TIP3   OH235904   1.967   1.211  15.641 -0.2118  0.1283 -0.2085
 4830TIP3    H135905   2.014   1.289  15.612  0.3766 -1.1615 -3.0933
 4830TIP3    H235906   2.005   1.190  15.726  0.8767  1.9536 -0.1947
 4831TIP3   OH235907   4.143   6.653   1.110 -0.2419 -0.1339  0.2048
 4831TIP3    H135908   4.072   6.592   1.087  0.6160 -0.7349 -0.8913
 4831TIP3    H235909   4.127   6.730   1.056  0.2773 -0.5093 -0.4920
 4832TIP3   OH235910   1.290   1.877  12.013  0.3525 -0.0029  0.1952
 4832TIP3    H135911   1.289   1.795  11.963 -1.0328 -0.1163  0.3726
 4832TIP3    H235912   1.274   1.945  11.947 -2.9979 -0.2674  0.5761
 4833TIP3   OH235913   4.402   2.591   4.685 -0.6161 -0.4349 -0.3624
 4833TIP3    H135914   4.367   2.510   4.723  0.8708 -0.5731  0.7724
 4833TIP3    H235915   4.423   2.646   4.760  0.7545 -0.0024 -1.0377
 4834TIP3   OH235916   5.003   0.171  14.773  0.1217 -0.1407  0.0461
 4834TIP3    H135917   5.012   0.105  14.705 -0.2180 -0.4275  0.2813
 4834TIP3    H235918   4.917   0.157  14.811  1.0124 -1.2180  1.8263
 4835TIP3   OH235919   4.596   4.162  12.036  0.1999  0.4785  0.1905
 4835TIP3    H135920   4.507   4.185  12.062  0.1753  0.6478 -0.0417
 4835TIP3    H235921   4.623   4.234  11.978 -0.3496 -0.7191 -1.6343
 4836TIP3   OH235922   4.933   1.152   6.136  0.0189  0.1640 -0.2669
 4836TIP3    H135923   4.840   1.169   6.148 -0.4578 -0.4167 -2.5520
 4836TIP3    H235924   4.968   1.236   6.104  0.2436  0.3252  0.3977
 4837TIP3   OH235925   1.384   1.800  14.136  0.3548  0.2823 -0.3677
 4837TIP3    H135926   1.306   1.837  14.095 -1.0679  0.4570  2.2781
 4837TIP3    H235927   1.353   1.723  14.183  1.8417  0.1145  0.4335
 4838TIP3   OH235928   3.363   6.119   3.552  0.6616 -0.8945  0.7333
 4838TIP3    H135929   3.397   6.201   3.589  2.9037 -0.8557 -1.2062
 4838TIP3    H235930   3.384   6.054   3.619  1.7429 -0.3477  0.9687
 4839TIP3   OH235931   5.732   0.644   3.764 -0.0388 -0.3770 -0.1945
 4839TIP3    H135932   5.766   0.634   3.854 -0.6991  0.3835  0.1451
 4839TIP3    H235933   5.713   0.737   3.756 -2.3114 -0.8003 -0.2697
 4840TIP3   OH235934   4.504   2.070  11.751  0.0924 -0.3845 -0.4621
 4840TIP3    H135935   4.543   2.064  11.838 -3.8978 -1.9841  1.4436
 4840TIP3    H235936   4.482   2.162  11.741 -1.2067 -0.4727  1.1884
 4841TIP3   OH235937   3.973   2.485   4.465  0.4085  0.0606  0.5009
 4841TIP3    H135938   3.924   2.566   4.453 -0.8124 -0.8688 -1.4084
 4841TIP3    H235939   4.053   2.511   4.510  0.6781  2.5557 -1.2346
 4842TIP3   OH235940   5.058   5.725  17.109 -0.5619 -0.0863 -0.0457
 4842TIP3    H135941   5.074   5.783  17.034  3.3226 -1.7366 -0.7223
 4842TIP3    H235942   5.021   5.782  17.176  0.1320  2.4621 -1.6944
 4843TIP3   OH235943   6.310   2.441   5.119  0.0210  0.1651  0.4307
 4843TIP3    H135944   6.284   2.469   5.207 -0.5192 -1.2223  0.7312
 4843TIP3    H235945   6.392   2.489   5.102 -0.9088  2.0138  0.8399
 4844TIP3   OH235946   2.160   0.340  11.386  0.3275 -0.0936  0.0699
 4844TIP3    H135947   2.101   0.274  11.349 -1.6840  1.2485  0.7189
 4844TIP3    H235948   2.239   0.336  11.332  0.2892 -3.0024  0.1068
 4845TIP3   OH235949   3.053   5.975   3.631  0.2674 -0.0270  0.3423
 4845TIP3    H135950   3.002   5.906   3.589  0.6462 -0.6980  0.9670
 4845TIP3    H235951   3.122   5.929   3.678  1.8735  0.8693 -0.9861
 4846TIP3   OH235952   0.933   3.023   5.142 -0.0561  0.4455  0.1980
 4846TIP3    H135953   0.909   2.983   5.058 -0.0885  0.9626 -0.0421
 4846TIP3    H235954   0.967   3.109   5.118  0.1515  0.5033  0.7000
 4847TIP3   OH235955   6.588   6.124  14.613 -0.5056  0.3203 -0.0203
 4847TIP3    H135956   6.591   6.174  14.695 -1.7658  1.6645 -0.7376
 4847TIP3    H235957   6.680   6.107  14.592 -0.1852 -1.5957  2.5330
 4848TIP3   OH235958   6.365   2.311  16.817 -0.4600  0.6337 -0.3269
 4848TIP3    H135959   6.306   2.236  16.811  1.3568 -0.9665  0.7567
 4848TIP3    H235960   6.397   2.311  16.907  1.5023  1.1591 -0.9533
 4849TIP3   OH235961   2.629   0.144  12.531 -0.6671 -0.2060  0.0989
 4849TIP3    H135962   2.681   0.067  12.507  1.1420  0.7029  0.9471
 4849TIP3    H235963   2.563   0.151  12.462  2.1086  0.2754 -2.6807
 4850TIP3   OH235964   5.590   6.433   1.105  0.1328  0.8650 -0.1079
 4850TIP3    H135965   5.555   6.478   1.182 -0.0019  0.3505  0.1334
 4850TIP3    H235966   5.513   6.420   1.048  0.1064  0.6325 -0.0217
 4851TIP3   OH235967   0.021   5.567  11.262 -0.4657 -0.8202  0.0724
 4851TIP3    H135968   0.003   5.533  11.174 -1.0229 -0.2787 -0.0310
 4851TIP3    H235969   0.113   5.545  11.277  0.8564  2.3184 -2.2115
 4852TIP3   OH235970   3.135   4.670   0.227 -0.3094  0.6243  0.1219
 4852TIP3    H135971   3.049   4.711   0.215 -0.9869 -0.7107  0.2062
 4852TIP3    H235972   3.162   4.644   0.139  0.1563  1.3135  0.0568
 4853TIP3   OH235973   3.088   2.009   3.908 -0.0970 -0.2288  0.0532
 4853TIP3    H135974   3.027   1.958   3.854 -0.1575  1.3310 -1.4417
 4853TIP3    H235975   3.175   1.976   3.882 -0.1945 -1.1066  0.7731
 4854TIP3   OH235976   6.190   1.056  12.710  0.6468 -0.2473  0.0064
 4854TIP3    H135977   6.217   1.093  12.795  1.0969 -0.1684 -0.1697
 4854TIP3    H235978   6.181   0.962  12.727 -0.7162 -0.0440  0.5122
 4855TIP3   OH235979   5.178   5.600  13.421 -0.0362  0.0821 -0.1711
 4855TIP3    H135980   5.108   5.558  13.370 -0.4509  1.2385 -0.5788
 4855TIP3    H235981   5.231   5.527  13.452 -0.1745 -0.7097 -1.6682
 4856TIP3   OH235982   4.809   6.116  15.803 -0.0666  0.0357 -0.3571
 4856TIP3    H135983   4.841   6.036  15.760  0.7715  0.5813 -0.7838
 4856TIP3    H235984   4.744   6.151  15.742 -0.3191 -0.2315 -0.2441
 4857TIP3   OH235985   1.602   1.136   4.892 -0.2839  0.7072 -0.0118
 4857TIP3    H135986   1.583   1.228   4.874 -0.4724  0.5993 -0.3640
 4857TIP3    H235987   1.592   1.092   4.808 -0.4916  0.3133  0.2184
 4858TIP3   OH235988   2.485   4.001   0.140  0.0463 -0.3754  0.3542
 4858TIP3    H135989   2.562   4.052   0.164 -0.2766  0.1791  0.2094
 4858TIP3    H235990   2.451   4.042   0.061 -0.7323 -0.2621  0.7334
 4859TIP3   OH235991   4.868   2.884  14.178  0.5013  0.4552  0.7699
 4859TIP3    H135992   4.815   2.911  14.253 -1.0435  0.0216 -0.1101
 4859TIP3    H235993   4.868   2.788  14.182  1.2272  0.4511  0.7514
 4860TIP3   OH235994   3.676   6.189  12.733 -0.2428  0.6285 -0.1269
 4860TIP3    H135995   3.592   6.146  12.724 -0.4857  1.0505  0.0780
 4860TIP3    H235996   3.668   6.269  12.681 -0.0125  0.7320 -0.0078
 4861TIP3   OH235997   1.703   5.510  14.420 -0.8450 -0.0520 -0.6828
 4861TIP3    H135998   1.749   5.432  14.452 -1.1931 -1.0842 -2.5532
 4861TIP3    H235999   1.673   5.555  14.500  1.0602 -0.7508  0.5110
 4862TIP3   OH236000   0.823   6.679   4.229 -0.1940 -0.2959 -0.0750
 4862TIP3    H136001   0.751   6.735   4.257  0.0554  0.7282 -1.3660
 4862TIP3    H236002   0.828   6.693   4.134  0.9896 -1.1936 -0.1633
 4863TIP3   OH236003   4.779   2.316   2.920  0.2847  0.4162  0.2070
 4863TIP3    H136004   4.789   2.340   2.827  0.9094  2.5567  0.7658
 4863TIP3    H236005   4.821   2.387   2.967  2.9604 -2.1944  2.1125
 4864TIP3   OH236006   6.339   1.069   1.520  0.0406 -0.4055  0.7023
 4864TIP3    H136007   6.356   0.983   1.481 -0.8678 -0.2009 -0.1769
 4864TIP3    H236008   6.251   1.063   1.556 -0.7909  0.7039 -1.0116
 4865TIP3   OH236009   3.713   1.306  14.487 -0.4800 -0.1925  0.1163
 4865TIP3    H136010   3.787   1.367  14.487  1.0151 -1.8417 -1.7994
 4865TIP3    H236011   3.641   1.355  14.449  0.3082  0.7698 -0.1783
 4866TIP3   OH236012   2.135   0.558  12.995 -0.3169  0.3116 -0.0590
 4866TIP3    H136013   2.218   0.571  12.950 -1.0145 -0.5410 -1.6450
 4866TIP3    H236014   2.068   0.566  12.927 -1.3868 -1.3090  0.7437
 4867TIP3   OH236015   2.327   4.566   0.311  0.3899 -0.0229 -0.1555
 4867TIP3    H136016   2.384   4.637   0.340  2.4588 -1.2281 -1.0835
 4867TIP3    H236017   2.383   4.510   0.258 -2.6469  1.2374 -5.4718
 4868TIP3   OH236018   1.539   3.912  10.841 -0.6435 -0.1119  0.4153
 4868TIP3    H136019   1.497   3.860  10.772 -0.4858 -0.7487  0.7906
 4868TIP3    H236020   1.570   3.847  10.904 -0.0947  0.4198  0.6997
 4869TIP3   OH236021   2.810   4.680  13.967  0.3597  0.3165  0.2094
 4869TIP3    H136022   2.898   4.715  13.954  0.5629 -0.8689 -2.1535
 4869TIP3    H236023   2.777   4.726  14.045  2.9001  1.0492  0.9588
 4870TIP3   OH236024   5.571   0.850   0.031  0.5842 -0.1996  0.4392
 4870TIP3    H136025   5.616   0.776  -0.010  0.1033  0.3888 -1.2775
 4870TIP3    H236026   5.638   0.917   0.039  0.3772  0.1878 -0.8100
 4871TIP3   OH236027   5.079   6.457  13.389 -0.2468 -0.0268 -0.1512
 4871TIP3    H136028   5.109   6.546  13.411  1.7134 -0.8283  0.7491
 4871TIP3    H236029   4.994   6.449  13.431 -0.5701  1.4939 -0.4551
 4872TIP3   OH236030   5.542   3.210   2.739 -0.1632 -0.0397 -0.4117
 4872TIP3    H136031   5.475   3.141   2.739  0.1082 -0.3395 -1.7533
 4872TIP3    H236032   5.530   3.254   2.655  0.9536  0.2630 -0.4243
 4873TIP3   OH236033   0.437   1.461   1.105  0.0007 -0.4789  0.3014
 4873TIP3    H136034   0.382   1.431   1.032 -1.4658 -1.6026  1.7786
 4873TIP3    H236035   0.424   1.555   1.107  0.1003 -0.4152 -0.8893
 4874TIP3   OH236036   6.437   1.306   0.177  0.2314 -0.6579 -0.6717
 4874TIP3    H136037   6.348   1.325   0.204 -0.1579 -2.4290 -0.5650
 4874TIP3    H236038   6.448   1.352   0.094 -0.9593 -0.8441 -0.9510
 4875TIP3   OH236039   3.541   4.898   3.789 -0.2826 -0.4265  0.3749
 4875TIP3    H136040   3.628   4.863   3.766  0.1920  0.4057  0.8662
 4875TIP3    H236041   3.493   4.898   3.706  1.2674  2.1782 -0.6456
 4876TIP3   OH236042   2.979   4.067  13.900  0.1371 -0.0042  0.3359
 4876TIP3    H136043   2.906   4.046  13.842  1.2062 -0.2681 -0.9587
 4876TIP3    H236044   2.999   4.158  13.880  1.1382 -0.3838 -0.4390
 4877TIP3   OH236045   3.076   6.328   0.930 -0.3933 -0.1579  0.2463
 4877TIP3    H136046   2.995   6.369   0.900  0.5347  1.8929  0.3709
 4877TIP3    H236047   3.142   6.358   0.868  1.0712  1.9851  2.5985
 4878TIP3   OH236048   0.754   2.865   0.146 -0.1852  0.1610  0.2251
 4878TIP3    H136049   0.773   2.801   0.077  0.8510  0.9147 -0.2196
 4878TIP3    H236050   0.810   2.839   0.219 -1.2686 -0.6248  0.8020
 4879TIP3   OH236051   6.701   0.069  12.954  0.0920  0.3022  0.0321
 4879TIP3    H136052   6.750   0.061  12.873  0.7514 -0.8757  0.5248
 4879TIP3    H236053   6.634   0.002  12.949  0.2452  0.1038  0.5301
 4880TIP3   OH236054   1.860   4.312   2.186  0.4349  0.4661  0.1845
 4880TIP3    H136055   1.890   4.396   2.151 -0.2152  0.2290 -0.9751
 4880TIP3    H236056   1.766   4.312   2.170  0.4472 -0.5262  0.0831
 4881TIP3   OH236057   5.752   3.778  14.880 -0.4270 -0.4576  0.4904
 4881TIP3    H136058   5.707   3.846  14.931  0.0176 -0.3875  0.7985
 4881TIP3    H236059   5.712   3.783  14.793 -0.9287 -0.3204  0.7235
 4882TIP3   OH236060   0.217   6.392   6.144 -0.2733  0.0137 -0.0558
 4882TIP3    H136061   0.241   6.485   6.144  0.3419 -0.1430  0.1403
 4882TIP3    H236062   0.164   6.381   6.223 -2.6306  0.7585 -1.4144
 4883TIP3   OH236063   4.968   3.312   1.636  0.0175  0.1722  0.2557
 4883TIP3    H136064   4.921   3.235   1.605 -0.1081  0.4926 -0.3758
 4883TIP3    H236065   5.060   3.293   1.621 -0.1130  0.9559 -1.8795
 4884TIP3   OH236066   1.224   4.767   1.791  0.0304  0.6616  0.3270
 4884TIP3    H136067   1.253   4.733   1.707  0.4091  0.9994  0.3172
 4884TIP3    H236068   1.163   4.838   1.768  1.1384  1.6362  0.3089
 4885TIP3   OH236069   4.821   5.962  15.513  0.3919 -0.5550 -0.1034
 4885TIP3    H136070   4.734   5.939  15.546  0.3609 -1.2016 -0.6164
 4885TIP3    H236071   4.810   5.964  15.417  0.8333 -0.1914 -0.1466
 4886TIP3   OH236072   2.516   3.691   5.971 -0.3266  0.1150 -0.3758
 4886TIP3    H136073   2.568   3.722   5.897  1.5275 -1.0653  0.3578
 4886TIP3    H236074   2.579   3.680   6.042 -1.4886 -1.8520  0.4334
 4887TIP3   OH236075   0.800   6.294   1.864  0.2708  0.3197  0.0094
 4887TIP3    H136076   0.788   6.358   1.793 -0.2346 -0.9495 -1.0848
 4887TIP3    H236077   0.830   6.215   1.820 -0.8590 -0.7621  1.0975
 4888TIP3   OH236078   4.993   4.563   0.593  0.4378  0.6340 -0.0065
 4888TIP3    H136079   4.938   4.519   0.657 -0.6647 -0.1270 -1.4385
 4888TIP3    H236080   5.062   4.500   0.573  0.3799  0.6022 -0.1037
 4889TIP3   OH236081   4.845   4.660   2.272 -0.0112 -0.1606 -0.4413
 4889TIP3    H136082   4.926   4.630   2.230 -0.5427  0.7953 -2.2491
 4889TIP3    H236083   4.782   4.665   2.201 -1.2387  0.6380  0.6673
 4890TIP3   OH236084   3.711   3.928  13.763 -0.1271 -0.0539  0.2870
 4890TIP3    H136085   3.723   4.020  13.737  0.2112 -0.1216  0.1969
 4890TIP3    H236086   3.800   3.897  13.782 -0.4098  0.1914  2.2284
 4891TIP3   OH236087   6.203   1.645   0.159 -0.4090  0.1248  0.0732
 4891TIP3    H136088   6.230   1.735   0.173  0.6414 -0.2742  0.7594
 4891TIP3    H236089   6.112   1.651   0.131 -0.7216  1.3289  1.2548
 4892TIP3   OH236090   1.483   6.317   4.220 -0.2581 -0.4642  0.4442
 4892TIP3    H136091   1.398   6.345   4.253 -0.4924  1.5496 -1.6202
 4892TIP3    H236092   1.546   6.360   4.277 -0.6559  1.0350 -0.1870
 4893TIP3   OH236093   1.552   2.515  17.073 -0.3542  0.7315  0.0868
 4893TIP3    H136094   1.626   2.519  17.134 -1.5138  1.1953  1.5274
 4893TIP3    H236095   1.476   2.540  17.126 -1.6994 -0.6295 -1.0951
 4894TIP3   OH236096   3.996   0.393   4.055  0.0676  0.2551  0.3227
 4894TIP3    H136097   4.068   0.370   4.114  1.5751  0.2833 -1.4282
 4894TIP3    H236098   3.993   0.321   3.992 -1.6534  0.1128  0.5269
 4895TIP3   OH236099   5.618   5.406   0.430 -0.2602 -0.3200  0.7481
 4895TIP3    H136100   5.640   5.480   0.373 -0.4987 -0.4525  0.4774
 4895TIP3    H236101   5.526   5.387   0.409  0.1225 -1.4398 -0.0496
 4896TIP3   OH236102   4.384   5.892   5.532  0.3969  0.2817  0.4329
 4896TIP3    H136103   4.469   5.915   5.494 -0.5147  1.2069 -1.1486
 4896TIP3    H236104   4.395   5.907   5.626  1.3881  2.3933  0.0324
 4897TIP3   OH236105   2.632   0.103  16.266  0.0475  0.2386  0.3213
 4897TIP3    H136106   2.596   0.144  16.344 -0.9089  0.7349 -0.3656
 4897TIP3    H236107   2.635   0.010  16.287  2.4344  0.5862  1.9813
 4898TIP3   OH236108   0.360   1.407  14.955  0.2096 -0.3829 -0.3090
 4898TIP3    H136109   0.342   1.487  15.006  1.2848 -0.9623  1.0366
 4898TIP3    H236110   0.280   1.393  14.905 -0.2534  1.1681 -0.0714
 4899TIP3   OH236111   0.316   4.264   0.169 -0.3805 -1.1648  0.1768
 4899TIP3    H136112   0.385   4.234   0.110 -0.8310 -2.3026  0.2060
 4899TIP3    H236113   0.315   4.359   0.158  1.4412 -1.0831  0.4649
 4900TIP3   OH236114   6.516   3.791   4.434 -0.5010 -0.0518  0.4282
 4900TIP3    H136115   6.423   3.812   4.424 -0.8987 -2.2839 -1.2218
 4900TIP3    H236116   6.561   3.875   4.422 -2.2678  0.9751  0.7691
 4901TIP3   OH236117   6.270   1.228  14.920 -0.2206  0.0291  0.2908
 4901TIP3    H136118   6.251   1.208  14.828  0.5793  0.0829  0.1082
 4901TIP3    H236119   6.189   1.265  14.954 -0.8866 -1.0251 -0.0922
 4902TIP3   OH236120   6.715   1.086  15.904 -0.4627 -0.3529 -0.1100
 4902TIP3    H136121   6.737   1.176  15.928  0.3320 -0.9481  1.5128
 4902TIP3    H236122   6.788   1.056  15.851 -0.9084  0.0589 -0.9800
 4903TIP3   OH236123   3.931   5.687   3.760 -0.1938  0.5202 -0.0434
 4903TIP3    H136124   3.845   5.696   3.719  0.1071 -2.4663 -1.6169
 4903TIP3    H236125   3.926   5.602   3.806  0.7084  2.0593  3.2044
 4904TIP3   OH236126   4.561   0.493  12.171 -0.1756  0.1796 -0.4486
 4904TIP3    H136127   4.654   0.472  12.182  0.4508  2.4096 -0.9652
 4904TIP3    H236128   4.539   0.545  12.248 -0.7881  0.2628 -0.6750
 4905TIP3   OH236129   0.893   6.667   3.724 -0.0537 -0.2276  0.7093
 4905TIP3    H136130   0.948   6.592   3.702  1.1537  0.5340  1.0124
 4905TIP3    H236131   0.835   6.677   3.649  0.7187 -0.6096  0.0384
 4906TIP3   OH236132   4.402   5.473  15.463 -0.4044 -0.3816  0.1316
 4906TIP3    H136133   4.375   5.565  15.464 -2.8686 -1.0365  0.0359
 4906TIP3    H236134   4.418   5.451  15.555  0.6376  0.2309  0.1114
 4907TIP3   OH236135   6.441   2.423  14.672  0.1857 -0.5288 -0.2886
 4907TIP3    H136136   6.365   2.404  14.616 -0.7135  4.0196 -0.9756
 4907TIP3    H236137   6.404   2.466  14.749  1.9260 -0.9376  0.8296
 4908TIP3   OH236138   0.301   6.109  11.603 -0.1669 -0.1606  0.3977
 4908TIP3    H136139   0.294   6.093  11.509  0.6498  1.1374  0.0948
 4908TIP3    H236140   0.392   6.091  11.624  0.2840  1.8974  0.4305
 4909TIP3   OH236141   2.514   0.839  14.242 -0.3030  0.6351  0.0740
 4909TIP3    H136142   2.548   0.750  14.230  1.0069  0.8073  2.0299
 4909TIP3    H236143   2.422   0.827  14.264 -0.7533 -0.0558 -1.9238
 4910TIP3   OH236144   2.668   2.318   2.366  0.4603  0.4785  0.2365
 4910TIP3    H136145   2.631   2.387   2.420 -0.6391 -0.4480  0.7373
 4910TIP3    H236146   2.633   2.237   2.404  1.3148 -0.3176 -0.6148
 4911TIP3   OH236147   3.259   2.824  13.801  0.0741  0.0744  0.5135
 4911TIP3    H136148   3.258   2.748  13.859 -0.1462  0.3332  0.8585
 4911TIP3    H236149   3.259   2.899  13.861 -0.5928  0.3466  0.1823
 4912TIP3   OH236150   5.107   0.342   4.462 -0.2401 -0.3644 -0.0061
 4912TIP3    H136151   5.129   0.329   4.370  1.2904  0.3624  0.2283
 4912TIP3    H236152   5.191   0.337   4.509 -0.4742  2.4147  0.9529
 4913TIP3   OH236153   0.487   5.664  12.383  0.2375  0.4800  0.0668
 4913TIP3    H136154   0.445   5.645  12.467  1.8390 -0.8755  0.6439
 4913TIP3    H236155   0.496   5.759  12.381  0.8735  0.5011  1.8563
 4914TIP3   OH236156   1.893   4.603   0.785 -0.1852  0.7052 -0.2221
 4914TIP3    H136157   1.810   4.577   0.826 -0.4122  0.1306 -1.0195
 4914TIP3    H236158   1.921   4.525   0.737  0.6651  0.9962 -0.2162
 4915TIP3   OH236159   4.642   4.188   0.421 -0.1968  0.4844 -0.2933
 4915TIP3    H136160   4.586   4.201   0.345  0.2214 -2.5319 -1.2542
 4915TIP3    H236161   4.582   4.177   0.494 -0.8659 -0.9056 -1.0040
 4916TIP3   OH236162   2.348   0.297  15.828 -0.1394  0.2268  0.3554
 4916TIP3    H136163   2.412   0.228  15.847 -0.5123 -0.3974 -0.5947
 4916TIP3    H236164   2.321   0.329  15.914  0.2150 -0.6506  0.8043
 4917TIP3   OH236165   0.115   1.245   4.233 -0.6208  0.7513 -0.6252
 4917TIP3    H136166   0.057   1.321   4.230 -0.9490  0.5405  0.1912
 4917TIP3    H236167   0.058   1.171   4.254 -0.3997  0.1653 -1.9781
 4918TIP3   OH236168   4.394   3.508   1.462 -0.3518 -0.0089  1.0330
 4918TIP3    H136169   4.352   3.594   1.460 -1.3640 -0.5066 -0.3376
 4918TIP3    H236170   4.323   3.448   1.483 -0.1215 -0.7462 -0.2342
 4919TIP3   OH236171   3.602   2.168  16.556 -0.0925  1.0049  0.0476
 4919TIP3    H136172   3.689   2.140  16.583  0.5146  0.9008 -1.8432
 4919TIP3    H236173   3.614   2.256  16.520 -0.4144  0.3847 -1.7060
 4920TIP3   OH236174   1.958   0.263  16.582  0.2498  0.0410  0.2011
 4920TIP3    H136175   1.881   0.314  16.556  0.8849  1.2481  0.5837
 4920TIP3    H236176   1.930   0.172  16.576 -0.9634  0.4303 -0.4147
 4921TIP3   OH236177   3.911   5.695   0.404  0.4535  0.8221 -0.0303
 4921TIP3    H136178   3.900   5.718   0.311  0.2862  2.2472  0.3307
 4921TIP3    H236179   4.005   5.701   0.419  1.0030 -2.7829 -0.9047
 4922TIP3   OH236180   5.601   6.147   6.363 -0.0190 -0.0186 -0.1716
 4922TIP3    H136181   5.619   6.205   6.437  0.3679 -1.3460  0.8023
 4922TIP3    H236182   5.590   6.060   6.402 -2.0339 -0.4035 -1.4318
 4923TIP3   OH236183   5.501   6.583   3.939  0.0530 -0.0556  0.1185
 4923TIP3    H136184   5.524   6.657   3.883  1.5417 -0.6791 -0.1264
 4923TIP3    H236185   5.459   6.623   4.016 -0.4397  0.9239 -0.6358
 4924TIP3   OH236186   4.743   6.175  13.911  0.5178  0.1229  0.7132
 4924TIP3    H136187   4.738   6.094  13.859  0.0833  0.5785  0.0259
 4924TIP3    H236188   4.827   6.213  13.887 -0.4351  1.2408 -1.0789
 4925TIP3   OH236189   4.457   3.778   3.046 -0.3620 -0.0830  0.0231
 4925TIP3    H136190   4.429   3.705   2.991  0.1202 -0.5703  0.4055
 4925TIP3    H236191   4.395   3.779   3.119  0.2511 -0.7989  0.5719
 4926TIP3   OH236192   0.460   1.211  11.716 -0.4397  0.3378 -0.0427
 4926TIP3    H136193   0.489   1.164  11.794  0.1140  2.5536  1.1818
 4926TIP3    H236194   0.378   1.168  11.692 -0.9581 -0.0566  2.1511
 4927TIP3   OH236195   5.864   6.079   3.775  0.4300 -0.3473 -0.0707
 4927TIP3    H136196   5.809   6.097   3.698  1.5665  0.1389 -0.7957
 4927TIP3    H236197   5.811   6.020   3.828 -0.2892 -0.9100 -1.3474
 4928TIP3   OH236198   4.313   1.959   4.881  0.0742  0.3098  0.1056
 4928TIP3    H136199   4.346   1.927   4.965 -0.9984  0.6194  0.6515
 4928TIP3    H236200   4.385   2.013   4.847 -0.4337  2.3334  2.0488
 4929TIP3   OH236201   0.315   6.126   2.832 -0.0138 -0.2841 -0.6001
 4929TIP3    H136202   0.346   6.075   2.757 -1.5713 -2.4505  0.1589
 4929TIP3    H236203   0.234   6.167   2.801 -1.8484 -2.8918  0.3938
 4930TIP3   OH236204   1.272   5.023  15.430  0.4727 -0.0325 -0.4854
 4930TIP3    H136205   1.323   4.992  15.355 -0.8969 -1.7203 -0.7869
 4930TIP3    H236206   1.183   5.033  15.397  0.0334  0.1556  0.6870
 4931TIP3   OH236207   5.834   3.632   2.569  0.2189 -0.1870 -0.5484
 4931TIP3    H136208   5.740   3.650   2.565  0.0887 -0.2714  1.4156
 4931TIP3    H236209   5.841   3.537   2.556 -0.2883 -0.6901  2.3623
 4932TIP3   OH236210   5.696   4.186   1.426  0.5817 -0.0237  0.3660
 4932TIP3    H136211   5.726   4.104   1.386  0.9853  0.7754 -1.0098
 4932TIP3    H236212   5.639   4.225   1.360  0.1161  0.6534  1.1578
 4933TIP3   OH236213   2.593   6.603   6.275 -0.1699  0.3923  0.6334
 4933TIP3    H136214   2.498   6.615   6.274 -0.1451  0.6315  0.8586
 4933TIP3    H236215   2.607   6.526   6.330 -0.2439  0.2615  0.4674
 4934TIP3   OH236216   3.449   2.203   4.953 -0.2358 -0.5286  0.2681
 4934TIP3    H136217   3.482   2.289   4.929  0.5187 -0.5600  1.1133
 4934TIP3    H236218   3.486   2.144   4.887 -0.6724 -0.2314 -0.2526
 4935TIP3   OH236219   1.495   5.198  12.270 -0.3292 -0.3271 -0.0403
 4935TIP3    H136220   1.490   5.107  12.299 -3.2534 -0.2382 -0.0435
 4935TIP3    H236221   1.410   5.217  12.232 -0.7577  3.1452  2.1579
 4936TIP3   OH236222   1.365   2.018  13.494  0.3133  0.1343 -0.2979
 4936TIP3    H136223   1.405   1.950  13.547 -0.6349 -0.2417 -0.0317
 4936TIP3    H236224   1.350   1.977  13.409  0.1942  0.1721 -0.2951
 4937TIP3   OH236225   3.328   2.333   5.158  0.3781 -0.7054  0.1649
 4937TIP3    H136226   3.256   2.279   5.191  0.6426 -0.8891  0.4463
 4937TIP3    H236227   3.359   2.286   5.081 -0.8372  0.1926 -0.9167
 4938TIP3   OH236228   3.732   2.114   2.262 -0.4503 -0.4475 -0.5757
 4938TIP3    H136229   3.784   2.176   2.313 -1.4394  1.3842 -1.6879
 4938TIP3    H236230   3.780   2.106   2.179 -0.1859 -1.4129 -0.3406
 4939TIP3   OH236231   0.707   2.039   1.050  0.4834 -0.5935 -0.0264
 4939TIP3    H136232   0.690   1.948   1.025  0.1774 -0.4737 -0.2692
 4939TIP3    H236233   0.710   2.086   0.967  0.6421 -0.3826  0.0992
 4940TIP3   OH236234   6.667   5.824  10.985  0.5630  0.4046 -0.5619
 4940TIP3    H136235   6.754   5.787  10.981  0.9067  1.1149  0.1305
 4940TIP3    H236236   6.609   5.750  11.001  1.0492 -0.0472 -0.8759
 4941TIP3   OH236237   6.275   2.087   2.653 -0.3564 -0.0100  0.1712
 4941TIP3    H136238   6.351   2.091   2.710  0.0139 -4.6267  0.4490
 4941TIP3    H236239   6.311   2.083   2.565 -0.5471  1.3548  0.0213
 4942TIP3   OH236240   6.422   3.003   4.903 -0.4070 -0.6388  0.0091
 4942TIP3    H136241   6.335   3.017   4.940  0.3097 -0.0977  1.5904
 4942TIP3    H236242   6.406   2.981   4.811 -2.1152  2.0541 -0.4571
 4943TIP3   OH236243   6.673   0.152  15.174  0.3621 -0.4489 -0.0034
 4943TIP3    H136244   6.667   0.130  15.267  3.6969  0.8889  0.6668
 4943TIP3    H236245   6.707   0.073  15.132  0.4755 -0.5080  0.2011
 4944TIP3   OH236246   0.901   4.451  12.579 -0.2785  0.2290 -0.0885
 4944TIP3    H136247   0.881   4.367  12.618 -0.0263  0.6362  0.9468
 4944TIP3    H236248   0.817   4.485  12.549 -0.6395  0.3854  1.0832
 4945TIP3   OH236249   3.745   3.228  14.245  0.5473 -0.6808  0.5943
 4945TIP3    H136250   3.826   3.280  14.252 -0.3752  1.3615 -2.0483
 4945TIP3    H236251   3.691   3.259  14.317  0.2641  1.7858 -0.5512
 4946TIP3   OH236252   3.460   4.404  11.618 -0.3899 -0.0598  0.0108
 4946TIP3    H136253   3.436   4.421  11.709  1.3318  3.4045 -0.0092
 4946TIP3    H236254   3.555   4.414  11.616 -0.1749 -1.7962 -1.9046
 4947TIP3   OH236255   6.516   0.813   5.704 -0.3773 -0.2528  0.4270
 4947TIP3    H136256   6.497   0.726   5.740  0.1358  0.0212  1.4002
 4947TIP3    H236257   6.508   0.872   5.779  0.5055  0.3664  0.0501
 4948TIP3   OH236258   2.571   0.884   0.188 -0.7102 -0.1257 -0.5597
 4948TIP3    H136259   2.506   0.870   0.257  0.8588  1.9465  1.5126
 4948TIP3    H236260   2.580   0.980   0.182  1.1974 -0.3213 -1.6898
 4949TIP3   OH236261   4.091   2.338   1.379  0.1285  0.5543 -0.1825
 4949TIP3    H136262   4.123   2.389   1.453 -1.0783  0.3209  0.5277
 4949TIP3    H236263   4.170   2.304   1.338  0.8259  0.3870  1.2172
 4950TIP3   OH236264   0.881   3.173  16.994 -0.0355  0.1212  0.4804
 4950TIP3    H136265   0.799   3.203  17.032  0.0841  0.9361  0.1080
 4950TIP3    H236266   0.871   3.186  16.900  0.8580  1.1062  0.5030
 4951TIP3   OH236267   0.426   4.262  16.385  0.1291  0.1535 -0.1709
 4951TIP3    H136268   0.511   4.225  16.361 -0.8369 -1.5537 -1.1503
 4951TIP3    H236269   0.412   4.235  16.475  0.8689  0.9531  0.1962
 4952TIP3   OH236270   3.272   1.932   1.708 -0.2626  0.5538  0.2841
 4952TIP3    H136271   3.232   2.018   1.698 -0.4136  0.3203 -1.3303
 4952TIP3    H236272   3.212   1.872   1.665  0.9257 -0.0486 -0.5979
 4953TIP3   OH236273   1.467   5.563  14.126  0.0243 -1.3165  0.0078
 4953TIP3    H136274   1.410   5.518  14.189 -0.5691 -1.8188 -0.8589
 4953TIP3    H236275   1.439   5.530  14.041 -1.7583  2.0265 -0.8970
 4954TIP3   OH236276   0.051   4.312   3.837 -0.2783  0.2196 -0.1410
 4954TIP3    H136277  -0.037   4.277   3.848 -0.1768 -0.1467 -0.4666
 4954TIP3    H236278   0.101   4.277   3.911  0.1767 -1.4971 -1.2062
 4955TIP3   OH236279   1.498   3.304  11.417 -0.2147 -0.4389  0.6173
 4955TIP3    H136280   1.441   3.343  11.483 -1.2614 -1.3070  0.2547
 4955TIP3    H236281   1.535   3.227  11.459  0.7985  0.1644  0.8805
 4956TIP3   OH236282   4.012   0.595   3.789  0.3822  0.3245 -0.5889
 4956TIP3    H136283   3.990   0.511   3.829  0.7462  1.2094  1.5718
 4956TIP3    H236284   4.108   0.594   3.781  0.3114  0.1381 -1.5251
 4957TIP3   OH236285   6.444   2.812   0.916 -0.1232  0.3444  0.0901
 4957TIP3    H136286   6.354   2.838   0.898 -0.2636 -1.1205 -1.6043
 4957TIP3    H236287   6.438   2.757   0.994 -0.5465  0.9691  0.5083
 4958TIP3   OH236288   4.681   4.136  10.568  0.4843 -0.3180  0.1918
 4958TIP3    H136289   4.679   4.045  10.599  1.0872 -0.2015  0.5823
 4958TIP3    H236290   4.765   4.144  10.522  0.1147 -0.1577 -0.4806
 4959TIP3   OH236291   0.605   6.551  15.065 -0.3297 -0.2800 -0.7975
 4959TIP3    H136292   0.606   6.467  15.111  1.3598  0.0574 -0.1395
 4959TIP3    H236293   0.599   6.527  14.973  2.2677 -1.2778 -0.7906
 4960TIP3   OH236294   4.621   0.835  14.461  0.3770 -0.2233 -0.6657
 4960TIP3    H136295   4.573   0.899  14.407  0.6118 -1.1771 -2.0661
 4960TIP3    H236296   4.671   0.889  14.522 -0.0974  0.9037 -1.2211
 4961TIP3   OH236297   3.273   0.550  11.452 -0.5292 -0.1247  0.1442
 4961TIP3    H136298   3.259   0.456  11.440 -0.6648 -0.2092  0.9197
 4961TIP3    H236299   3.359   0.566  11.413 -0.2292 -0.6856  0.5588
 4962TIP3   OH236300   5.065   3.242  11.605 -0.4639  0.1777 -0.7151
 4962TIP3    H136301   4.978   3.283  11.608 -0.7911 -0.4874 -0.7968
 4962TIP3    H236302   5.115   3.296  11.544 -0.0145  2.0545  1.1843
 4963TIP3   OH236303   1.184   0.619  12.919 -0.5334  0.9651 -0.0770
 4963TIP3    H136304   1.214   0.607  13.010  0.3267  1.6499 -0.2564
 4963TIP3    H236305   1.261   0.650  12.872 -1.0032  0.7319 -1.0294
 4964TIP3   OH236306   5.030   1.449   6.684 -0.4872 -0.7441  0.2612
 4964TIP3    H136307   5.024   1.415   6.595 -0.2328  0.6896 -0.3444
 4964TIP3    H236308   5.031   1.545   6.673  1.5194 -0.5304  1.6401
 4965TIP3   OH236309   3.466   4.614   2.749 -0.5060 -0.3397 -0.3093
 4965TIP3    H136310   3.381   4.613   2.795 -0.4495 -0.8946 -0.2092
 4965TIP3    H236311   3.517   4.546   2.793 -0.1907 -0.3642 -0.7137
 4966TIP3   OH236312   2.194   4.353   5.241 -0.2286 -0.0290 -0.4219
 4966TIP3    H136313   2.247   4.339   5.320  1.4907  1.2850 -1.2676
 4966TIP3    H236314   2.172   4.264   5.211  1.0687 -0.6169  0.2813
 4967TIP3   OH236315   4.112   3.324  16.729  0.0380  0.1236  0.1749
 4967TIP3    H136316   4.132   3.240  16.687 -0.9823  0.8151 -1.8032
 4967TIP3    H236317   4.190   3.377  16.715 -0.2355  0.2948 -0.7289
 4968TIP3   OH236318   4.558   0.816   6.219  0.4876 -0.2895  0.0728
 4968TIP3    H136319   4.463   0.806   6.210  0.6216 -0.5149 -1.2649
 4968TIP3    H236320   4.570   0.907   6.247 -0.2309 -0.9825  3.0084
 4969TIP3   OH236321   0.170   3.583   3.005  0.3182 -0.1529  0.6186
 4969TIP3    H136322   0.125   3.597   3.088  0.6132 -1.1739  0.9617
 4969TIP3    H236323   0.141   3.656   2.950 -1.8217 -0.7818  0.8070
 4970TIP3   OH236324   3.301   6.416   5.956  0.2607 -0.1959  0.8401
 4970TIP3    H136325   3.381   6.414   6.007  1.5495  0.1514 -1.0488
 4970TIP3    H236326   3.329   6.442   5.868 -1.9294 -0.0352  0.1183
 4971TIP3   OH236327   4.898   3.286   5.626  0.0422  0.0813 -0.4857
 4971TIP3    H136328   4.936   3.370   5.601  1.0746 -0.0726  0.4899
 4971TIP3    H236329   4.816   3.281   5.577  0.8114  0.8613 -1.8895
 4972TIP3   OH236330   2.992   0.246   3.515  0.7689  0.0937 -0.3651
 4972TIP3    H136331   3.013   0.285   3.431  0.5199  0.8279 -0.0963
 4972TIP3    H236332   3.008   0.316   3.579 -2.7603  0.9148 -0.1536
 4973TIP3   OH236333   6.717   1.211  10.619 -0.2024  0.2948  0.0764
 4973TIP3    H136334   6.799   1.261  10.621 -0.0099 -0.0232  0.5832
 4973TIP3    H236335   6.692   1.209  10.527  0.7348 -0.1849 -0.1824
 4974TIP3   OH236336   5.786   4.129   2.073 -0.4794 -0.3773 -0.2565
 4974TIP3    H136337   5.695   4.127   2.102 -1.0920 -1.2085 -2.0522
 4974TIP3    H236338   5.805   4.039   2.047  0.7491 -0.1460 -0.2196
 4975TIP3   OH236339   3.240   5.492   0.430 -0.1189 -0.2685  0.7682
 4975TIP3    H136340   3.171   5.490   0.364 -0.2468 -0.7112  0.9084
 4975TIP3    H236341   3.240   5.403   0.466  1.4646 -0.7120 -0.2185
 4976TIP3   OH236342   3.076   5.206  17.164 -0.4891 -0.1601 -0.4188
 4976TIP3    H136343   3.102   5.251  17.244  0.1705 -0.4245 -0.4709
 4976TIP3    H236344   3.020   5.268  17.118 -0.2999  0.2677 -0.0829
 4977TIP3   OH236345   4.283   1.320   0.942  0.1473 -0.0905  0.0645
 4977TIP3    H136346   4.228   1.242   0.945 -0.1237  0.1147  0.5603
 4977TIP3    H236347   4.306   1.337   1.033  1.6216 -0.5719 -0.1797
 4978TIP3   OH236348   1.336   0.293   3.859 -0.1892  0.0611 -0.5918
 4978TIP3    H136349   1.415   0.339   3.890  0.1609 -0.1702 -1.1352
 4978TIP3    H236350   1.306   0.245   3.936  2.1442 -2.6055 -1.1657
 4979TIP3   OH236351   4.843   3.616   1.752 -0.8285  0.0984 -0.1434
 4979TIP3    H136352   4.804   3.581   1.832 -0.9687  1.5531  0.4539
 4979TIP3    H236353   4.768   3.645   1.700 -0.6597  1.3361  0.2650
 4980TIP3   OH236354   3.175   1.431  16.324 -0.8347 -0.2288 -0.0476
 4980TIP3    H136355   3.180   1.525  16.310 -0.6035  0.1362  2.2168
 4980TIP3    H236356   3.082   1.411  16.326 -0.9122 -0.4447 -2.5379
 4981TIP3   OH236357   6.325   3.148  13.482 -0.8202  0.4788 -0.7168
 4981TIP3    H136358   6.313   3.243  13.476 -0.9067  0.5984  0.8211
 4981TIP3    H236359   6.245   3.111  13.445 -0.6291  0.9820 -1.6627
 4982TIP3   OH236360   1.755   0.078  15.951 -0.2591 -0.0429 -0.0159
 4982TIP3    H136361   1.743  -0.012  15.923 -0.4574 -0.0604  0.1220
 4982TIP3    H236362   1.818   0.073  16.022 -1.2285 -0.2244  0.8595
 4983TIP3   OH236363   1.637   0.885  12.284 -0.0855 -0.7110 -0.7215
 4983TIP3    H136364   1.608   0.974  12.305 -2.0324 -0.4210 -3.9949
 4983TIP3    H236365   1.685   0.857  12.362 -1.5461  2.2436  1.4515
 4984TIP3   OH236366   3.330   2.814   3.578  0.0050 -0.5727 -0.3386
 4984TIP3    H136367   3.338   2.722   3.553 -2.8426 -0.4659 -2.1067
 4984TIP3    H236368   3.390   2.860   3.520  1.7235 -1.2640  0.8007
 4985TIP3   OH236369   4.365   1.768   0.482 -0.3602 -0.2417 -0.1157
 4985TIP3    H136370   4.388   1.816   0.403  1.4871 -0.1854  0.4154
 4985TIP3    H236371   4.413   1.812   0.552 -2.4080  0.0706  1.1651
 4986TIP3   OH236372   6.532   1.170   1.359  0.3558 -0.0407 -0.0049
 4986TIP3    H136373   6.590   1.202   1.429  1.7107 -3.5131  0.6743
 4986TIP3    H236374   6.448   1.156   1.403 -0.0121  1.6000 -0.1211
 4987TIP3   OH236375   2.877   4.129   0.930 -0.2809 -0.1920  0.3198
 4987TIP3    H136376   2.846   4.072   1.001 -0.0244  0.7502  1.2107
 4987TIP3    H236377   2.945   4.182   0.971 -0.1476  0.3855 -0.6411
 4988TIP3   OH236378   1.238   3.594   2.913  0.0017  0.0573  0.5310
 4988TIP3    H136379   1.222   3.601   3.007  0.1745  3.2617  0.3988
 4988TIP3    H236380   1.201   3.674   2.876  1.2478 -0.4359 -1.9488
 4989TIP3   OH236381   1.560   5.545   3.847 -0.4374  0.6551  0.0695
 4989TIP3    H136382   1.478   5.539   3.896 -0.4082  1.2763  0.1973
 4989TIP3    H236383   1.552   5.478   3.779 -0.5652 -0.0781  0.7860
 4990TIP3   OH236384   0.501   0.804   5.579  0.3645 -0.3842 -0.2190
 4990TIP3    H136385   0.552   0.838   5.652  0.5941 -0.2450 -0.4453
 4990TIP3    H236386   0.490   0.711   5.599  1.9098 -0.7380 -0.8561
 4991TIP3   OH236387   5.095   3.988  16.125  0.0164 -0.1187  0.1193
 4991TIP3    H136388   5.098   4.078  16.091  2.5613 -0.6123 -1.1953
 4991TIP3    H236389   5.175   3.979  16.176  0.7493 -2.1270 -1.2429
 4992TIP3   OH236390   2.236   0.746   2.484  0.0036  0.1908  0.1812
 4992TIP3    H136391   2.277   0.779   2.404  0.6842 -0.7364  0.1363
 4992TIP3    H236392   2.273   0.800   2.554 -1.7590  2.0874 -0.2161
 4993TIP3   OH236393   5.104   0.772  12.599  0.2328 -0.6265 -0.0718
 4993TIP3    H136394   5.136   0.764  12.688 -1.2877  0.5971  0.6499
 4993TIP3    H236395   5.096   0.867  12.585 -1.0221 -0.8334 -0.9221
 4994TIP3   OH236396   6.368   5.853  12.810 -0.2418 -0.2396  0.6125
 4994TIP3    H136397   6.409   5.876  12.726  3.4855  1.3109  2.5925
 4994TIP3    H236398   6.358   5.937  12.855  0.9118 -1.2167  2.8801
 4995TIP3   OH236399   5.249   2.977   4.828 -0.3194 -0.4007 -0.2388
 4995TIP3    H136400   5.255   2.981   4.924 -0.5438 -1.3784 -0.1736
 4995TIP3    H236401   5.185   2.907   4.811 -1.5490  0.8687 -1.0778
 4996TIP3   OH236402   3.010   5.744   2.312  0.3359 -0.3460  0.6107
 4996TIP3    H136403   2.961   5.820   2.344  1.1668 -0.1382  1.4401
 4996TIP3    H236404   2.985   5.672   2.370  0.5443 -0.3870  0.6525
 4997TIP3   OH236405   6.089   2.872   3.967 -0.2251 -0.0105 -0.7089
 4997TIP3    H136406   6.000   2.904   3.951 -0.1752  0.0121 -0.9457
 4997TIP3    H236407   6.145   2.948   3.954 -0.2647  0.2641  0.5964
 4998TIP3   OH236408   1.252   2.568  12.422  0.5733  0.0796  0.0458
 4998TIP3    H136409   1.312   2.525  12.484 -0.4773 -0.6420  0.5933
 4998TIP3    H236410   1.175   2.589  12.475  0.3224  0.9577 -0.6553
 4999TIP3   OH236411   4.687   2.784  16.990  0.0041 -1.3960 -0.3744
 4999TIP3    H136412   4.609   2.800  16.937 -1.0372 -0.9169  1.2251
 4999TIP3    H236413   4.732   2.869  16.991 -1.4848 -0.5379  1.7741
 5000TIP3   OH236414   6.592   0.448  16.260 -0.4333  0.2630  0.8189
 5000TIP3    H136415   6.664   0.391  16.287  0.4596  1.7028  1.6422
 5000TIP3    H236416   6.513   0.403  16.290 -0.0139 -1.8280 -0.9355
 5001TIP3   OH236417   6.744   2.446  15.509 -0.1289  0.0291  0.5238
 5001TIP3    H136418   6.825   2.492  15.485  0.2359 -0.1389  1.4000
 5001TIP3    H236419   6.677   2.486  15.454 -0.3026  3.3183  2.8245
 5002TIP3   OH236420   6.344   2.617  14.896 -0.1012 -0.0489  1.1178
 5002TIP3    H136421   6.278   2.602  14.964 -2.0090 -0.4525 -0.7141
 5002TIP3    H236422   6.403   2.682  14.934 -1.2597 -0.0238  3.0240
 5003TIP3   OH236423   5.795   1.565  11.904  0.1796 -0.1968  0.3501
 5003TIP3    H136424   5.823   1.551  11.814  0.9720 -0.1386  0.5812
 5003TIP3    H236425   5.756   1.482  11.931 -0.0807 -0.2062 -0.0473
 5004TIP3   OH236426   5.122   5.734   5.872 -0.0668  0.2400  0.1592
 5004TIP3    H136427   5.078   5.818   5.859  0.0854  0.3093  0.0854
 5004TIP3    H236428   5.183   5.750   5.944 -0.8012 -0.1030  0.8797
 5005TIP3   OH236429   0.445   3.544  11.932 -0.2917 -0.0408  0.1815
 5005TIP3    H136430   0.392   3.537  11.852  0.2416 -0.0701 -0.1747
 5005TIP3    H236431   0.386   3.582  11.997 -0.5274  0.6517 -0.4250
 5006TIP3   OH236432   1.617   1.800  16.057 -0.6719  0.6773 -0.1336
 5006TIP3    H136433   1.706   1.835  16.067 -0.1364 -1.0358  2.0612
 5006TIP3    H236434   1.631   1.706  16.043 -2.1181  0.7152 -2.2070
 5007TIP3   OH236435   3.702   2.113  13.386 -0.8434  0.2374 -0.1041
 5007TIP3    H136436   3.652   2.041  13.348  0.7427 -0.7356 -0.4322
 5007TIP3    H236437   3.653   2.137  13.465 -1.2873 -1.3858  0.1608
 5008TIP3   OH236438   1.157   6.326   1.801 -0.3203  0.5559 -0.3952
 5008TIP3    H136439   1.159   6.359   1.891 -0.8459 -1.3994  0.3939
 5008TIP3    H236440   1.192   6.397   1.748 -1.4892  2.3857  1.1488
 5009TIP3   OH236441   5.137   6.175  15.981 -0.0240 -0.3568  0.7637
 5009TIP3    H136442   5.156   6.135  15.896  0.0395  0.1492  0.5389
 5009TIP3    H236443   5.059   6.129  16.012  0.2184 -0.8554  0.6378
 5010TIP3   OH236444   6.686   2.529   0.254 -0.7296  0.0316 -0.0287
 5010TIP3    H136445   6.718   2.447   0.293 -0.1516  1.6415  3.1954
 5010TIP3    H236446   6.622   2.562   0.316  0.9520  3.2725  0.1874
 5011TIP3   OH236447   6.607   2.901  16.994 -0.0678 -0.3000 -0.4626
 5011TIP3    H136448   6.610   2.977  17.053  1.2815 -0.5968 -0.1032
 5011TIP3    H236449   6.690   2.903  16.948  0.0654 -1.6366 -0.3366
 5012TIP3   OH236450   5.902   5.096   3.235  0.3313  0.1990  0.1241
 5012TIP3    H136451   5.876   5.051   3.155  1.2556 -0.7302  0.3263
 5012TIP3    H236452   5.858   5.181   3.230  2.2815  1.1801 -2.5522
 5013TIP3   OH236453   3.781   3.397   3.206  0.4989 -0.0585 -0.3290
 5013TIP3    H136454   3.784   3.429   3.296 -2.0221 -1.4360  0.3411
 5013TIP3    H236455   3.782   3.476   3.152 -0.5901  0.9216  1.0352
 5014TIP3   OH236456   5.656   5.675   0.266  0.3541 -0.3748  0.4041
 5014TIP3    H136457   5.721   5.662   0.197  0.1641  1.1728 -0.1056
 5014TIP3    H236458   5.572   5.654   0.224 -0.0117  2.5328 -0.5748
 5015TIP3   OH236459   6.551   3.863   2.890  0.0769 -0.4372  0.0007
 5015TIP3    H136460   6.481   3.897   2.834  0.3639 -1.1966 -0.8611
 5015TIP3    H236461   6.508   3.800   2.947 -0.1279 -0.0546  0.2744
 5016TIP3   OH236462   6.196   4.129   2.256  0.0212  0.5935 -0.6664
 5016TIP3    H136463   6.186   4.071   2.180 -0.8271  0.7135 -0.6571
 5016TIP3    H236464   6.290   4.128   2.275 -0.0640 -1.5068 -0.0908
 5017TIP3   OH236465   2.810   6.735  13.286  0.1943  0.1656 -0.2938
 5017TIP3    H136466   2.782   6.647  13.264  0.5438 -0.0384  0.0548
 5017TIP3    H236467   2.734   6.775  13.328  0.4024 -0.3755  0.6367
 5018TIP3   OH236468   3.907   4.081   6.162  0.2456 -0.0763 -0.5028
 5018TIP3    H136469   3.948   4.132   6.091  0.4865  1.0573  0.4071
 5018TIP3    H236470   3.923   4.134   6.241 -1.1885 -0.6349  0.1956
 5019TIP3   OH236471   4.813   0.785   3.973  0.1874 -0.1123  0.2962
 5019TIP3    H136472   4.817   0.742   3.887  0.0522 -0.5120  0.4879
 5019TIP3    H236473   4.724   0.819   3.979  0.7138  1.5084 -0.4768
 5020TIP3   OH236474   2.684   5.561   1.211  0.2846  0.1158  0.3084
 5020TIP3    H136475   2.642   5.573   1.296 -2.3603  2.1464 -1.1293
 5020TIP3    H236476   2.716   5.649   1.188 -1.8420  0.3737 -2.0403
 5021TIP3   OH236477   0.285   0.897   4.535  0.1972 -0.2272 -0.2100
 5021TIP3    H136478   0.314   0.946   4.612 -1.3738 -0.5389  0.6168
 5021TIP3    H236479   0.291   0.959   4.463  2.7668 -0.2497 -0.0985
 5022TIP3   OH236480   2.807   2.532  14.106  0.2380 -0.0860 -0.0346
 5022TIP3    H136481   2.823   2.588  14.030  0.7649 -0.0121  0.1306
 5022TIP3    H236482   2.874   2.464  14.101 -1.7173 -2.0285 -1.4588
 5023TIP3   OH236483   3.894   0.246   4.327  0.8039  0.4479  0.0607
 5023TIP3    H136484   3.982   0.218   4.303  0.1295 -1.1504 -0.6973
 5023TIP3    H236485   3.873   0.197   4.406  0.8880  1.4527  0.7244
 5024TIP3   OH236486   5.479   5.187  13.116 -0.1081  0.0050  0.5219
 5024TIP3    H136487   5.468   5.100  13.078 -1.1675 -0.2288  1.3047
 5024TIP3    H236488   5.392   5.209  13.149  0.5190  0.6703  1.7840
 5025TIP3   OH236489   0.188   3.032   2.970 -0.1565 -0.1318 -0.2331
 5025TIP3    H136490   0.282   3.045   2.983 -0.0690 -0.3101 -0.6711
 5025TIP3    H236491   0.159   2.988   3.050  0.2183 -0.4674 -0.2744
 5026TIP3   OH236492   0.111   5.441  12.058  0.6143 -0.0983  0.3168
 5026TIP3    H136493   0.023   5.414  12.084 -1.0559  2.1283 -2.4038
 5026TIP3    H236494   0.105   5.536  12.051  3.3645  0.1433  0.3249
 5027TIP3   OH236495   4.418   5.780  11.918 -0.2653 -0.3415 -0.1615
 5027TIP3    H136496   4.341   5.734  11.950 -2.5016  3.1230 -0.0294
 5027TIP3    H236497   4.402   5.792  11.824  1.0003 -1.0885 -0.4943
 5028TIP3   OH236498   1.551   2.392  11.574 -0.0307  0.3234 -0.5798
 5028TIP3    H136499   1.585   2.479  11.550  0.6920  0.1034 -0.3780
 5028TIP3    H236500   1.504   2.406  11.656  0.6272  0.4201 -0.2084
 5029TIP3   OH236501   0.070   4.764  16.038  0.2986 -0.3591 -0.5786
 5029TIP3    H136502   0.114   4.741  16.119  0.1379 -0.1473 -0.4294
 5029TIP3    H236503   0.141   4.777  15.975  0.4961  0.6669 -0.1620
 5030TIP3   OH236504   6.512   5.077   5.530  0.1054 -0.3366  0.1250
 5030TIP3    H136505   6.528   5.058   5.622 -0.5363  1.7805  0.7319
 5030TIP3    H236506   6.598   5.070   5.489  0.5323 -0.5592  1.0332
 5031TIP3   OH236507   0.980   5.310   0.392 -0.3386  0.4839 -0.2702
 5031TIP3    H136508   0.958   5.401   0.372  0.6121  0.5145 -1.2728
 5031TIP3    H236509   0.969   5.302   0.486 -2.2845  1.1171 -0.3971
 5032TIP3   OH236510   6.215   0.050   3.912  0.7595  0.2038 -0.3218
 5032TIP3    H136511   6.243   0.137   3.883 -0.9801  0.9211  0.0444
 5032TIP3    H236512   6.286  -0.008   3.884  2.7026  1.9164  0.7566
 5033TIP3   OH236513   2.286   1.521   1.669 -0.4941 -0.5624  0.0189
 5033TIP3    H136514   2.256   1.519   1.759 -1.2843  2.1724 -0.0921
 5033TIP3    H236515   2.232   1.455   1.624 -1.3838 -0.6465  1.1651
 5034TIP3   OH236516   1.869   5.160  10.378  0.2190 -0.1871  0.2379
 5034TIP3    H136517   1.956   5.130  10.401  0.0903  0.3049  1.4416
 5034TIP3    H236518   1.819   5.155  10.460 -0.5981  0.4912 -0.1970
 5035TIP3   OH236519   4.081   3.621  16.988  0.1790 -0.3314  0.0271
 5035TIP3    H136520   4.168   3.656  16.969 -0.4536  0.6760 -1.1759
 5035TIP3    H236521   4.022   3.692  16.963 -1.0082 -1.1233  0.5304
 5036TIP3   OH236522   1.415   3.505   4.750 -0.5709 -0.1984 -0.2130
 5036TIP3    H136523   1.340   3.464   4.707 -1.2832 -0.5604  1.3113
 5036TIP3    H236524   1.454   3.434   4.801 -0.9595  0.6700  1.3288
 5037TIP3   OH236525   3.606   6.634  14.844  0.4507  0.3449 -0.6356
 5037TIP3    H136526   3.556   6.629  14.926  0.9645 -0.2888 -0.3558
 5037TIP3    H236527   3.622   6.543  14.820  0.1395  0.5228 -1.5553
 5038TIP3   OH236528   3.219   6.224  16.120 -0.3455  0.1821  0.1966
 5038TIP3    H136529   3.137   6.216  16.170 -0.8843 -0.6110 -0.7687
 5038TIP3    H236530   3.285   6.182  16.176 -1.0187 -1.0728  0.1049
 5039TIP3   OH236531   6.349   3.808  15.525  0.4774 -0.2160 -0.0910
 5039TIP3    H136532   6.307   3.800  15.611 -0.0795 -0.2398 -0.3596
 5039TIP3    H236533   6.396   3.891  15.529  0.0083  0.0502  0.0553
 5040TIP3   OH236534   6.782   3.666  12.934  0.4534  0.2835  0.3184
 5040TIP3    H136535   6.791   3.609  12.857 -0.2812  1.7320 -0.8945
 5040TIP3    H236536   6.835   3.624  13.001 -0.6062 -2.2181 -0.2883
 5041TIP3   OH236537   4.326   0.869   5.885  0.0529 -0.5537  0.3045
 5041TIP3    H136538   4.323   0.787   5.933  0.7117 -1.4580 -1.1322
 5041TIP3    H236539   4.408   0.865   5.835  0.3814  1.2224  0.6250
 5042TIP3   OH236540   1.349   4.372  11.715 -0.1098  0.4692  0.2585
 5042TIP3    H136541   1.417   4.432  11.746 -0.5043  0.6622  0.7587
 5042TIP3    H236542   1.268   4.406  11.753 -0.2216 -0.8960  1.2734
 5043TIP3   OH236543   5.051   1.260  15.841 -0.0751  0.3791  0.3788
 5043TIP3    H136544   5.098   1.252  15.924  1.8370 -1.5844 -0.8006
 5043TIP3    H236545   5.118   1.287  15.778 -0.4304 -2.3846 -1.3376
 5044TIP3   OH236546   2.254   5.249  13.799 -0.3306 -0.0388  0.1260
 5044TIP3    H136547   2.259   5.173  13.741  0.0155  0.2859 -0.2784
 5044TIP3    H236548   2.248   5.324  13.740 -0.8657  0.2404  0.5207
 5045TIP3   OH236549   0.420   2.089   0.471  0.3152 -0.0855  0.0274
 5045TIP3    H136550   0.495   2.122   0.422  0.5340  0.6507  0.8362
 5045TIP3    H236551   0.352   2.076   0.405  1.1533 -0.7945 -0.7242
 5046TIP3   OH236552   4.432   0.855  12.183  0.4360  0.1468  0.4194
 5046TIP3    H136553   4.481   0.904  12.118 -0.4965  1.0535  0.3753
 5046TIP3    H236554   4.498   0.809  12.235  1.2254  0.0703 -0.6429
 5047TIP3   OH236555   2.226   4.286   2.354  0.1312  0.4621 -0.6718
 5047TIP3    H136556   2.216   4.321   2.266 -1.3924  0.0805 -0.6785
 5047TIP3    H236557   2.217   4.191   2.343  1.9517  0.2022 -0.3480
 5048TIP3   OH236558   5.056   2.837   3.615 -0.0429  0.0052  0.3945
 5048TIP3    H136559   5.036   2.931   3.611 -1.7241 -0.3716 -1.3145
 5048TIP3    H236560   4.973   2.795   3.634  0.3963 -1.2293 -0.2801
 5049TIP3   OH236561   1.666   4.916  10.883  0.0166  0.4627  0.2789
 5049TIP3    H136562   1.727   4.904  10.811  0.9167  3.0152  0.5378
 5049TIP3    H236563   1.580   4.897  10.845  0.3768  2.4808 -1.7455
 5050TIP3   OH236564   6.170   3.031   4.988 -0.6381  0.1524 -0.1338
 5050TIP3    H136565   6.094   3.012   4.933 -0.6263  0.5428 -0.2884
 5050TIP3    H236566   6.135   3.031   5.078 -1.1298  1.7302 -0.2867
 5051TIP3   OH236567   1.745   5.935  16.151 -0.0292  0.4138  0.1818
 5051TIP3    H136568   1.698   5.983  16.083 -0.7616  0.4469  0.7010
 5051TIP3    H236569   1.683   5.870  16.181  1.3665 -1.8069 -1.4139
 5052TIP3   OH236570   4.844   6.759  12.496  0.5590  0.3253  0.8952
 5052TIP3    H136571   4.833   6.782  12.404  0.1337  0.8893  1.0757
 5052TIP3    H236572   4.933   6.787  12.518  0.1451  1.6005  1.0368
 5053TIP3   OH236573   3.858   2.522  12.799  0.3117  0.5636  0.3777
 5053TIP3    H136574   3.913   2.450  12.829  1.9260  1.7175  0.3065
 5053TIP3    H236575   3.787   2.479  12.752 -0.9976 -1.2266  3.6088
 5054TIP3   OH236576   1.730   4.269   3.145 -0.0349 -0.3924 -0.2958
 5054TIP3    H136577   1.797   4.309   3.201 -0.1506 -0.7665  0.1192
 5054TIP3    H236578   1.706   4.338   3.083 -1.2082  0.6558  1.2533
 5055TIP3   OH236579   3.903   2.345  15.244  0.4180 -0.4638  0.2652
 5055TIP3    H136580   3.876   2.434  15.267  0.0234 -0.6348  0.4639
 5055TIP3    H236581   3.995   2.354  15.218 -0.1401  0.3263 -1.6071
 5056TIP3   OH236582   6.310   1.819   3.183  0.4216 -0.2627  0.1394
 5056TIP3    H136583   6.296   1.858   3.270 -1.3237 -0.7024  0.0918
 5056TIP3    H236584   6.373   1.877   3.141  1.4350 -0.1369  1.7522
 5057TIP3   OH236585   3.718   0.193  11.455 -0.3127  0.2185  0.4042
 5057TIP3    H136586   3.635   0.157  11.486 -0.0863  0.0070  0.7788
 5057TIP3    H236587   3.776   0.117  11.449  0.4826  0.6303  2.2197
 5058TIP3   OH236588   3.183   3.363  11.996 -0.3274  0.2546 -0.0564
 5058TIP3    H136589   3.204   3.298  11.929  1.2265  0.4520  0.1903
 5058TIP3    H236590   3.091   3.347  12.017 -0.1625 -1.4272 -0.4645
 5059TIP3   OH236591   3.178   5.623   0.665 -0.2844 -0.0670 -0.0486
 5059TIP3    H136592   3.217   5.593   0.583  0.0076 -1.7011  0.6537
 5059TIP3    H236593   3.084   5.625   0.646 -0.1139  1.3424 -0.9425
 5060TIP3   OH236594   2.317   3.337   6.340  0.4082  0.6370  0.2561
 5060TIP3    H136595   2.230   3.315   6.373 -0.0695  1.7626 -0.2291
 5060TIP3    H236596   2.366   3.363   6.418  0.7885 -1.3622  0.7541
 5061TIP3   OH236597   1.034   3.172  12.832 -0.6538 -1.0289  0.1289
 5061TIP3    H136598   1.123   3.156  12.862  0.3710  0.5259 -1.8178
 5061TIP3    H236599   1.001   3.242  12.888  0.1506 -0.1689 -0.4433
 5062TIP3   OH236600   6.604   3.666  14.712  0.2975  0.2166  0.4744
 5062TIP3    H136601   6.615   3.620  14.795  2.5082 -2.1948 -1.0034
 5062TIP3    H236602   6.529   3.624  14.671  0.2059  0.3021  0.5526
 5063TIP3   OH236603   3.565   2.934  13.838 -0.2635  0.1756 -0.8604
 5063TIP3    H136604   3.549   3.003  13.774 -2.0575  1.2049  0.6066
 5063TIP3    H236605   3.554   2.976  13.923 -2.0356 -2.0017  0.1048
 5064TIP3   OH236606   0.894   0.295  13.292  0.2622 -0.2257 -0.4221
 5064TIP3    H136607   0.875   0.343  13.211 -1.5025 -2.0056 -1.1444
 5064TIP3    H236608   0.990   0.299  13.300  0.2462  3.1368 -0.5268
 5065TIP3   OH236609   5.769   2.547  11.762 -0.1332 -0.0404  0.3930
 5065TIP3    H136610   5.821   2.614  11.807  1.4759 -0.5223 -0.6474
 5065TIP3    H236611   5.739   2.591  11.682 -0.4466 -0.0838  0.4857
 5066TIP3   OH236612   0.249   4.050  13.931  0.1422 -0.4669  0.3777
 5066TIP3    H136613   0.297   4.044  14.013  1.6147  1.7814 -0.2263
 5066TIP3    H236614   0.310   4.019  13.865  0.0698  0.5607 -0.1875
 5067TIP3   OH236615   3.071   1.103  16.642 -0.6367 -0.2817 -0.2031
 5067TIP3    H136616   3.128   1.029  16.624 -0.5377 -1.0720  2.8410
 5067TIP3    H236617   3.123   1.161  16.698 -1.9518  0.1703  0.6239
 5068TIP3   OH236618   2.871   0.409  14.311 -0.2898 -0.1413  0.2518
 5068TIP3    H136619   2.887   0.342  14.377  1.8638  1.1767  1.1679
 5068TIP3    H236620   2.956   0.425  14.271 -1.2024  0.4003 -1.6006
 5069TIP3   OH236621   4.446   6.402   5.522 -0.3768  0.1432  0.2876
 5069TIP3    H136622   4.400   6.394   5.606  0.7184 -0.5671  0.8566
 5069TIP3    H236623   4.412   6.330   5.469 -1.1118  0.6259  0.0931
 5070TIP3   OH236624   6.177   2.891   0.822  0.2811 -0.3703 -0.1813
 5070TIP3    H136625   6.197   2.919   0.733 -0.5683 -0.5710 -0.4364
 5070TIP3    H236626   6.133   2.966   0.862 -0.8274 -0.8646 -0.4577
 5071TIP3   OH236627   5.540   3.651   2.626 -0.2692  0.4964 -0.7244
 5071TIP3    H136628   5.508   3.718   2.686 -1.5368 -1.6335  1.1311
 5071TIP3    H236629   5.480   3.654   2.552 -0.8531  0.8570 -0.2461
 5072TIP3   OH236630   0.151   5.217   0.482  0.3582 -0.1284  0.0476
 5072TIP3    H136631   0.125   5.237   0.393  1.9076 -1.5415 -0.7820
 5072TIP3    H236632   0.109   5.134   0.502 -0.0289  0.2091  0.6798
 5073TIP3   OH236633   1.801   0.738  13.356 -0.6716 -0.0342 -0.2307
 5073TIP3    H136634   1.865   0.696  13.413 -2.3011  0.7721  2.4259
 5073TIP3    H236635   1.796   0.828  13.389 -1.2434  0.6650 -2.1162
 5074TIP3   OH236636   1.462   5.455  16.920 -0.3273 -0.4510 -0.4265
 5074TIP3    H136637   1.380   5.494  16.952 -0.0436  1.6187 -1.9383
 5074TIP3    H236638   1.529   5.489  16.979 -0.4559 -1.4377  0.2919
 5075TIP3   OH236639   0.872   3.282   3.242 -0.2283 -0.3617  0.4444
 5075TIP3    H136640   0.912   3.332   3.171 -1.7617 -0.9612 -0.9115
 5075TIP3    H236641   0.799   3.337   3.271 -0.7825 -0.9675  0.2202
 5076TIP3   OH236642   3.555   3.934   0.590  0.2247 -0.5962 -0.9431
 5076TIP3    H136643   3.517   3.949   0.677  0.6914 -1.2879 -0.6071
 5076TIP3    H236644   3.575   4.022   0.558 -0.6621 -0.2887 -0.6789
 5077TIP3   OH236645   0.933   4.067  11.224  0.2386 -0.0363 -0.0540
 5077TIP3    H136646   0.919   4.055  11.130 -2.5059  1.0847  0.1461
 5077TIP3    H236647   0.966   4.157  11.233 -0.4921  0.2176  0.1232
 5078TIP3   OH236648   3.550   3.209  14.889 -0.3303 -0.0623 -0.2870
 5078TIP3    H136649   3.516   3.131  14.846  0.6281 -1.4088  1.2777
 5078TIP3    H236650   3.604   3.252  14.822  1.4054 -2.2731 -0.4394
 5079TIP3   OH236651   1.079   5.929  14.565 -0.0774 -0.0645  0.5554
 5079TIP3    H136652   1.055   5.873  14.639  0.8110  0.4098  1.2136
 5079TIP3    H236653   1.126   6.003  14.605  0.0438  0.4084 -0.4421
 5080TIP3   OH236654   1.392   6.297   5.650  0.3026  0.4375 -0.0880
 5080TIP3    H136655   1.361   6.341   5.571 -0.6393  0.2470  0.1699
 5080TIP3    H236656   1.317   6.298   5.709  1.3705  1.7765  1.3360
 5081TIP3   OH236657   5.275   2.377  17.056  0.2925 -0.1223  0.0991
 5081TIP3    H136658   5.366   2.353  17.075  0.1371 -0.6663  0.1660
 5081TIP3    H236659   5.277   2.473  17.049  1.1666 -0.2320 -1.4617
 5082TIP3   OH236660   3.378   5.142   0.064 -0.0536  0.0550  0.3632
 5082TIP3    H136661   3.295   5.172   0.103 -0.8624 -0.5026 -0.8697
 5082TIP3    H236662   3.443   5.160   0.132 -1.2675 -0.0941  1.6335
 5083TIP3   OH236663   5.512   2.750  15.844 -0.0726 -0.4857 -0.2587
 5083TIP3    H136664   5.440   2.802  15.808  0.7460  0.6589 -0.3060
 5083TIP3    H236665   5.507   2.667  15.797 -1.6386 -0.6125  0.0761
 5084TIP3   OH236666   6.169   4.412  16.102 -0.2202  0.6260  0.0231
 5084TIP3    H136667   6.108   4.402  16.175  0.2724 -0.3938  0.3152
 5084TIP3    H236668   6.220   4.331  16.102  0.7832  1.2304 -0.5314
 5085TIP3   OH236669   2.726   2.769  15.676 -0.3834  0.1550  0.1274
 5085TIP3    H136670   2.794   2.801  15.617 -1.2296  0.0446 -0.9315
 5085TIP3    H236671   2.772   2.708  15.734  0.7540  1.3844  0.5753
 5086TIP3   OH236672   6.496   3.396  16.915  0.2342 -0.2296  0.0269
 5086TIP3    H136673   6.408   3.359  16.909 -0.4880  1.3581  0.2426
 5086TIP3    H236674   6.547   3.350  16.848 -1.1324 -0.2176 -1.0491
 5087TIP3   OH236675   0.245   3.991   0.243 -0.3535 -0.0851 -0.1409
 5087TIP3    H136676   0.158   3.950   0.240 -0.0816 -0.6803 -0.0042
 5087TIP3    H236677   0.279   3.970   0.329 -0.4056  0.8623  0.1213
 5088TIP3   OH236678   1.860   2.963   0.293 -0.0943 -0.6844 -0.4969
 5088TIP3    H136679   1.879   3.022   0.366 -0.3008  0.2975 -1.2303
 5088TIP3    H236680   1.902   2.880   0.319  1.8696  0.3066 -0.3190
 5089TIP3   OH236681   4.086   2.090  11.428 -0.5438 -0.2266  0.0713
 5089TIP3    H136682   4.109   2.003  11.461  1.3964  0.9263  2.0500
 5089TIP3    H236683   4.031   2.127  11.497  2.5875  1.7915  1.7334
 5090TIP3   OH236684   5.689   1.186  10.654  0.7607  0.1651  0.0546
 5090TIP3    H136685   5.764   1.179  10.713  1.0960 -0.8415 -0.4590
 5090TIP3    H236686   5.624   1.236  10.702  1.0302 -0.6175  1.2693
 5091TIP3   OH236687   3.243   0.954   5.449  0.1864  0.1776  0.3136
 5091TIP3    H136688   3.231   0.941   5.543  0.5506 -0.4893  0.2781
 5091TIP3    H236689   3.164   0.998   5.420 -0.0969  0.0394  0.8727
 5092TIP3   OH236690   5.368   4.296  17.120 -0.2786  0.3450 -0.3204
 5092TIP3    H136691   5.441   4.282  17.060  0.6837 -1.3640  1.1262
 5092TIP3    H236692   5.392   4.246  17.198 -3.0624 -0.4053  0.1630
 5093TIP3   OH236693   2.870   5.767  16.277  0.4121 -0.1257  0.5940
 5093TIP3    H136694   2.816   5.793  16.352  0.7483 -0.7638  1.0612
 5093TIP3    H236695   2.960   5.782  16.306  0.6887 -2.6014  1.2271
 5094TIP3   OH236696   0.538   3.376   1.989  0.2110  0.1415  0.0504
 5094TIP3    H136697   0.463   3.430   1.967 -0.8496 -1.5224 -0.6063
 5094TIP3    H236698   0.571   3.345   1.905  1.6706  0.8545  0.3253
 5095TIP3   OH236699   5.735   5.701  17.248  0.6328 -0.5847  0.0553
 5095TIP3    H136700   5.662   5.729  17.193  0.3931 -0.8734  0.2299
 5095TIP3    H236701   5.801   5.770  17.235  0.3301 -0.3180 -0.0932
 5096TIP3   OH236702   5.574   5.667  14.531 -0.7752 -0.7366  0.1930
 5096TIP3    H136703   5.539   5.706  14.450 -1.0938 -2.1084 -0.3568
 5096TIP3    H236704   5.522   5.588  14.543  0.6919 -1.6727  0.5730
 5097TIP3   OH236705   0.854   5.148  12.910  0.2284 -0.6780 -0.0155
 5097TIP3    H136706   0.816   5.092  12.978  0.4797 -0.2999  0.4404
 5097TIP3    H236707   0.948   5.133  12.916  0.2550 -0.6151 -0.2587
 5098TIP3   OH236708   0.740   5.251  16.405  0.1537  0.1675  0.1764
 5098TIP3    H136709   0.767   5.215  16.489 -0.2696 -1.2678 -0.2841
 5098TIP3    H236710   0.666   5.198  16.378  0.5024  0.3729 -1.2696
 5099TIP3   OH236711   0.070   6.532   4.996 -0.3263 -0.1408 -0.0674
 5099TIP3    H136712   0.058   6.466   5.064  1.8025 -1.3518 -0.7767
 5099TIP3    H236713   0.001   6.513   4.932 -0.9039 -0.4625  0.6445
 5100TIP3   OH236714   6.183   6.641  15.308  0.6598  0.4737 -0.6281
 5100TIP3    H136715   6.088   6.630  15.318  0.6063  1.5564  0.2973
 5100TIP3    H236716   6.219   6.614  15.393  0.9207  2.5680 -0.0292
 5101TIP3   OH236717   1.858   2.015   1.633  0.5935  0.1792 -0.3876
 5101TIP3    H136718   1.778   2.009   1.580 -1.1739 -2.0356  2.2095
 5101TIP3    H236719   1.888   1.924   1.641  0.4141  0.2666  2.7055
 5102TIP3   OH236720   2.220   3.428  13.259  0.1265  0.3516 -0.1579
 5102TIP3    H136721   2.149   3.440  13.322 -1.2651 -1.4250 -1.2799
 5102TIP3    H236722   2.177   3.434  13.173  1.6720  1.0147 -0.9227
 5103TIP3   OH236723   6.024   4.818  15.730  0.3871  0.0544 -0.5318
 5103TIP3    H136724   6.003   4.841  15.821  2.1114  0.9281 -0.3184
 5103TIP3    H236725   6.048   4.725  15.734  1.0087  0.2322  0.0198
 5104TIP3   OH236726   0.589   1.178  16.989 -1.0098  0.3034 -0.7448
 5104TIP3    H136727   0.609   1.253  16.933  0.3441 -0.1581 -0.9121
 5104TIP3    H236728   0.602   1.210  17.078  0.8163 -0.0404 -0.8515
 5105TIP3   OH236729   4.572   1.389   4.011  0.0841  0.4921  0.3463
 5105TIP3    H136730   4.510   1.329   3.970 -2.3067  1.0421  2.8954
 5105TIP3    H236731   4.626   1.333   4.067  1.6183  0.0945 -1.4319
 5106TIP3   OH236732   3.490   4.214  13.374 -0.4759 -0.0312 -0.0655
 5106TIP3    H136733   3.409   4.195  13.423 -0.7959  2.3548  0.4271
 5106TIP3    H236734   3.462   4.273  13.304  0.9139  1.3031  0.4668
 5107TIP3   OH236735   5.472   1.527   3.514 -0.1467 -0.3404 -0.1353
 5107TIP3    H136736   5.458   1.515   3.420 -1.6480  0.8451 -0.1056
 5107TIP3    H236737   5.567   1.532   3.524  0.0145  0.0921 -1.6600
 5108TIP3   OH236738   2.804   2.186  15.157  0.1645  0.1200  0.1982
 5108TIP3    H136739   2.718   2.227  15.168  0.5654  0.7531  1.1161
 5108TIP3    H236740   2.835   2.170  15.246  2.1986  2.4765  0.0264
 5109TIP3   OH236741   4.105   5.436  15.280  0.3044  0.6776 -0.7080
 5109TIP3    H136742   4.125   5.483  15.361  3.1750  0.2556 -1.0755
 5109TIP3    H236743   4.074   5.350  15.308  3.0539 -0.1532  0.0399
 5110TIP3   OH236744   6.343   5.410  10.937  0.3932 -0.0768 -0.4579
 5110TIP3    H136745   6.308   5.458  10.862  0.2229  2.0398  0.8737
 5110TIP3    H236746   6.267   5.394  10.992  0.9909  2.1141  1.1540
 5111TIP3   OH236747   5.020   6.471   1.617 -0.1598 -0.2147 -0.3308
 5111TIP3    H136748   4.926   6.468   1.636 -0.1074 -1.1512 -0.1428
 5111TIP3    H236749   5.025   6.455   1.522 -0.0848 -3.6656  0.1109
 5112TIP3   OH236750   5.041   0.036  10.784  0.0959  0.0233 -0.2140
 5112TIP3    H136751   5.029   0.051  10.690  0.5296 -0.3684 -0.3355
 5112TIP3    H236752   5.035  -0.059  10.795  3.8751 -0.4344 -0.4737
 5113TIP3   OH236753   5.144   2.330   1.223  0.1213  0.3083  0.1029
 5113TIP3    H136754   5.096   2.369   1.297  0.7708  0.0857  0.6594
 5113TIP3    H236755   5.146   2.237   1.243 -0.1879  0.1761 -0.4902
 5114TIP3   OH236756   0.706   6.547   4.672 -0.7082  0.2038  0.1030
 5114TIP3    H136757   0.757   6.466   4.676  2.4347  2.0239  1.9060
 5114TIP3    H236758   0.674   6.559   4.761 -2.9535 -0.0173 -0.6303
 5115TIP3   OH236759   2.336   6.547   2.887  0.0741 -0.2567 -0.3629
 5115TIP3    H136760   2.374   6.635   2.880  1.3228  0.0040  4.9493
 5115TIP3    H236761   2.411   6.488   2.876  1.2381 -0.0026  4.1526
 5116TIP3   OH236762   2.749   6.723   4.197  0.3144 -0.6658 -0.7106
 5116TIP3    H136763   2.810   6.788   4.164 -0.4793  0.2343 -0.4366
 5116TIP3    H236764   2.787   6.696   4.281 -0.4998  1.1726  0.3140
 5117TIP3   OH236765   2.024   5.985   0.364  0.9276  0.1428 -0.1141
 5117TIP3    H136766   2.024   6.027   0.278  1.2051  2.9152  1.1149
 5117TIP3    H236767   2.101   5.928   0.364 -0.0447 -1.2595 -2.2388
 5118TIP3   OH236768   5.616   4.086   4.510 -0.1071 -0.0575 -0.1933
 5118TIP3    H136769   5.540   4.030   4.493  0.1243  0.0968 -1.9783
 5118TIP3    H236770   5.623   4.142   4.432  1.1448  0.7433  0.4470
 5119TIP3   OH236771   5.010   0.932  16.638 -0.4622  0.1948  0.8590
 5119TIP3    H136772   4.925   0.970  16.615 -1.1151 -0.0870  2.6146
 5119TIP3    H236773   5.064   0.945  16.560 -1.0259  3.5441  0.8628
 5120TIP3   OH236774   4.701   4.265   3.877 -0.3911 -0.1478 -0.0450
 5120TIP3    H136775   4.772   4.272   3.813  0.0162 -0.6352  0.3415
 5120TIP3    H236776   4.735   4.311   3.954 -0.6822  0.0175 -0.0144
 5121TIP3   OH236777   6.120   3.529   4.337  0.2042 -0.1900 -0.2656
 5121TIP3    H136778   6.047   3.502   4.281  0.2447 -1.9599  0.4723
 5121TIP3    H236779   6.165   3.447   4.359  0.8475  0.5699  1.4412
 5122TIP3   OH236780   5.819   1.110   1.800  0.0152 -0.2954 -0.1610
 5122TIP3    H136781   5.815   1.127   1.894  2.3901 -0.4522  0.0338
 5122TIP3    H236782   5.811   1.015   1.792 -0.7944 -0.2273 -0.1731
 5123TIP3   OH236783   4.844   1.473  11.790 -0.3674  0.0927 -0.3411
 5123TIP3    H136784   4.872   1.562  11.769  0.3704  0.1134  0.7015
 5123TIP3    H236785   4.876   1.457  11.878 -2.4066 -0.4026  0.3779
 5124TIP3   OH236786   0.017   3.920   2.981 -0.1304  0.5329 -0.2557
 5124TIP3    H136787  -0.077   3.929   2.968 -0.1913 -0.1529 -0.3184
 5124TIP3    H236788   0.056   3.947   2.898 -0.4148 -1.6827 -1.1975
 5125TIP3   OH236789   0.366   3.371  15.415  0.1238 -0.2593  0.2337
 5125TIP3    H136790   0.321   3.407  15.339  0.3951  1.3251  0.7802
 5125TIP3    H236791   0.459   3.380  15.395  0.2075  0.6945  0.9458
 5126TIP3   OH236792   4.838   2.484   0.805  0.3724 -0.2033  0.0265
 5126TIP3    H136793   4.818   2.391   0.802  2.9543 -0.8014 -1.5500
 5126TIP3    H236794   4.888   2.495   0.886  0.7210 -0.3452 -0.1687
 5127TIP3   OH236795   1.879   4.623  16.678 -0.0435  0.2666 -0.0144
 5127TIP3    H136796   1.838   4.549  16.633 -1.0347  0.8604 -0.1165
 5127TIP3    H236797   1.828   4.633  16.758 -0.1720  1.0689 -0.1841
 5128TIP3   OH236798   6.173   4.273   4.742 -0.3689  0.1423  0.1696
 5128TIP3    H136799   6.129   4.358   4.749 -1.7490 -0.4801 -0.5725
 5128TIP3    H236800   6.203   4.269   4.652  1.7210  0.7454  0.7697
 5129TIP3   OH236801   4.879   5.888  12.550 -0.2099  0.0976  0.2306
 5129TIP3    H136802   4.894   5.819  12.484 -2.0173 -0.5934  0.4832
 5129TIP3    H236803   4.786   5.880  12.571 -0.2762  2.1503  0.8333
 5130TIP3   OH236804   1.694   5.288   1.596 -0.4719 -0.6595 -0.1477
 5130TIP3    H136805   1.664   5.377   1.615  1.1420  0.3766 -2.0527
 5130TIP3    H236806   1.659   5.235   1.667 -3.8788  0.9796 -0.4056
 5131TIP3   OH236807   2.707   4.065  10.438  0.0847  0.0687  0.6343
 5131TIP3    H136808   2.725   4.148  10.392 -0.8836 -0.4975 -0.8445
 5131TIP3    H236809   2.793   4.037  10.469  0.4992  1.4100  0.7950
 5132TIP3   OH236810   4.337   5.210   5.936  0.2281  0.1286  0.9726
 5132TIP3    H136811   4.426   5.241   5.921 -0.3899  1.0340 -1.1440
 5132TIP3    H236812   4.310   5.252   6.018  1.1486  1.2194  0.7301
 5133TIP3   OH236813   4.780   0.042   3.794  0.1476 -0.6822  0.1277
 5133TIP3    H136814   4.760   0.132   3.821  0.1377 -0.9594  1.0649
 5133TIP3    H236815   4.700   0.011   3.753  0.3144 -0.0972 -0.6775
 5134TIP3   OH236816   6.191   0.314  12.678 -0.2781 -0.4760 -0.0075
 5134TIP3    H136817   6.209   0.313  12.584  1.1114 -0.0811  0.2335
 5134TIP3    H236818   6.270   0.351  12.717 -2.2650  3.3275  0.9896
 5135TIP3   OH236819   1.987   0.905  13.036  0.1558 -0.5676  0.5009
 5135TIP3    H136820   1.931   0.838  13.074 -0.6868 -0.2062 -0.0892
 5135TIP3    H236821   2.045   0.931  13.108  0.8613 -2.2868  0.6054
 5136TIP3   OH236822   0.040   2.569  11.786  0.0152  0.7250 -0.0184
 5136TIP3    H136823   0.054   2.619  11.705  0.3436  0.9764  0.1919
 5136TIP3    H236824   0.019   2.480  11.755 -0.3780  0.9421 -0.3872
 5137TIP3   OH236825   4.055   4.658   5.854 -0.0192 -0.2395 -0.3355
 5137TIP3    H136826   4.140   4.702   5.862  0.5380 -1.0842 -1.3064
 5137TIP3    H236827   4.000   4.720   5.807  0.0861  0.2709  0.2049
 5138TIP3   OH236828   2.394   1.069  16.077  0.6280  0.0902  0.6550
 5138TIP3    H136829   2.341   1.147  16.058  2.2694  0.8704 -0.9210
 5138TIP3    H236830   2.340   0.996  16.047  0.6910  0.9197 -1.6932
 5139TIP3   OH236831   0.897   4.260   6.055 -0.4810  0.8378  0.2877
 5139TIP3    H136832   0.927   4.256   5.964 -1.5321 -1.0525 -0.0429
 5139TIP3    H236833   0.974   4.236   6.106 -0.6515 -1.4579 -0.3856
 5140TIP3   OH236834   6.387   6.080   5.573  0.2470 -0.5694  0.2047
 5140TIP3    H136835   6.311   6.081   5.515  0.7659 -0.2416 -0.4831
 5140TIP3    H236836   6.395   6.170   5.604 -0.8566 -1.0133  1.9260
 5141TIP3   OH236837   6.423   3.765   5.207 -0.0348  0.0112 -0.1421
 5141TIP3    H136838   6.504   3.772   5.157 -0.4530 -0.8192 -0.9457
 5141TIP3    H236839   6.358   3.813   5.155 -0.5190 -1.0255 -0.5251
 5142TIP3   OH236840   2.943   2.663  11.761  0.0796 -0.4301 -0.6048
 5142TIP3    H136841   3.008   2.703  11.703 -0.3593  0.4135 -0.5320
 5142TIP3    H236842   2.880   2.733  11.778 -0.1813 -0.8747  0.3181
 5143TIP3   OH236843   4.344   2.452   1.487  0.5692  0.0391 -0.5235
 5143TIP3    H136844   4.426   2.484   1.524 -0.7875  2.0210  1.0283
 5143TIP3    H236845   4.343   2.483   1.397  0.8177  1.4758 -0.0502
 5144TIP3   OH236846   2.984   3.923  13.533 -0.2728  0.0114  0.7424
 5144TIP3    H136847   2.979   3.975  13.452  1.6919  1.3605  1.4306
 5144TIP3    H236848   3.026   3.842  13.506 -1.2106 -0.2738  0.0972
 5145TIP3   OH236849   2.415   4.057  13.477 -0.4778 -0.1309 -0.1190
 5145TIP3    H136850   2.449   4.137  13.436 -1.8539 -0.3042 -1.7526
 5145TIP3    H236851   2.374   4.087  13.558 -0.4486  0.7397 -0.4183
 5146TIP3   OH236852   6.589   5.283  11.810 -0.4702  0.2891  0.4083
 5146TIP3    H136853   6.601   5.336  11.889  1.4615  0.3825  0.1135
 5146TIP3    H236854   6.627   5.336  11.740 -1.4322 -0.1406 -0.4640
 5147TIP3   OH236855   2.969   4.411   0.326  1.1191 -0.1861  0.5736
 5147TIP3    H136856   2.905   4.423   0.257  0.5419 -0.8781  0.9715
 5147TIP3    H236857   3.018   4.493   0.329  0.2421  0.3549  0.2674
 5148TIP3   OH236858   3.056   4.280   4.998 -0.7093 -0.2942  1.2888
 5148TIP3    H136859   2.962   4.266   5.009 -0.5344 -0.7655  2.3127
 5148TIP3    H236860   3.082   4.220   4.928 -0.7952 -1.8196  2.5113
 5149TIP3   OH236861   2.319   3.613   1.006  0.2121  0.1565  0.0694
 5149TIP3    H136862   2.303   3.535   1.059 -0.8712 -1.1208 -2.0118
 5149TIP3    H236863   2.393   3.589   0.950 -0.3846  0.4642 -0.8663
 5150TIP3   OH236864   4.712   4.210  15.659 -0.3893  0.1254 -0.0346
 5150TIP3    H136865   4.686   4.140  15.599  1.4511 -1.0555  0.4396
 5150TIP3    H236866   4.733   4.284  15.602  0.0726 -0.5522 -0.7753
 5151TIP3   OH236867   0.782   6.694  14.262 -0.0701  0.2624  0.7005
 5151TIP3    H136868   0.781   6.611  14.216  0.2200  0.6144  0.0479
 5151TIP3    H236869   0.774   6.760  14.193 -2.1281  0.7336  1.3342
 5152TIP3   OH236870   5.969   6.734  11.279  0.4980  0.2659  0.6414
 5152TIP3    H136871   6.003   6.669  11.217  1.4845  0.7017  0.7097
 5152TIP3    H236872   5.891   6.769  11.237  1.1116  0.5011 -0.3283
 5153TIP3   OH236873   0.640   1.431  13.522  0.3415 -0.1286  1.0506
 5153TIP3    H136874   0.640   1.507  13.580  1.0227  1.2070 -0.5845
 5153TIP3    H236875   0.607   1.465  13.439 -1.4836 -2.1869  0.8660
 5154TIP3   OH236876   1.888   4.999   6.175 -0.0246  0.4217 -0.0849
 5154TIP3    H136877   1.875   5.031   6.264 -0.8780  0.2072 -0.1193
 5154TIP3    H236878   1.910   5.076   6.123  2.1081  0.3217  0.5967
 5155TIP3   OH236879   5.120   2.207  12.911  0.1077 -0.1449 -1.0746
 5155TIP3    H136880   5.103   2.197  12.818  0.6673  1.9239 -1.4549
 5155TIP3    H236881   5.201   2.159  12.926  0.0425 -0.4459 -1.6579
 5156TIP3   OH236882   1.755   3.104   0.678  0.1759 -0.1513 -0.6505
 5156TIP3    H136883   1.791   3.121   0.764  0.2750  0.9860 -0.9045
 5156TIP3    H236884   1.787   3.175   0.623  0.0430 -0.8073 -1.6087
 5157TIP3   OH236885   5.687   1.433   0.761 -0.2791 -0.0955  0.0837
 5157TIP3    H136886   5.779   1.448   0.783  0.4074 -3.7794  0.2768
 5157TIP3    H236887   5.643   1.425   0.846 -0.1092 -1.4706  0.0678
 5158TIP3   OH236888   4.668   4.956  16.083 -0.2223 -0.0313  0.0911
 5158TIP3    H136889   4.671   5.034  16.029 -0.4560  1.1467  1.6893
 5158TIP3    H236890   4.728   4.975  16.155 -1.5625 -0.5950  1.4107
 5159TIP3   OH236891   6.451   1.834  11.446  0.1059  0.4639 -0.3909
 5159TIP3    H136892   6.475   1.770  11.513  0.1244  0.2998 -0.5538
 5159TIP3    H236893   6.359   1.854  11.463  0.0532  0.2667 -0.4455
 5160TIP3   OH236894   3.282   4.159  13.063  0.1011  0.1220  0.4797
 5160TIP3    H136895   3.269   4.149  12.968 -1.0141 -1.3068  0.7548
 5160TIP3    H236896   3.309   4.072  13.092  5.1923  1.4837  0.8636
 5161TIP3   OH236897   2.121   4.243   0.592 -0.6866 -0.4951 -0.5834
 5161TIP3    H136898   2.183   4.183   0.634 -0.3001 -2.2260 -3.3452
 5161TIP3    H236899   2.172   4.321   0.572 -0.4937 -0.2730  0.6806
 5162TIP3   OH236900   6.412   0.328  14.347  0.1170 -0.2112  0.5123
 5162TIP3    H136901   6.462   0.402  14.382  1.7869 -0.8487 -0.4055
 5162TIP3    H236902   6.321   0.350  14.366  0.6158  1.7107  0.9580
 5163TIP3   OH236903   1.082   0.833   3.357 -0.2356 -0.1659 -0.1319
 5163TIP3    H136904   1.071   0.926   3.340 -1.6739 -0.2578  0.1962
 5163TIP3    H236905   0.996   0.795   3.340  0.3918 -1.4807 -0.5144
 5164TIP3   OH236906   3.903   6.323   3.440 -0.4863 -0.4537 -0.1828
 5164TIP3    H136907   3.871   6.235   3.461 -0.6979 -0.3382 -0.0326
 5164TIP3    H236908   3.966   6.343   3.509 -0.3520 -0.5299 -0.2794
 5165TIP3   OH236909   4.704   1.619   1.572 -0.7472  0.1421  0.2593
 5165TIP3    H136910   4.672   1.701   1.608 -0.4357  0.1833  0.4426
 5165TIP3    H236911   4.737   1.570   1.647 -1.3881 -0.3662  0.2267
 5166TIP3   OH236912   0.811   5.117   0.149 -0.1872  0.1657 -0.0536
 5166TIP3    H136913   0.813   5.052   0.220  1.8930 -0.0482 -0.2573
 5166TIP3    H236914   0.770   5.194   0.188  1.2269  0.1643  1.5167
 5167TIP3   OH236915   2.568   3.586  16.256  0.0878  0.4903  0.5545
 5167TIP3    H136916   2.664   3.591  16.265 -0.0524  0.1991  2.7045
 5167TIP3    H236917   2.542   3.514  16.312 -1.2742 -0.7460 -1.5420
 5168TIP3   OH236918   2.076   4.479   4.132  0.0563  0.0422  0.1384
 5168TIP3    H136919   2.116   4.401   4.092 -1.1111 -1.6924  2.1260
 5168TIP3    H236920   1.983   4.458   4.136 -0.8179  2.9069 -2.0557
 5169TIP3   OH236921   0.190   4.565  15.363  0.1090 -0.2641 -0.0993
 5169TIP3    H136922   0.207   4.620  15.287  1.9343  0.2650  0.6515
 5169TIP3    H236923   0.095   4.550  15.360 -0.3507  2.2157 -0.8219
 5170TIP3   OH236924   3.929   1.317   5.826 -0.2611 -0.3788 -0.1740
 5170TIP3    H136925   3.925   1.234   5.779 -0.4515 -0.5015  0.0557
 5170TIP3    H236926   3.936   1.292   5.918  0.2117 -0.1417 -0.1392
 5171TIP3   OH236927   5.841   4.824  15.389  0.1936 -0.0542  0.0968
 5171TIP3    H136928   5.785   4.817  15.312  0.6810 -0.1460 -0.2511
 5171TIP3    H236929   5.849   4.734  15.421 -0.0652 -0.0077  0.3008
 5172TIP3   OH236930   5.916   2.575   2.149 -0.2138 -0.2620 -0.4337
 5172TIP3    H136931   5.845   2.610   2.094 -0.7326 -0.0104  0.3679
 5172TIP3    H236932   5.872   2.513   2.207  0.3316 -0.5601 -0.3424
 5173TIP3   OH236933   0.119   0.763   0.855  0.0660 -0.7774  0.1332
 5173TIP3    H136934   0.182   0.782   0.925 -0.4039  1.3573  0.0498
 5173TIP3    H236935   0.164   0.791   0.775 -0.8950  0.7283  0.0718
 5174TIP3   OH236936   2.247   4.108  13.709 -0.1531 -0.1843 -0.2815
 5174TIP3    H136937   2.291   4.056  13.776 -0.2776 -1.8645 -1.4403
 5174TIP3    H236938   2.177   4.051  13.676  0.4038  0.2406 -2.3827
 5175TIP3   OH236939   3.289   2.963  14.030 -0.0686 -0.6768  0.8967
 5175TIP3    H136940   3.240   2.965  14.113 -0.8603 -1.6077  0.4780
 5175TIP3    H236941   3.255   3.037  13.980 -1.1690 -1.3900  0.5606
 5176TIP3   OH236942   1.207   5.296   6.186 -0.2705  0.3447 -0.0944
 5176TIP3    H136943   1.175   5.373   6.139 -1.0484  0.5667  0.7721
 5176TIP3    H236944   1.275   5.329   6.244  0.4761  0.1184 -0.8207
 5177TIP3   OH236945   0.971   0.742   4.951 -0.1552  1.0327 -0.0410
 5177TIP3    H136946   0.939   0.785   4.872 -1.1368  0.5811  0.1016
 5177TIP3    H236947   0.898   0.746   5.012  1.0076  2.5581  1.3406
 5178TIP3   OH236948   0.822   5.581   5.094 -0.1387 -0.1411 -0.0900
 5178TIP3    H136949   0.827   5.523   5.170  0.9273  2.6736  2.1835
 5178TIP3    H236950   0.897   5.556   5.040  1.9916  0.7558  2.2337
 5179TIP3   OH236951   2.755   5.702   5.676  0.3055  0.1017  0.2019
 5179TIP3    H136952   2.778   5.733   5.588  1.3413 -3.6857 -1.0521
 5179TIP3    H236953   2.659   5.697   5.675  0.3066  0.1043 -0.7118
 5180TIP3   OH236954   5.221   0.396  14.378 -0.7465  0.3118 -0.3722
 5180TIP3    H136955   5.249   0.471  14.430 -0.7084 -0.5882  0.9503
 5180TIP3    H236956   5.274   0.401  14.298  0.0985  1.0184  0.2175
 5181TIP3   OH236957   0.276   2.992  15.730  0.4891 -0.6718 -0.1630
 5181TIP3    H136958   0.233   2.990  15.815  1.2161  0.1859  0.2453
 5181TIP3    H236959   0.263   3.081  15.699  1.1632 -0.6698 -0.4536
 5182TIP3   OH236960   5.103   2.348  15.040 -0.1182 -0.4200  0.2084
 5182TIP3    H136961   5.053   2.354  15.122  2.4060  1.2930  1.7694
 5182TIP3    H236962   5.091   2.433  14.998  0.0673 -0.6456 -0.3056
 5183TIP3   OH236963   4.221   3.236   1.135  0.1946 -0.9639 -0.1803
 5183TIP3    H136964   4.233   3.331   1.140  0.3018 -0.9549 -0.5369
 5183TIP3    H236965   4.221   3.217   1.041 -1.6603 -1.0969 -0.1907
 5184TIP3   OH236966   4.461   6.105   2.630  0.1952  0.6201 -0.3807
 5184TIP3    H136967   4.501   6.189   2.650 -1.1557  1.4425 -1.0446
 5184TIP3    H236968   4.486   6.086   2.540  0.9568  0.0111 -0.0604
 5185TIP3   OH236969   2.303   4.633  11.569 -0.0059  0.0024 -0.7680
 5185TIP3    H136970   2.371   4.626  11.636 -0.1213  0.4497 -0.5993
 5185TIP3    H236971   2.223   4.651  11.617  0.3034  2.8487 -1.1120
 5186TIP3   OH236972   4.464   5.077  15.696 -0.9130  1.0752 -0.2943
 5186TIP3    H136973   4.455   4.998  15.751  4.0460 -0.1980 -0.7992
 5186TIP3    H236974   4.448   5.046  15.607  1.8105  0.2493 -0.5844
 5187TIP3   OH236975   5.523   1.104  10.954  0.3873  0.0680  0.1593
 5187TIP3    H136976   5.508   1.168  10.884 -0.0480 -1.1084 -0.8721
 5187TIP3    H236977   5.597   1.052  10.923 -1.2119 -1.9007 -0.5396
 5188TIP3   OH236978   0.350   4.140   4.273  0.4543  0.2066 -0.6227
 5188TIP3    H136979   0.380   4.219   4.318 -1.6098  1.3536 -1.1473
 5188TIP3    H236980   0.363   4.070   4.337 -1.1402  1.5832  1.3374
 5189TIP3   OH236981   3.765   0.578   3.442  0.2354  0.3521  0.0498
 5189TIP3    H136982   3.802   0.505   3.491  1.4293  0.2872 -0.8836
 5189TIP3    H236983   3.816   0.580   3.361 -0.5585  1.4914 -0.4454
 5190TIP3   OH236984   3.325   4.316  12.789 -0.2916  0.5334  0.1765
 5190TIP3    H136985   3.340   4.230  12.752  0.9125  1.2309 -1.0097
 5190TIP3    H236986   3.233   4.313  12.818 -0.4017 -0.9804 -0.2308
 5191TIP3   OH236987   1.611   6.641  11.440  0.2088 -0.5208  0.3527
 5191TIP3    H136988   1.612   6.697  11.518  2.2996  0.3221 -0.1910
 5191TIP3    H236989   1.605   6.703  11.367  0.8438 -1.1102 -0.2136
 5192TIP3   OH236990   3.185   0.562   1.924  0.3550  0.0830  0.2882
 5192TIP3    H136991   3.228   0.647   1.924 -0.1984  0.3804 -0.7255
 5192TIP3    H236992   3.257   0.499   1.919  0.7075  0.5524 -0.8154
 5193TIP3   OH236993   5.433   3.397  14.366  0.3711 -0.1768  0.4363
 5193TIP3    H136994   5.447   3.453  14.442  1.3689 -1.2918  1.1132
 5193TIP3    H236995   5.342   3.370  14.371 -0.3406  1.9264 -0.3115
 5194TIP3   OH236996   5.695   3.282  12.978 -0.6354 -0.1267  0.1907
 5194TIP3    H136997   5.777   3.248  13.014 -0.5785 -0.8252 -0.5633
 5194TIP3    H236998   5.693   3.373  13.007  0.4973 -0.0479  0.0912
 5195TIP3   OH236999   4.606   3.334  16.074 -0.0879  0.2593 -0.3043
 5195TIP3    H137000   4.624   3.379  16.157 -1.5984  0.0784  0.1467
 5195TIP3    H237001   4.538   3.270  16.096 -1.2410  0.8867 -1.8828
 5196TIP3   OH237002   4.022   0.154   5.731  0.4363 -0.1392 -0.2117
 5196TIP3    H137003   4.014   0.107   5.815 -0.5882 -0.2600 -0.3693
 5196TIP3    H237004   4.045   0.085   5.668 -1.8058 -0.6138 -0.5850
 5197TIP3   OH237005   1.538   1.983   2.573 -0.2914  0.1221  0.2116
 5197TIP3    H137006   1.632   1.996   2.584 -0.4100  1.1386  0.1069
 5197TIP3    H237007   1.531   1.912   2.509  0.4099  0.4285 -0.2168
 5198TIP3   OH237008   5.131   3.432  10.267 -0.1809 -0.2299 -0.4250
 5198TIP3    H137009   5.175   3.513  10.294  1.5144 -0.9681 -0.8055
 5198TIP3    H237010   5.145   3.371  10.340  1.1894 -1.0769 -1.3388
 5199TIP3   OH237011   5.152   5.979  13.857  0.4270 -0.1624 -0.0831
 5199TIP3    H137012   5.089   6.032  13.808 -0.0364 -0.7870 -0.1709
 5199TIP3    H237013   5.236   5.994  13.813  0.5170  1.3196  0.5351
 5200TIP3   OH237014   1.452   4.758   1.070 -0.2554  0.0282 -0.4608
 5200TIP3    H137015   1.411   4.751   1.156 -0.5180 -0.8844 -0.6462
 5200TIP3    H237016   1.546   4.748   1.087 -0.2931  0.0116 -0.2661
 5201TIP3   OH237017   4.408   0.526   5.792  0.0973  0.0133  0.4762
 5201TIP3    H137018   4.346   0.548   5.862  0.6345  0.3134  0.8619
 5201TIP3    H237019   4.481   0.485   5.838 -0.4575 -1.7447 -0.1231
 5202TIP3   OH237020   1.916   3.884  15.918 -0.0662  0.0056 -0.0542
 5202TIP3    H137021   1.904   3.883  16.013 -2.0513  0.6791 -0.2514
 5202TIP3    H237022   1.947   3.973  15.899 -2.0478  0.6961 -0.2369
 5203TIP3   OH237023   6.164   3.653   0.272  0.1878 -0.0883  0.6171
 5203TIP3    H137024   6.097   3.711   0.308  0.2391  0.7957 -0.6185
 5203TIP3    H237025   6.154   3.571   0.319 -0.9443  0.4300  1.3102
 5204TIP3   OH237026   5.602   4.994   1.036  0.2310  0.1507 -0.2948
 5204TIP3    H137027   5.660   4.996   1.112 -0.5549  0.6875  0.2992
 5204TIP3    H237028   5.596   5.085   1.006 -0.2801  0.1027 -0.3608
 5205TIP3   OH237029   6.695   5.845   1.856 -0.5855  0.1926 -0.0211
 5205TIP3    H137030   6.634   5.774   1.834 -0.3655 -0.5691  1.6458
 5205TIP3    H237031   6.643   5.925   1.849 -1.5705 -0.3724  0.5491
 5206TIP3   OH237032   6.060   4.648  12.802  0.0299  0.7576  0.2703
 5206TIP3    H137033   6.051   4.739  12.775 -0.9719  0.0951 -1.7531
 5206TIP3    H237034   5.971   4.614  12.804  0.5417 -0.9118 -1.8538
 5207TIP3   OH237035   2.157   2.221   5.522  0.4379 -0.6693 -0.1595
 5207TIP3    H137036   2.239   2.241   5.567 -0.5195 -2.2820  2.5220
 5207TIP3    H237037   2.153   2.125   5.521 -1.4369 -0.6256 -0.1237
 5208TIP3   OH237038   6.056   4.166  16.616  0.6124 -0.4665  0.0935
 5208TIP3    H137039   6.073   4.193  16.707  4.4806 -0.0290 -0.5966
 5208TIP3    H237040   6.108   4.226  16.563  0.8314 -2.5374 -2.2049
 5209TIP3   OH237041   3.676   4.749  15.265  0.6090  0.2680  0.4113
 5209TIP3    H137042   3.771   4.743  15.258  0.5683  0.9195 -1.1764
 5209TIP3    H237043   3.658   4.739  15.359  2.1985 -0.1995  0.6998
 5210TIP3   OH237044   4.178   2.371   5.447  0.2625 -0.1588 -0.8673
 5210TIP3    H137045   4.161   2.369   5.541  2.9613  0.1492 -0.3119
 5210TIP3    H237046   4.091   2.382   5.407 -0.9146 -0.0954  1.5628
 5211TIP3   OH237047   4.227   1.859  11.212  0.2745 -0.3565 -0.6114
 5211TIP3    H137048   4.203   1.927  11.148  3.5309  1.6212  0.0339
 5211TIP3    H237049   4.312   1.887  11.246  0.0833 -2.9074  2.4335
 5212TIP3   OH237050   1.577   0.978  17.062 -0.1670  0.3972 -0.1657
 5212TIP3    H137051   1.587   0.890  17.097 -0.2068  0.6366  0.4621
 5212TIP3    H237052   1.665   1.004  17.034  0.2458  0.9309  1.5363
 5213TIP3   OH237053   4.976   0.794   3.344  0.2633 -0.1564 -0.7380
 5213TIP3    H137054   4.898   0.851   3.348 -0.0813 -0.7121  1.5315
 5213TIP3    H237055   4.969   0.751   3.259 -1.3905  0.5414 -0.9975
 5214TIP3   OH237056   0.304   2.217  16.650  0.4983 -0.0374 -0.6669
 5214TIP3    H137057   0.396   2.234  16.629  0.6578 -0.3753 -0.2459
 5214TIP3    H237058   0.267   2.303  16.668  1.1350 -0.0384  0.7728
 5215TIP3   OH237059   2.479   1.934   1.650 -0.0878  0.2067  0.5024
 5215TIP3    H137060   2.514   1.986   1.578  0.0848 -0.0576  0.3940
 5215TIP3    H237061   2.510   1.845   1.633 -1.1134 -0.0992  0.2145
 5216TIP3   OH237062   5.785   0.139   0.783 -0.4110 -0.2646 -0.1425
 5216TIP3    H137063   5.717   0.201   0.758 -0.5835  0.2399  1.4386
 5216TIP3    H237064   5.854   0.193   0.821 -0.1391 -0.9546  0.3704
 5217TIP3   OH237065   5.347   3.887  14.422  0.7612 -0.4395 -0.2796
 5217TIP3    H137066   5.255   3.858  14.422  0.2267  1.0922 -1.7685
 5217TIP3    H237067   5.377   3.869  14.511 -1.3253  0.0171  0.5886
 5218TIP3   OH237068   5.549   0.988   6.350 -0.0008 -0.4225 -0.5487
 5218TIP3    H137069   5.486   1.050   6.314  1.1507  0.3215 -1.3365
 5218TIP3    H237070   5.633   1.031   6.341  0.7095 -1.6525 -0.0722
 5219TIP3   OH237071   5.318   1.701  14.208  0.2444  0.6301 -0.5813
 5219TIP3    H137072   5.281   1.626  14.255  0.5626  0.9822  0.2369
 5219TIP3    H237073   5.264   1.708  14.129 -0.1236 -0.1317 -0.4083
 5220TIP3   OH237074   5.076   5.423  11.883  0.4242 -0.7620  0.4358
 5220TIP3    H137075   5.100   5.331  11.883  0.4495 -0.7600  1.2490
 5220TIP3    H237076   5.056   5.443  11.791  2.5026 -1.0353 -0.1180
 5221TIP3   OH237077   6.754   3.144   2.327 -0.0536  0.6418 -0.6475
 5221TIP3    H137078   6.794   3.057   2.338 -0.4677  0.4973 -0.2534
 5221TIP3    H237079   6.731   3.172   2.415  0.0734  1.1559 -0.7737
 5222TIP3   OH237080   2.136   5.023  12.659 -0.0254 -0.0160 -0.1447
 5222TIP3    H137081   2.152   5.095  12.720  1.0264 -1.9568  2.0196
 5222TIP3    H237082   2.047   5.037  12.629 -0.7846  0.8193  2.2255
 5223TIP3   OH237083   2.557   1.847   2.722  0.1881 -0.3707  0.4637
 5223TIP3    H137084   2.569   1.754   2.703 -0.4969 -0.2300 -0.7625
 5223TIP3    H237085   2.472   1.869   2.682  0.0106  0.6186  1.3485
 5224TIP3   OH237086   6.270   2.998  12.605 -0.5306  0.5219 -0.5175
 5224TIP3    H137087   6.244   3.065  12.667 -1.6651 -0.2844 -0.0901
 5224TIP3    H237088   6.365   2.990  12.616 -0.8540 -0.5420  2.1147
 5225TIP3   OH237089   3.122   4.365   3.805  0.2238 -0.2769 -0.7238
 5225TIP3    H137090   3.092   4.348   3.895 -1.6998  0.4032 -1.2082
 5225TIP3    H237091   3.217   4.374   3.814  0.1504 -0.8437  1.1440
 5226TIP3   OH237092   0.873   5.036  17.124  0.4700  0.4707  0.6366
 5226TIP3    H137093   0.885   4.996  17.038 -1.4435  1.2647 -0.0570
 5226TIP3    H237094   0.869   4.963  17.185 -2.1831 -0.4360 -0.4888
 5227TIP3   OH237095   1.261   0.943   4.421 -0.6382  0.2308  0.0854
 5227TIP3    H137096   1.214   1.026   4.423 -0.4278  0.4887 -2.1787
 5227TIP3    H237097   1.352   0.968   4.405 -0.1959 -0.3677  1.5923
 5228TIP3   OH237098   4.965   5.335   1.730 -0.2989  0.4789  0.2130
 5228TIP3    H137099   4.913   5.405   1.692 -0.1844  0.8919  0.8018
 5228TIP3    H237100   4.901   5.271   1.760 -0.4179  0.4755 -0.0425
 5229TIP3   OH237101   0.977   4.706   2.838 -0.6630  0.3700  0.1704
 5229TIP3    H137102   1.052   4.738   2.787 -0.7343 -0.3211 -0.3819
 5229TIP3    H237103   0.980   4.611   2.827 -0.7975  0.2193  1.2988
 5230TIP3   OH237104   5.123   0.287  13.901 -0.0844  0.0679 -0.0636
 5230TIP3    H137105   5.191   0.260  13.962  1.5300  0.2364 -1.6986
 5230TIP3    H237106   5.112   0.381  13.917  1.5660  0.4829 -1.1138
 5231TIP3   OH237107   4.054   0.865  14.018  0.4463  0.1709  0.0827
 5231TIP3    H137108   4.027   0.922  13.946  0.4534 -0.2347 -0.2419
 5231TIP3    H237109   3.975   0.855  14.071  0.7280  1.3985  0.7705
 5232TIP3   OH237110   3.911   2.109  14.843  0.5452 -0.2455  0.1804
 5232TIP3    H137111   3.835   2.149  14.800  0.9121  0.9044  0.5411
 5232TIP3    H237112   3.912   2.019  14.812  0.2246  0.2702 -1.4284
 5233TIP3   OH237113   0.663   2.557  12.356  0.1421  0.5127  0.5343
 5233TIP3    H137114   0.666   2.630  12.293  1.5048  0.8172  0.9152
 5233TIP3    H237115   0.752   2.554  12.393  0.0803 -1.2742  0.6166
 5234TIP3   OH237116   5.619   0.279   6.543  0.4207  0.1235  0.0642
 5234TIP3    H137117   5.597   0.197   6.499  0.5773  0.4270 -0.6095
 5234TIP3    H237118   5.714   0.282   6.541  0.4264  0.1619  0.3915
 5235TIP3   OH237119   6.334   3.466  15.006  0.0786  0.0991  0.3092
 5235TIP3    H137120   6.401   3.483  15.072  1.8454 -1.7173 -0.8886
 5235TIP3    H237121   6.274   3.403  15.047 -0.6645  1.3394  1.2038
 5236TIP3   OH237122   2.984   1.022  14.313  0.4390 -0.1562  0.3580
 5236TIP3    H137123   2.896   1.016  14.276  0.0571  0.3152  1.1568
 5236TIP3    H237124   2.988   0.950  14.377  0.1682  0.5945  1.2379
 5237TIP3   OH237125   5.400   6.402   2.520  0.3652  0.1563 -0.1716
 5237TIP3    H137126   5.465   6.351   2.569 -0.9667  0.1834  1.7098
 5237TIP3    H237127   5.369   6.342   2.453  1.0381 -0.4657  0.0568
 5238TIP3   OH237128   5.364   2.113  14.500  0.1246  0.4018  0.2584
 5238TIP3    H137129   5.314   2.194  14.491 -2.0502 -1.0041 -1.2199
 5238TIP3    H237130   5.298   2.044  14.504  1.8898 -1.5380 -1.4873
 5239TIP3   OH237131   6.637   4.717   3.259 -0.2237  0.0674 -0.3330
 5239TIP3    H137132   6.723   4.717   3.301 -0.0457 -1.9318 -0.6003
 5239TIP3    H237133   6.655   4.727   3.166 -0.5259  2.8627 -0.1708
 5240TIP3   OH237134   5.228   1.390   1.219 -0.5122  0.0609  0.1432
 5240TIP3    H137135   5.157   1.412   1.159 -1.1256  0.0692  0.8478
 5240TIP3    H237136   5.202   1.305   1.256  0.8497 -0.9316 -1.0793
 5241TIP3   OH237137   4.211   0.108  17.044 -0.4358  0.0368  0.5304
 5241TIP3    H137138   4.293   0.086  17.089  0.7351  1.8390 -0.5570
 5241TIP3    H237139   4.167   0.168  17.104 -0.1593  0.3461  0.4294
 5242TIP3   OH237140   6.752   3.816   1.504  0.0655  0.4713 -0.2442
 5242TIP3    H137141   6.838   3.775   1.509 -0.3340 -0.4376 -0.4775
 5242TIP3    H237142   6.695   3.746   1.471 -1.0316  0.6167  1.2576
 5243TIP3   OH237143   3.741   2.665  13.411 -0.0101  0.8493  0.0176
 5243TIP3    H137144   3.834   2.683  13.425  0.2802  0.0680 -0.8032
 5243TIP3    H237145   3.736   2.570  13.406 -0.4124  0.9212 -2.5904
 5244TIP3   OH237146   5.840   4.766   5.638 -0.2870 -0.0718 -0.2157
 5244TIP3    H137147   5.933   4.742   5.642  0.0664  1.0781 -1.2413
 5244TIP3    H237148   5.806   4.717   5.564  0.1570  1.5612 -1.5523
 5245TIP3   OH237149   5.788   0.199   0.087  0.0292 -0.3631  0.7413
 5245TIP3    H137150   5.818   0.139   0.019  0.5245 -0.8393  1.3599
 5245TIP3    H237151   5.827   0.283   0.065 -2.2346  0.2850 -1.2411
 5246TIP3   OH237152   2.448   0.046   5.479 -0.1508  0.2103  0.4461
 5246TIP3    H137153   2.370   0.095   5.507 -1.1226 -0.3812 -1.0988
 5246TIP3    H237154   2.511   0.114   5.455 -0.8062  0.7102  0.0883
 5247TIP3   OH237155   2.011   4.542  13.613  0.6343  0.3994 -0.2324
 5247TIP3    H137156   1.955   4.548  13.691  1.0745 -1.0687  0.2227
 5247TIP3    H237157   1.998   4.626  13.568 -0.8977  0.6222  0.5493
 5248TIP3   OH237158   6.481   2.011  16.501 -0.0428 -0.3242  0.1452
 5248TIP3    H137159   6.563   2.051  16.475 -0.9290  0.1872 -2.0609
 5248TIP3    H237160   6.473   1.933  16.446 -2.0607  0.8816 -1.4311
 5249TIP3   OH237161   5.103   2.077   2.556 -0.3330  0.3843 -0.0801
 5249TIP3    H137162   5.157   2.132   2.498 -0.0496 -0.9470 -1.1231
 5249TIP3    H237163   5.054   2.020   2.496 -1.6755  0.4353  0.9233
 5250TIP3   OH237164   5.724   5.884   1.698 -0.1972 -0.1925 -0.4235
 5250TIP3    H137165   5.724   5.967   1.650 -3.5181 -0.3507 -0.9925
 5250TIP3    H237166   5.783   5.827   1.648  0.4755  1.1881 -1.2632
 5251TIP3   OH237167   6.696   2.837   0.235  0.2674 -0.0287  0.1148
 5251TIP3    H137168   6.714   2.919   0.282  2.1505  0.2973 -1.0942
 5251TIP3    H237169   6.602   2.841   0.215  0.2851  1.7492  0.2460
 5252TIP3   OH237170   5.965   2.000  11.516  0.5459  0.1104 -0.2109
 5252TIP3    H137171   5.935   2.040  11.597 -0.2444 -2.0181  0.6214
 5252TIP3    H237172   5.901   1.931  11.498  1.7444 -0.6960 -1.6144
 5253TIP3   OH237173   4.189   0.053  12.875 -0.0544  0.1474  0.2706
 5253TIP3    H137174   4.094   0.063  12.867 -0.0947  0.0656  0.6133
 5253TIP3    H237175   4.224   0.085  12.792 -0.4521 -0.8023 -0.2826
 5254TIP3   OH237176   4.094   4.512   3.878 -0.1065 -0.4728 -0.1011
 5254TIP3    H137177   4.160   4.580   3.887  0.0266 -0.4368 -1.2072
 5254TIP3    H237178   4.144   4.431   3.865 -0.2678 -0.5889  0.0023
 5255TIP3   OH237179   6.277   6.417  16.262 -0.2789 -0.2910  0.0276
 5255TIP3    H137180   6.191   6.376  16.255 -0.5961  0.6372 -2.8529
 5255TIP3    H237181   6.258   6.511  16.264  0.6425 -0.0352 -1.7061
 5256TIP3   OH237182   6.184   0.966  11.902  0.6031 -0.4599  0.2773
 5256TIP3    H137183   6.215   1.032  11.841 -0.1815 -2.2076 -2.1624
 5256TIP3    H237184   6.262   0.916  11.925  0.6139 -1.1097 -1.0629
 5257TIP3   OH237185   3.055   3.873   4.299 -0.8247  0.6965 -0.0449
 5257TIP3    H137186   3.113   3.915   4.363  0.6605  0.2925 -1.0870
 5257TIP3    H237187   3.090   3.784   4.290 -1.8037  0.3414 -0.4830
 5258TIP3   OH237188   4.961   4.363   0.815 -0.0840  0.1050 -0.1574
 5258TIP3    H137189   5.009   4.281   0.806  0.8085  0.7499 -1.3992
 5258TIP3    H237190   4.890   4.342   0.876  0.5633 -1.3868  0.1215
 5259TIP3   OH237191   0.212   0.894   2.567  0.0289  0.3063 -0.0309
 5259TIP3    H137192   0.230   0.842   2.489 -0.3928  1.1661 -0.7183
 5259TIP3    H237193   0.296   0.896   2.614  1.0423  1.8403 -1.7389
 5260TIP3   OH237194   0.489   6.475  10.857  1.0399 -0.4255  0.1057
 5260TIP3    H137195   0.547   6.550  10.874  1.1473 -0.3692 -0.5057
 5260TIP3    H237196   0.526   6.433  10.779 -0.4023  0.2847 -1.0007
 5261TIP3   OH237197   6.272   2.432   2.551  0.8051 -0.0333  0.3271
 5261TIP3    H137198   6.183   2.408   2.577  0.2074  0.8741 -0.8025
 5261TIP3    H237199   6.317   2.348   2.538  0.2204 -0.4959  1.1805
 5262TIP3   OH237200   5.331   5.425  16.636  0.0841  0.0257 -0.0247
 5262TIP3    H137201   5.313   5.419  16.542  1.0609 -0.1346 -0.2070
 5262TIP3    H237202   5.248   5.399  16.677  0.1173 -1.5071 -0.8474
 5263TIP3   OH237203   2.785   0.675   0.128  0.1502  0.0445  0.0579
 5263TIP3    H137204   2.752   0.757   0.166 -0.6700 -0.1899 -0.1287
 5263TIP3    H237205   2.733   0.663   0.049 -0.7552 -1.3993  0.8373
 5264TIP3   OH237206   1.382   4.836   2.943 -0.4666  0.5164 -0.4576
 5264TIP3    H137207   1.474   4.817   2.924 -0.4590  1.0036 -0.9380
 5264TIP3    H237208   1.378   4.841   3.039 -0.0612  0.1543 -0.4200
 5265TIP3   OH237209   0.573   3.009   5.815  0.2854 -0.7753 -0.5171
 5265TIP3    H137210   0.508   3.062   5.862  0.2331 -1.1621 -0.1398
 5265TIP3    H237211   0.657   3.035   5.853  0.5005  0.5959 -1.8343
 5266TIP3   OH237212   3.316   0.795   1.955  0.0456 -0.4329 -0.0627
 5266TIP3    H137213   3.308   0.774   2.049 -1.3395 -0.4390 -0.1578
 5266TIP3    H237214   3.388   0.858   1.951 -0.9067  0.8329  1.2411
 5267TIP3   OH237215   3.520   4.054  15.575 -0.1953 -0.1157  0.1320
 5267TIP3    H137216   3.503   3.977  15.521 -4.1273  0.6608 -0.0092
 5267TIP3    H237217   3.532   4.126  15.513 -2.5804  0.3817  0.1539
 5268TIP3   OH237218   3.845   6.442  16.760 -0.5431 -0.7427  0.0540
 5268TIP3    H137219   3.770   6.479  16.713 -0.3433 -1.0819 -0.5401
 5268TIP3    H237220   3.856   6.354  16.724 -1.8528 -1.9616  2.4007
 5269TIP3   OH237221   3.451   5.029   4.453 -0.2702 -0.2417 -0.1607
 5269TIP3    H137222   3.464   5.092   4.524 -0.9141 -1.1462  0.8035
 5269TIP3    H237223   3.519   5.050   4.389 -0.4746  1.4217  0.1130
 5270TIP3   OH237224   1.754   4.884  15.277  0.0367 -0.0119 -0.2221
 5270TIP3    H137225   1.831   4.928  15.240  0.3808  1.1204  1.7374
 5270TIP3    H237226   1.740   4.927  15.361 -2.6217 -0.3557 -0.4220
 5271TIP3   OH237227   4.938   4.324   2.634  0.1545  0.0660  0.0852
 5271TIP3    H137228   4.903   4.352   2.718  0.4300  0.4614  0.0681
 5271TIP3    H237229   5.033   4.326   2.645  0.2000  0.4848 -0.3521
 5272TIP3   OH237230   4.843   3.382  14.358 -1.0628 -0.4429  0.9941
 5272TIP3    H137231   4.896   3.303  14.368  0.2028  0.0634 -1.1587
 5272TIP3    H237232   4.801   3.393  14.444  0.7275 -1.9874  2.1567
 5273TIP3   OH237233   2.630   6.626  16.272  0.1189 -0.3218 -0.1706
 5273TIP3    H137234   2.690   6.553  16.261  2.5760  1.5477 -0.1162
 5273TIP3    H237235   2.550   6.598  16.228  1.5173 -2.4029 -1.5836
 5274TIP3   OH237236   2.639   6.033  15.870 -0.3172  0.5517 -0.5121
 5274TIP3    H137237   2.613   5.945  15.843 -0.9712  1.1332 -1.8629
 5274TIP3    H237238   2.728   6.043  15.836  0.0671  0.1531  0.3287
 5275TIP3   OH237239   6.298   2.676  14.184 -0.3868 -0.5719 -0.0535
 5275TIP3    H137240   6.229   2.737  14.209  1.6675  0.9663  2.3440
 5275TIP3    H237241   6.316   2.696  14.092  0.0685  2.3841  0.5825
 5276TIP3   OH237242   3.960   0.527   2.967  0.5167 -0.0972 -0.3023
 5276TIP3    H137243   3.949   0.530   2.872  1.6639  1.4715 -0.4042
 5276TIP3    H237244   4.031   0.464   2.980  0.2151 -0.4790 -0.4454
 5277TIP3   OH237245   3.573   0.495   1.867 -0.1948 -0.1027  0.3960
 5277TIP3    H137246   3.540   0.548   1.940 -0.2323 -1.1146  1.1393
 5277TIP3    H237247   3.595   0.411   1.907 -0.4265 -0.7553 -0.8073
 5278TIP3   OH237248   3.732   2.448  17.168 -0.1599  0.4704  0.6005
 5278TIP3    H137249   3.814   2.484  17.132 -0.4117 -0.8431 -1.4534
 5278TIP3    H237250   3.750   2.354  17.178 -0.6570  0.5499  2.4794
 5279TIP3   OH237251   5.404   0.207  13.601  0.6892  0.2500 -0.3284
 5279TIP3    H137252   5.434   0.297  13.588  1.6713  0.1681  1.2396
 5279TIP3    H237253   5.478   0.153  13.575  0.8638 -0.0407  0.7477
 5280TIP3   OH237254   0.924   1.626  13.820 -0.1110  0.2548  0.2003
 5280TIP3    H137255   0.988   1.570  13.864  0.5072  0.3185 -0.5885
 5280TIP3    H237256   0.958   1.636  13.731 -1.8420 -0.6945 -0.6099
 5281TIP3   OH237257   5.804   6.417   0.651 -0.4007 -0.1301  0.8047
 5281TIP3    H137258   5.852   6.347   0.694 -0.3705 -1.1597 -0.8062
 5281TIP3    H237259   5.797   6.486   0.717  0.8324 -1.0637  1.9653
 5282TIP3   OH237260   1.937   2.440   2.105 -0.1051  0.2460 -0.2499
 5282TIP3    H137261   2.027   2.472   2.111 -0.3365  0.8581  0.0240
 5282TIP3    H237262   1.888   2.494   2.167 -0.4436 -0.8926  0.5084
 5283TIP3   OH237263   4.608   1.513  12.801 -0.6425 -0.4165  0.2313
 5283TIP3    H137264   4.689   1.518  12.851  0.3049  0.8916 -1.3334
 5283TIP3    H237265   4.553   1.582  12.837 -0.4703 -0.3389  0.3493
 5284TIP3   OH237266   1.720   2.919  16.222  0.2123 -0.2026  0.0408
 5284TIP3    H137267   1.728   2.940  16.315  0.0073  0.6898 -0.1314
 5284TIP3    H237268   1.639   2.867  16.216  0.0986 -0.0626  0.3279
 5285TIP3   OH237269   3.026   3.602   3.530  0.0252 -0.1432 -0.1872
 5285TIP3    H137270   2.938   3.591   3.566 -0.1997  1.2600 -0.2729
 5285TIP3    H237271   3.040   3.696   3.526  1.3010 -0.3245 -0.7611
 5286TIP3   OH237272   5.779   4.243   2.946 -0.2909 -0.1770 -0.0340
 5286TIP3    H137273   5.711   4.239   3.013  0.5155 -0.3515  0.7919
 5286TIP3    H237274   5.789   4.153   2.916 -1.3251  0.0392 -1.1065
 5287TIP3   OH237275   6.071   5.595  13.023 -0.4719 -0.7123 -0.2547
 5287TIP3    H137276   5.996   5.650  13.044 -0.0789 -0.2555 -0.0375
 5287TIP3    H237277   6.074   5.594  12.927  1.0619  1.8116 -0.3243
 5288TIP3   OH237278   3.850   5.936  13.156  0.2414  0.3697 -0.2550
 5288TIP3    H137279   3.802   5.853  13.156 -1.3695  1.2489 -0.2662
 5288TIP3    H237280   3.937   5.914  13.122  0.2248 -1.4905  0.7779
 5289TIP3   OH237281   4.981   0.865  13.385  0.0895 -0.8212 -0.3240
 5289TIP3    H137282   4.947   0.953  13.370 -1.5603 -1.5409 -1.1182
 5289TIP3    H237283   5.076   0.874  13.378  0.0343  1.0881  0.8345
 5290TIP3   OH237284   3.342   5.411   3.055 -0.7147  0.2181  0.2875
 5290TIP3    H137285   3.437   5.397   3.052 -0.6939  0.1560  1.0867
 5290TIP3    H237286   3.310   5.346   3.117 -1.4975 -0.8077 -1.1343
 5291TIP3   OH237287   1.716   1.310   3.074  0.0768 -0.0552 -0.0089
 5291TIP3    H137288   1.747   1.222   3.054 -0.9956 -0.4710  0.0844
 5291TIP3    H237289   1.621   1.305   3.064 -0.0604  0.9180  0.6444
 5292TIP3   OH237290   4.547   2.262   0.346  0.4911  0.3118  0.0842
 5292TIP3    H137291   4.593   2.179   0.358 -0.2931  0.0200  1.3149
 5292TIP3    H237292   4.586   2.301   0.268 -0.9352 -2.4274 -2.1911
 5293TIP3   OH237293   0.404   2.797   5.788 -0.5053  0.0131  0.2518
 5293TIP3    H137294   0.463   2.852   5.839 -0.8256  1.9242 -1.3296
 5293TIP3    H237295   0.392   2.844   5.706  0.6579 -3.3288 -2.0200
 5294TIP3   OH237296   1.207   1.304  16.992  0.2109  0.1642  0.6418
 5294TIP3    H137297   1.233   1.228  16.940 -1.3456 -0.2902  0.5010
 5294TIP3    H237298   1.240   1.285  17.080 -1.3267 -1.3439  0.9428
 5295TIP3   OH237299   5.520   5.317  14.668 -0.3587  0.2217  0.0709
 5295TIP3    H137300   5.600   5.265  14.665 -0.5502 -0.1011  0.5093
 5295TIP3    H237301   5.493   5.325  14.576 -0.9882 -1.4793  0.0847
 5296TIP3   OH237302   1.389   5.543   2.913  0.3286  0.0190  0.6142
 5296TIP3    H137303   1.300   5.545   2.949 -0.4855 -0.5843 -1.2422
 5296TIP3    H237304   1.406   5.450   2.896 -0.2887  0.3827 -2.6531
 5297TIP3   OH237305   0.998   4.754   3.412  0.7100  0.8124  0.0260
 5297TIP3    H137306   0.954   4.832   3.379 -0.4228 -0.0713 -0.6302
 5297TIP3    H237307   1.071   4.740   3.352 -0.8010 -0.2629 -1.6783
 5298TIP3   OH237308   1.595   6.166  17.015  0.2268  0.4406 -0.1635
 5298TIP3    H137309   1.677   6.117  17.011 -0.5745 -0.9822  0.3426
 5298TIP3    H237310   1.549   6.142  16.934 -1.0234 -1.2606  0.9927
 5299TIP3   OH237311   6.510   1.178   5.013  0.2633 -0.7985 -0.2987
 5299TIP3    H137312   6.536   1.160   4.922 -0.3952 -0.7134 -0.5103
 5299TIP3    H237313   6.464   1.262   5.008  1.2716 -0.1862  0.3126
 5300TIP3   OH237314   2.175   3.378   5.650 -0.6849  0.3493  0.6394
 5300TIP3    H137315   2.194   3.335   5.733  3.1953 -0.7522 -0.6237
 5300TIP3    H237316   2.098   3.332   5.616 -1.5972  0.0193  2.9667
 5301TIP3   OH237317   0.739   5.840   4.398  0.0016  0.1194 -0.5419
 5301TIP3    H137318   0.828   5.854   4.431  0.5677  2.2128 -2.6925
 5301TIP3    H237319   0.751   5.793   4.316 -0.5847  2.6479 -2.1687
 5302TIP3   OH237320   5.751   4.652   2.343  0.3493 -0.2815  0.3406
 5302TIP3    H137321   5.723   4.744   2.345 -0.2180 -0.4340  3.0870
 5302TIP3    H237322   5.670   4.602   2.351  0.6592 -1.0729 -1.1542
 5303TIP3   OH237323   4.082   4.188  11.466  0.8532 -0.1019  0.5359
 5303TIP3    H137324   4.132   4.268  11.479 -0.1124  0.7177 -0.6078
 5303TIP3    H237325   4.115   4.152  11.384 -0.5168  0.5576 -0.3427
 5304TIP3   OH237326   3.870   4.161   5.347 -0.0610  0.4631  0.5043
 5304TIP3    H137327   3.929   4.207   5.407 -0.6091  0.3261  1.1645
 5304TIP3    H237328   3.796   4.134   5.402 -1.5033  1.9554 -0.5909
 5305TIP3   OH237329   6.364   5.279  16.782  0.1240  0.1957 -0.2759
 5305TIP3    H137330   6.391   5.246  16.868 -0.4989 -0.2249 -0.2365
 5305TIP3    H237331   6.383   5.373  16.786  1.4835 -0.0612 -0.2201
 5306TIP3   OH237332   1.442   1.020  12.574  0.0505  0.0123  0.0025
 5306TIP3    H137333   1.508   1.023  12.643  0.1183 -0.5360 -0.0330
 5306TIP3    H237334   1.485   1.059  12.498 -0.3296  1.4574  0.5081
 5307TIP3   OH237335   5.631   0.489  14.990  0.4423  0.0478  0.5917
 5307TIP3    H137336   5.549   0.537  14.980 -0.8637 -1.9142  1.3268
 5307TIP3    H237337   5.638   0.473  15.084  0.9652 -0.9482  0.3976
 5308TIP3   OH237338   5.419   3.244  14.936  0.3783 -0.0541  0.4272
 5308TIP3    H137339   5.372   3.308  14.883  0.3289  0.1518  0.7210
 5308TIP3    H237340   5.509   3.247  14.903 -0.0855 -1.5086 -1.1629
 5309TIP3   OH237341   4.186   0.272   5.271 -0.3480  0.2599 -0.1572
 5309TIP3    H137342   4.124   0.297   5.339 -0.6730  1.1690 -0.7682
 5309TIP3    H237343   4.263   0.242   5.319 -2.0059 -3.0687  0.6685
 5310TIP3   OH237344   5.088   4.433  16.043  0.1490  0.6382  0.2099
 5310TIP3    H137345   5.033   4.371  16.091  0.2578 -1.0814 -1.7435
 5310TIP3    H237346   5.126   4.381  15.972  1.9903  2.4610 -0.2381
 5311TIP3   OH237347   5.282   1.119   4.390  0.3570  0.5901 -0.0925
 5311TIP3    H137348   5.216   1.105   4.458 -0.9630  0.4770 -1.3598
 5311TIP3    H237349   5.234   1.117   4.308  1.8982  0.8338 -1.0550
 5312TIP3   OH237350   4.063   0.194   6.126  0.1902 -0.5113 -0.3621
 5312TIP3    H137351   4.005   0.126   6.092 -2.8221  2.3608 -1.4769
 5312TIP3    H237352   4.099   0.236   6.047 -0.3251  0.9819  0.1685
 5313TIP3   OH237353   5.475   4.837  12.781 -0.0365 -0.1395 -0.1527
 5313TIP3    H137354   5.554   4.816  12.732 -0.2405  2.5097 -1.8362
 5313TIP3    H237355   5.403   4.819  12.720 -0.3037  3.0714 -0.9837
 5314TIP3   OH237356   1.238   4.786   6.435  0.3547  0.1061  0.6760
 5314TIP3    H137357   1.266   4.817   6.521 -0.7073 -0.5191  1.2692
 5314TIP3    H237358   1.155   4.743   6.451 -0.6798  1.3748 -0.9262
 5315TIP3   OH237359   5.252   4.245   3.303  0.6957 -0.7038  0.2038
 5315TIP3    H137360   5.346   4.248   3.320  0.6797 -1.9062  0.5475
 5315TIP3    H237361   5.237   4.159   3.265 -0.3196 -0.6589  0.4749
 5316TIP3   OH237362   2.025   3.646  13.992  0.0555  0.5659  0.4164
 5316TIP3    H137363   2.101   3.591  13.972  1.4985  1.9897  1.6928
 5316TIP3    H237364   1.954   3.607  13.941  1.6044 -0.8620 -0.8033
 5317TIP3   OH237365   0.623   6.355  10.654 -0.9082  0.3194  0.3279
 5317TIP3    H137366   0.606   6.261  10.650  1.3057 -0.1267 -0.3743
 5317TIP3    H237367   0.595   6.389  10.569  1.1444 -0.3427 -0.6946
 5318TIP3   OH237368   4.937   2.132  14.903 -0.0326  0.0430  0.2420
 5318TIP3    H137369   4.945   2.113  14.996  0.3721  1.2620  0.4725
 5318TIP3    H237370   4.946   2.227  14.897 -0.4960  0.0231 -0.9960
 5319TIP3   OH237371   1.944   4.329  12.366 -0.1823  0.5791 -0.0366
 5319TIP3    H137372   2.029   4.294  12.338  0.1639  1.2254  0.1802
 5319TIP3    H237373   1.883   4.302  12.297  0.2928  0.5111 -0.4384
 5320TIP3   OH237374   0.511   0.311  12.887  0.0306  0.4473 -0.1714
 5320TIP3    H137375   0.565   0.236  12.910  0.4715  0.1437 -2.0032
 5320TIP3    H237376   0.422   0.276  12.879  0.1041  0.2812 -0.2619
 5321TIP3   OH237377   6.258   3.135   3.464  0.4134 -0.2543  0.5104
 5321TIP3    H137378   6.258   3.224   3.497 -0.3106 -0.2271  0.4716
 5321TIP3    H237379   6.249   3.145   3.369 -1.5319 -0.3678  0.6391
 5322TIP3   OH237380   1.878   3.690   4.329  0.1376  0.0889  0.0902
 5322TIP3    H137381   1.791   3.722   4.353 -0.2236 -1.6305  1.2726
 5322TIP3    H237382   1.865   3.597   4.309  1.7354 -0.2613  0.5412
 5323TIP3   OH237383   5.798   1.212   5.685 -0.6914 -0.1122  0.0153
 5323TIP3    H137384   5.869   1.273   5.702  0.2021 -1.0291 -0.3466
 5323TIP3    H237385   5.787   1.165   5.768 -2.5798  1.6666  0.8913
 5324TIP3   OH237386   4.598   0.233  16.123  0.0264 -0.4040  0.2701
 5324TIP3    H137387   4.553   0.216  16.206 -0.9898  0.4131 -0.0781
 5324TIP3    H237388   4.579   0.156  16.069 -0.9658 -0.0858  0.1412
 5325TIP3   OH237389   5.014   6.507   0.438 -0.3384 -0.1512  0.0184
 5325TIP3    H137390   5.080   6.438   0.435  2.3874  2.0697  3.2916
 5325TIP3    H237391   5.017   6.546   0.351  1.8919 -0.8157 -0.2620
 5326TIP3   OH237392   3.623   0.325  12.779 -0.5612 -0.0038  0.0079
 5326TIP3    H137393   3.536   0.317  12.819 -1.3434  3.6268 -0.5875
 5326TIP3    H237394   3.684   0.323  12.853 -1.4185  0.2095  0.7416
 5327TIP3   OH237395   0.697   3.732  11.750  0.1508 -0.5401 -0.0143
 5327TIP3    H137396   0.789   3.756  11.740 -0.1299  0.6741  0.1780
 5327TIP3    H237397   0.675   3.759  11.839 -0.3992 -0.8116 -0.0634
 5328TIP3   OH237398   2.825   2.138  15.406  0.0378 -0.3612 -0.2410
 5328TIP3    H137399   2.854   2.213  15.458  0.2167 -1.3119  1.0709
 5328TIP3    H237400   2.828   2.064  15.466 -0.0775 -1.4493 -1.5207
 5329TIP3   OH237401   3.065   1.112  15.013  0.1097  0.3103  0.4398
 5329TIP3    H137402   3.043   1.143  15.101 -0.0369 -0.0667  0.5356
 5329TIP3    H237403   3.111   1.029  15.027  1.1500  0.8282  0.2217
 5330TIP3   OH237404   0.724   0.080  15.999 -0.2382  0.4547  0.6912
 5330TIP3    H137405   0.741   0.014  16.065 -0.5396  0.4930  0.8084
 5330TIP3    H237406   0.788   0.149  16.016 -0.1208  0.3297  0.7544
 5331TIP3   OH237407   2.292   4.468  11.025 -0.8156  0.0968 -0.0476
 5331TIP3    H137408   2.246   4.394  10.985 -0.2875  0.1098 -0.6843
 5331TIP3    H237409   2.324   4.520  10.952  1.8982 -0.9206  0.2759
 5332TIP3   OH237410   5.472   3.057   6.503 -0.1371  0.5709 -0.0931
 5332TIP3    H137411   5.489   2.992   6.434 -0.6794  0.3290 -0.0050
 5332TIP3    H237412   5.554   3.105   6.511 -0.2056  0.9061 -1.2387
 5333TIP3   OH237413   3.224   4.892   1.426 -0.2531 -0.0490 -0.0549
 5333TIP3    H137414   3.132   4.914   1.438 -0.5539 -0.3737 -1.6175
 5333TIP3    H237415   3.227   4.843   1.344  1.5716  1.9666 -1.3160
 5334TIP3   OH237416   5.936   2.096  15.878  0.0334 -0.4569 -0.0178
 5334TIP3    H137417   5.970   2.059  15.796 -0.0907 -0.2876 -0.1481
 5334TIP3    H237418   6.010   2.144  15.915  0.0298 -0.3585 -0.1373
 5335TIP3   OH237419   4.893   4.859   0.972 -0.7841 -0.0785  0.3280
 5335TIP3    H137420   4.937   4.887   1.053 -2.1359  3.8705 -0.0791
 5335TIP3    H237421   4.964   4.850   0.909  0.0144 -0.4194  1.2374
 5336TIP3   OH237422   2.399   4.055  16.776 -0.3756  0.3735 -0.1992
 5336TIP3    H137423   2.356   4.027  16.856 -0.6204  1.9443  0.2565
 5336TIP3    H237424   2.343   4.125  16.741 -0.6063 -0.6738 -2.0927
 5337TIP3   OH237425   0.046   3.283  16.086 -0.2928  0.4804  0.3546
 5337TIP3    H137426   0.025   3.374  16.108 -0.9896  0.6090 -0.7564
 5337TIP3    H237427  -0.039   3.245  16.063 -0.0355 -0.5166  1.0274
 5338TIP3   OH237428   5.267   5.270  15.808  0.0468  0.5113 -0.5377
 5338TIP3    H137429   5.266   5.344  15.747 -1.9745  0.5878 -0.4918
 5338TIP3    H237430   5.234   5.196  15.757  1.0345 -0.1172 -0.2904
 5339TIP3   OH237431   4.380   2.490  16.029  0.0048  0.3486  0.0481
 5339TIP3    H137432   4.397   2.498  15.936  0.5353  3.5763  0.2990
 5339TIP3    H237433   4.466   2.494  16.071 -0.0423 -2.8014  0.7473
 5340TIP3   OH237434   5.908   3.862  16.072 -0.5822  0.2748  0.2046
 5340TIP3    H137435   5.987   3.913  16.055  0.1899 -0.7504  0.6034
 5340TIP3    H237436   5.838   3.927  16.079 -0.5392  1.0035 -3.9919
 5341TIP3   OH237437   3.373   1.602  12.680 -0.2699 -0.1987 -0.0366
 5341TIP3    H137438   3.310   1.637  12.743 -0.6073  2.2905 -1.6166
 5341TIP3    H237439   3.319   1.577  12.605  0.3914 -0.1459 -0.5332
 5342TIP3   OH237440   1.776   3.307   3.435 -0.2544  0.6074  0.3586
 5342TIP3    H137441   1.753   3.399   3.446 -0.5995  0.4465  1.0426
 5342TIP3    H237442   1.872   3.307   3.431 -0.2840  1.1020 -0.7890
 5343TIP3   OH237443   5.914   3.060   2.977  0.4408 -0.4369  0.0951
 5343TIP3    H137444   5.937   3.008   3.054 -0.0663 -1.4579 -0.4191
 5343TIP3    H237445   5.997   3.074   2.931  0.4023 -2.3492 -0.6809
 5344TIP3   OH237446   0.642   4.133  16.276  0.4190 -0.0443 -0.7768
 5344TIP3    H137447   0.632   4.179  16.193 -1.3400 -1.2950 -1.3135
 5344TIP3    H237448   0.614   4.043  16.257  3.2071 -1.2645  0.3394
 5345TIP3   OH237449   2.121   2.172   6.367  0.0880  0.4099  0.6793
 5345TIP3    H137450   2.053   2.137   6.310  0.5656 -0.9592  0.8998
 5345TIP3    H237451   2.182   2.099   6.379  0.2443  0.7788  2.5594
 5346TIP3   OH237452   6.199   1.583  13.170  0.1411  0.0162 -0.3521
 5346TIP3    H137453   6.212   1.567  13.264 -0.3283  0.6843 -0.1681
 5346TIP3    H237454   6.156   1.503  13.138  1.9768 -1.0122 -0.3971
 5347TIP3   OH237455   5.110   3.204   2.841 -0.0867  0.2375  0.0757
 5347TIP3    H137456   5.020   3.173   2.829 -0.0933 -0.3904  1.5226
 5347TIP3    H237457   5.101   3.292   2.877 -0.0665  1.5790 -2.9065
 5348TIP3   OH237458   6.057   3.659  12.346 -0.0562  0.4729  0.2732
 5348TIP3    H137459   6.043   3.576  12.390  2.3108 -1.0418 -1.5612
 5348TIP3    H237460   6.150   3.660  12.325 -0.6696  1.8028 -3.1032
 5349TIP3   OH237461   3.261   1.114   2.960 -0.0150  0.4335  0.1406
 5349TIP3    H137462   3.237   1.124   3.052  0.8815 -0.6478  0.5113
 5349TIP3    H237463   3.230   1.194   2.918  1.2585  1.8376  1.7449
 5350TIP3   OH237464   2.300   3.101  12.118  0.1344 -0.6299  0.3196
 5350TIP3    H137465   2.291   3.032  12.183  1.7977 -0.2684  1.0003
 5350TIP3    H237466   2.368   3.159  12.154 -0.1031  0.4953 -0.9553
 5351TIP3   OH237467   1.062   2.066  11.458 -0.1028 -0.3568  0.3092
 5351TIP3    H137468   1.112   2.085  11.378 -1.5856  1.1327 -0.3345
 5351TIP3    H237469   1.078   2.142  11.514  0.0838 -0.8975  0.9958
 5352TIP3   OH237470   1.737   5.935  13.387  0.5355  0.3874 -0.0853
 5352TIP3    H137471   1.753   5.842  13.374 -2.1825 -0.1018 -0.3023
 5352TIP3    H237472   1.742   5.973  13.299 -0.4323  0.0689 -0.2857
 5353TIP3   OH237473   2.379   5.325   1.955  0.4741 -0.0911  0.2765
 5353TIP3    H137474   2.286   5.346   1.943  0.0184 -0.0994  3.0732
 5353TIP3    H237475   2.385   5.299   2.046  3.2207 -0.3511  0.0835
 5354TIP3   OH237476   1.270   0.841   6.172 -0.5152  1.1831 -0.1242
 5354TIP3    H137477   1.270   0.934   6.147 -1.2595  1.4787  0.8977
 5354TIP3    H237478   1.192   0.805   6.132 -0.1016  0.9310 -0.7167
 5355TIP3   OH237479   3.589   1.665   1.206 -0.7610  0.0764 -0.0921
 5355TIP3    H137480   3.661   1.609   1.178 -0.4144  0.2964  0.3639
 5355TIP3    H237481   3.531   1.669   1.129  0.5482  1.2888 -1.0504
 5356TIP3   OH237482   6.466   4.239   2.062  0.1651  0.3985 -0.7846
 5356TIP3    H137483   6.555   4.244   2.026  0.3229 -1.9924 -0.9103
 5356TIP3    H237484   6.463   4.154   2.105 -0.6996  2.2276  3.1898
 5357TIP3   OH237485   6.045   1.773  11.053 -0.1753  0.1220 -0.0340
 5357TIP3    H137486   5.992   1.852  11.066 -0.2507  0.1399 -0.4361
 5357TIP3    H237487   6.015   1.713  11.121 -0.2469  0.3704  0.1581
 5358TIP3   OH237488   6.298   1.713  12.704 -0.2885 -0.0678  0.0653
 5358TIP3    H137489   6.280   1.785  12.644  0.9813 -0.2591 -0.5554
 5358TIP3    H237490   6.239   1.729  12.778  1.3105  2.7337  0.8777
 5359TIP3   OH237491   3.633   2.326  10.648 -0.1633  0.1313 -0.0661
 5359TIP3    H137492   3.661   2.261  10.712  1.4368  0.4799 -0.3703
 5359TIP3    H237493   3.578   2.277  10.586 -0.4339 -0.5340  0.6858
 5360TIP3   OH237494   2.832   6.768  14.628 -0.2369  0.1018  0.3416
 5360TIP3    H137495   2.842   6.863  14.640 -0.8504  0.2214 -0.0335
 5360TIP3    H237496   2.838   6.755  14.534 -0.2463 -0.2197  0.3864
 5361TIP3   OH237497   2.816   0.012   3.665  0.5181  0.0536  0.4361
 5361TIP3    H137498   2.867  -0.036   3.730  0.0260  0.0015  0.7891
 5361TIP3    H237499   2.766  -0.055   3.618  2.0985 -0.0897 -1.1248
 5362TIP3   OH237500   4.588   0.082   6.486 -0.1017  0.2522  0.2719
 5362TIP3    H137501   4.651   0.127   6.429 -0.8791 -0.1238 -0.9209
 5362TIP3    H237502   4.626  -0.005   6.498 -1.0476 -0.4733 -1.6473
 5363TIP3   OH237503   3.797   0.026   3.881 -0.1509 -0.1306  0.2293
 5363TIP3    H137504   3.846  -0.025   3.945  0.7691  0.4600  0.0150
 5363TIP3    H237505   3.717  -0.025   3.865  0.3799 -1.0971  0.6100
 5364TIP3   OH237506   5.176   6.354   6.439 -0.0345  0.5163  0.1440
 5364TIP3    H137507   5.250   6.360   6.500 -0.8384  0.3732  1.1540
 5364TIP3    H237508   5.128   6.276   6.467 -0.5277  0.5641 -0.5554
 5365TIP3   OH237509   2.686   3.250   3.998 -0.3818 -0.1394  0.4526
 5365TIP3    H137510   2.632   3.321   4.034 -0.2051 -0.2800  1.0179
 5365TIP3    H237511   2.752   3.234   4.067 -1.3006 -1.8443  0.9860
 5366TIP3   OH237512   5.030   0.515  15.709 -0.2520  0.3764  0.0474
 5366TIP3    H137513   4.982   0.485  15.632  1.2449 -1.8360 -0.1200
 5366TIP3    H237514   5.110   0.553  15.674 -0.9330  2.2400  0.4172
 5367TIP3   OH237515   3.807   3.849  15.440  0.1395 -0.0079  0.5035
 5367TIP3    H137516   3.712   3.846  15.454  0.0714  0.1575  0.0822
 5367TIP3    H237517   3.844   3.846  15.528 -0.2732  0.6025  0.7016
 5368TIP3   OH237518   6.538   1.958   0.046 -0.4111 -0.0351  0.1887
 5368TIP3    H137519   6.451   1.972   0.008 -1.4450 -0.0846  2.3693
 5368TIP3    H237520   6.573   2.046   0.059  0.3901 -0.0303 -1.7056
 5369TIP3   OH237521   6.509   5.324  16.377  0.8243  0.3557 -0.1009
 5369TIP3    H137522   6.485   5.242  16.419 -0.7609  1.1502  0.6037
 5369TIP3    H237523   6.562   5.297  16.301  0.6888 -1.2753  0.3449
 5370TIP3   OH237524   4.070   4.598  16.096 -0.5617 -0.4727  0.6044
 5370TIP3    H137525   4.163   4.584  16.116 -0.1397 -0.4119 -1.1514
 5370TIP3    H237526   4.070   4.666  16.029 -1.8445 -0.8275  0.2161
 5371TIP3   OH237527   6.733   3.500  11.361  0.1169  0.5341 -0.6454
 5371TIP3    H137528   6.662   3.436  11.366  0.6875 -0.0223  0.8059
 5371TIP3    H237529   6.781   3.477  11.282 -0.3537 -0.1224 -0.7463
 5372TIP3   OH237530   0.229   3.970  16.985  0.7561 -0.0754 -0.4890
 5372TIP3    H137531   0.178   3.976  16.905  1.1500  0.7224 -0.6943
 5372TIP3    H237532   0.239   4.061  17.014  0.6074 -0.3575  0.4694
 5373TIP3   OH237533   2.994   2.023  14.711  0.6781 -0.0433  0.0790
 5373TIP3    H137534   3.077   2.067  14.693 -0.3123  1.8743 -0.0475
 5373TIP3    H237535   2.958   2.069  14.787 -0.5281 -0.4543 -0.2153
 5374TIP3   OH237536   6.274   4.550   6.420  0.0139  0.1953 -0.1045
 5374TIP3    H137537   6.226   4.468   6.415 -0.4604  0.2601  2.0848
 5374TIP3    H237538   6.365   4.524   6.429 -0.0647 -0.0782 -0.0941
 5375TIP3   OH237539   2.643   6.205  16.109  0.5113  0.0768 -0.1260
 5375TIP3    H137540   2.655   6.142  16.038 -0.6352  0.6101 -0.8232
 5375TIP3    H237541   2.567   6.172  16.157 -0.7274  1.3995 -1.0865
 5376TIP3   OH237542   6.323   3.938  11.548  0.1084  0.5364 -0.0182
 5376TIP3    H137543   6.336   3.921  11.454 -0.5020  1.4195 -0.2836
 5376TIP3    H237544   6.412   3.943  11.584  0.4054 -3.3312  0.1873
 5377TIP3   OH237545   0.399   3.269  14.532  0.3813  0.2194 -0.3610
 5377TIP3    H137546   0.336   3.214  14.485  0.1823  0.2674 -0.1524
 5377TIP3    H237547   0.461   3.298  14.465 -0.1333  0.6215 -0.6663
 5378TIP3   OH237548   1.804   1.951  16.952  0.5214  0.5163  0.0690
 5378TIP3    H137549   1.801   1.868  16.999  1.5680  1.4819  1.9850
 5378TIP3    H237550   1.718   1.958  16.910 -0.4007 -0.5571  1.6636
 5379TIP3   OH237551   3.666   5.220   5.483 -0.0819  0.0229  0.5515
 5379TIP3    H137552   3.705   5.281   5.420 -1.6875 -2.6872 -3.5172
 5379TIP3    H237553   3.740   5.170   5.517  0.6653 -0.6810 -1.9197
 5380TIP3   OH237554   4.084   3.531   3.699 -0.3870 -0.2144 -0.1889
 5380TIP3    H137555   3.993   3.554   3.721 -0.6883 -1.3012 -0.2272
 5380TIP3    H237556   4.076   3.469   3.627  0.5050  1.5092 -1.8725
 5381TIP3   OH237557   1.418   4.138   4.613  0.3323 -0.1221 -0.6739
 5381TIP3    H137558   1.450   4.162   4.526  2.0121 -2.9478 -0.9690
 5381TIP3    H237559   1.461   4.054   4.632 -0.0866  0.3059  2.8395
 5382TIP3   OH237560   0.731   6.493  15.373 -0.2349  0.1657 -0.2036
 5382TIP3    H137561   0.683   6.430  15.319 -0.2923 -0.5024  0.6087
 5382TIP3    H237562   0.676   6.571  15.373 -1.3031 -0.5662  0.6562
 5383TIP3   OH237563   0.383   0.863  12.739  0.3206 -0.0979 -0.0129
 5383TIP3    H137564   0.310   0.818  12.782  0.1244  1.7277  1.7293
 5383TIP3    H237565   0.412   0.928  12.803  1.3553  1.4465 -1.9334
 5384TIP3   OH237566   4.610   3.386   4.866  0.3272  0.1626 -0.0808
 5384TIP3    H137567   4.684   3.326   4.859  0.9464  1.0155 -1.0843
 5384TIP3    H237568   4.551   3.360   4.795 -0.7769 -1.0639  1.2353
 5385TIP3   OH237569   0.913   5.882   5.194 -0.5672  0.0532  0.3820
 5385TIP3    H137570   0.904   5.888   5.289  2.8638  0.1151  0.8421
 5385TIP3    H237571   0.909   5.973   5.164 -0.4252  0.1437  0.6300
 5386TIP3   OH237572   1.188   6.364  14.329 -0.2806  0.5605 -0.1412
 5386TIP3    H137573   1.141   6.416  14.394  0.0999  1.0909 -0.2825
 5386TIP3    H237574   1.263   6.418  14.304  1.1072 -0.7808  0.9670
 5387TIP3   OH237575   1.701   1.452   2.706  0.7715  0.3933  0.1391
 5387TIP3    H137576   1.661   1.375   2.748  1.0159 -0.1418 -0.5963
 5387TIP3    H237577   1.786   1.421   2.676  0.9134  0.9865 -0.0660
 5388TIP3   OH237578   0.418   2.098  12.523 -0.1061 -0.7318  0.2939
 5388TIP3    H137579   0.376   2.100  12.609 -0.0080 -2.2855  0.3923
 5388TIP3    H237580   0.349   2.070  12.463  0.5530 -2.4986  0.3275
 5389TIP3   OH237581   0.491   5.450   0.842  0.3199 -0.3764 -0.1793
 5389TIP3    H137582   0.479   5.449   0.748 -0.4775 -0.1312 -0.0893
 5389TIP3    H237583   0.484   5.358   0.869 -0.6881 -0.3281 -0.2259
 5390TIP3   OH237584   2.448   4.303  15.725  0.7034 -0.2661  0.3917
 5390TIP3    H137585   2.367   4.355  15.728  1.2604  0.6960 -0.4390
 5390TIP3    H237586   2.515   4.364  15.755  1.5059 -0.2021 -1.4191
 5391TIP3   OH237587   6.146   4.261   6.447  0.5462  0.4116 -0.4230
 5391TIP3    H137588   6.192   4.180   6.427 -0.7751 -0.7545  0.9403
 5391TIP3    H237589   6.085   4.274   6.374 -0.8248 -1.1229  0.3697
 5392TIP3   OH237590   0.126   4.666  15.070  0.4376  0.5368 -0.3239
 5392TIP3    H137591   0.068   4.603  15.112 -1.6482  1.9148 -0.9641
 5392TIP3    H237592   0.193   4.613  15.028  0.6962 -1.0309  1.9097
 5393TIP3   OH237593   1.347   2.997   2.310  0.4749 -0.7530  0.5146
 5393TIP3    H137594   1.293   2.922   2.287  0.1756 -0.4218  0.1354
 5393TIP3    H237595   1.287   3.058   2.354  0.5993 -0.5068  0.3461
 5394TIP3   OH237596   0.438   4.993  15.106 -0.2203 -0.1542 -0.4163
 5394TIP3    H137597   0.422   5.075  15.152  0.5562  0.3907 -1.0806
 5394TIP3    H237598   0.481   4.937  15.171  1.0275  0.6689 -0.4932
 5395TIP3   OH237599   3.272   1.590   1.384  0.5179  0.2395  0.2639
 5395TIP3    H137600   3.310   1.535   1.316  0.4333  0.4607  0.0371
 5395TIP3    H237601   3.348   1.632   1.426  0.5858 -0.0830  0.4701
 5396TIP3   OH237602   0.334   5.823  11.791  0.4133  0.3627 -0.0543
 5396TIP3    H137603   0.426   5.840  11.768  0.4374 -1.5413 -1.6382
 5396TIP3    H237604   0.284   5.876  11.729  0.4361  0.5109  0.0522
 5397TIP3   OH237605   4.160   6.646  14.915 -0.2921 -0.3862 -0.3265
 5397TIP3    H137606   4.124   6.713  14.857  3.0846  2.0699  0.0988
 5397TIP3    H237607   4.215   6.592  14.858 -0.5386 -0.8311 -0.1468
 5398TIP3   OH237608   4.554   3.182   2.795  0.4494 -0.6695  0.3749
 5398TIP3    H137609   4.516   3.103   2.757  1.9525 -0.8549 -0.8442
 5398TIP3    H237610   4.496   3.204   2.868 -1.4098 -1.4683 -0.7974
 5399TIP3   OH237611   2.321   4.043  13.987 -0.0708  0.1220  0.1396
 5399TIP3    H137612   2.324   4.139  13.991  1.6911  0.0639  0.9558
 5399TIP3    H237613   2.249   4.019  14.045  0.8966  0.8925  1.7295
 5400TIP3   OH237614   1.105   1.538   3.293  0.1521 -0.4556 -0.0306
 5400TIP3    H137615   1.168   1.517   3.362  0.4742  0.0409 -0.1631
 5400TIP3    H237616   1.029   1.573   3.340  0.9140  1.2341  0.0344
 5401TIP3   OH237617   6.537   3.293  11.290 -0.3842 -0.0030  0.5781
 5401TIP3    H137618   6.592   3.215  11.292  0.1452  0.3548  2.3247
 5401TIP3    H237619   6.491   3.291  11.374  1.2994  2.6480  1.7071
 5402TIP3   OH237620   2.147   4.034  17.262  0.3151  0.3410  0.0866
 5402TIP3    H137621   2.140   4.064  17.353  0.4971  1.0739 -0.1282
 5402TIP3    H237622   2.130   3.940  17.266 -3.1756  0.8485  0.4638
 5403TIP3   OH237623   3.718   4.361   4.793 -0.0908 -0.0056  0.5373
 5403TIP3    H137624   3.682   4.423   4.730  0.5279 -0.5843 -0.4074
 5403TIP3    H237625   3.774   4.414   4.850  0.6999  0.2638 -0.4701
 5404TIP3   OH237626   3.571   6.599   2.491 -0.7203 -0.1852 -0.6051
 5404TIP3    H137627   3.632   6.528   2.512 -2.1421 -1.2666 -0.0209
 5404TIP3    H237628   3.514   6.564   2.423 -1.5403  0.3349 -0.2096
 5405TIP3   OH237629   5.383   2.193   3.477  0.5173 -0.0377 -0.3675
 5405TIP3    H137630   5.390   2.108   3.519 -1.6707  0.3927  1.0276
 5405TIP3    H237631   5.472   2.229   3.482  1.5621 -2.3074 -1.2811
 5406TIP3   OH237632   3.900   4.442   1.513  0.3262  0.1175 -0.2288
 5406TIP3    H137633   3.833   4.496   1.555 -0.5723 -0.5072 -0.8228
 5406TIP3    H237634   3.962   4.422   1.582 -0.5695 -0.0321  0.5490
 5407TIP3   OH237635   4.087   4.429  14.397  0.2281 -0.9316  1.0325
 5407TIP3    H137636   4.147   4.434  14.323 -0.9350 -2.4802 -0.0932
 5407TIP3    H237637   4.000   4.430  14.357 -0.4268 -2.1056  2.3294
 5408TIP3   OH237638   1.374   5.123   6.763 -0.0828 -0.8625 -0.7276
 5408TIP3    H137639   1.445   5.159   6.817 -1.3998  0.3849  0.2491
 5408TIP3    H237640   1.319   5.199   6.741 -0.9685 -1.7496 -1.7034
 5409TIP3   OH237641   5.883   5.697   1.552  0.2931  0.2091 -0.4886
 5409TIP3    H137642   5.809   5.642   1.526 -0.3309  0.8898 -0.1691
 5409TIP3    H237643   5.932   5.643   1.614 -1.4647  0.7328  1.4678
 5410TIP3   OH237644   1.932   6.343   6.306  0.1374 -0.5098 -0.5299
 5410TIP3    H137645   1.885   6.364   6.387 -0.3419  0.7162 -1.1098
 5410TIP3    H237646   2.014   6.393   6.313 -0.7245  1.1549 -1.6196
 5411TIP3   OH237647   3.830   5.006  12.491  0.4411 -0.0053  0.6027
 5411TIP3    H137648   3.828   4.959  12.407 -0.8529 -0.3036  0.7797
 5411TIP3    H237649   3.746   4.987  12.531  1.0529  0.1290  1.9958
 5412TIP3   OH237650   1.985   1.475   2.868  0.6455 -0.0290 -0.0724
 5412TIP3    H137651   1.991   1.387   2.829 -1.4271 -0.0754 -0.4226
 5412TIP3    H237652   1.933   1.461   2.948  0.8384  0.7962  0.1995
 5413TIP3   OH237653   4.725   5.439  15.981 -0.0779  1.0191  0.7716
 5413TIP3    H137654   4.658   5.492  16.023 -0.9005  1.3064 -0.8275
 5413TIP3    H237655   4.759   5.495  15.911 -0.2014 -0.1661 -0.2697
 5414TIP3   OH237656   1.227   4.101  12.637 -0.2487 -0.2304 -0.4074
 5414TIP3    H137657   1.143   4.095  12.592 -0.4613 -2.0535  0.1727
 5414TIP3    H237658   1.276   4.168  12.588 -1.4731 -0.1937 -1.6384
 5415TIP3   OH237659   1.418   0.620  13.924 -0.2869 -0.4540  0.3149
 5415TIP3    H137660   1.415   0.709  13.890  1.5793 -0.9756 -1.3713
 5415TIP3    H237661   1.394   0.565  13.849 -1.0537 -1.4241  1.2343
 5416TIP3   OH237662   6.035   5.380   1.515  0.3576 -0.1807 -0.0896
 5416TIP3    H137663   6.078   5.423   1.441  1.1202  0.5719  0.7679
 5416TIP3    H237664   5.960   5.335   1.476 -1.1082  2.7590 -0.9343
 5417TIP3   OH237665   4.939   3.891  15.063  0.2429  0.1512  0.3533
 5417TIP3    H137666   4.889   3.971  15.077 -0.9487 -0.7352  1.4257
 5417TIP3    H237667   4.883   3.821  15.099  1.1319 -1.1929 -0.7598
 5418TIP3   OH237668   3.548   5.339  11.756 -0.1126  0.0399 -0.5732
 5418TIP3    H137669   3.490   5.384  11.817 -0.1422  0.2421 -0.7517
 5418TIP3    H237670   3.496   5.327  11.677  0.5816  1.6320 -1.2991
 5419TIP3   OH237671   0.151   1.907   1.721 -0.7591 -0.3546 -0.6563
 5419TIP3    H137672   0.145   1.830   1.777 -0.0082  0.1238  0.1180
 5419TIP3    H237673   0.167   1.873   1.633 -0.4271 -1.0849 -0.3210
 5420TIP3   OH237674   4.289   6.086   1.937  0.1784 -0.3038  0.4533
 5420TIP3    H137675   4.208   6.134   1.956  0.0593 -0.4878  0.4133
 5420TIP3    H237676   4.339   6.092   2.018  0.6224  0.7797  0.1198
 5421TIP3   OH237677   5.241   4.422  14.829 -0.0160 -0.1231  0.2426
 5421TIP3    H137678   5.263   4.512  14.802 -1.6745  0.1868 -0.2150
 5421TIP3    H237679   5.158   4.432  14.876 -0.8542 -1.5571 -0.8762
 5422TIP3   OH237680   1.682   3.028   4.603 -0.3408  0.3199  0.0382
 5422TIP3    H137681   1.645   3.007   4.517  0.1106 -0.6216  0.0569
 5422TIP3    H237682   1.694   2.943   4.645 -1.5710  0.8301  1.4871
 5423TIP3   OH237683   0.459   5.390   4.145  0.4556  0.1907  0.7607
 5423TIP3    H137684   0.465   5.448   4.221 -0.7246 -2.6878  3.2576
 5423TIP3    H237685   0.373   5.347   4.154  1.1502 -1.7494 -1.0497
 5424TIP3   OH237686   0.973   2.417   4.615  0.7631  0.1003  0.2656
 5424TIP3    H137687   0.905   2.456   4.671  2.0213  1.1454  1.1240
 5424TIP3    H237688   0.947   2.439   4.526  0.1621  0.7963  0.6075
 5425TIP3   OH237689   5.620   6.696  11.614  0.1942  0.2958  0.5111
 5425TIP3    H137690   5.579   6.734  11.536 -3.2503 -4.2577 -0.2918
 5425TIP3    H237691   5.674   6.625  11.580  0.9964  0.0779  2.1881
 5426TIP3   OH237692   2.638   0.546   4.258 -0.3042  0.7394 -0.4571
 5426TIP3    H137693   2.635   0.456   4.290  1.0437  0.5285 -0.8944
 5426TIP3    H237694   2.590   0.596   4.325  0.7054  0.0081  0.8648
 5427TIP3   OH237695   5.497   1.460   4.102  0.2107  0.0474 -0.6409
 5427TIP3    H137696   5.575   1.510   4.128  0.5938 -1.4298  1.3591
 5427TIP3    H237697   5.532   1.385   4.055  0.1252 -1.0275  0.9331
 5428TIP3   OH237698   2.500   6.167  10.720  0.0933 -0.4071  0.6445
 5428TIP3    H137699   2.500   6.256  10.754 -1.4965  0.5973 -1.7188
 5428TIP3    H237700   2.416   6.131  10.746  0.2831 -0.8495  0.6660
 5429TIP3   OH237701   4.840   2.675  14.756 -0.1934 -0.0521  0.1837
 5429TIP3    H137702   4.806   2.710  14.838 -0.7835  0.6836 -0.3594
 5429TIP3    H237703   4.770   2.689  14.693  0.4869 -0.0438 -0.5852
 5430TIP3   OH237704   3.275   0.041  15.241 -0.8721  0.0966 -0.6871
 5430TIP3    H137705   3.282  -0.054  15.234  1.4222  0.2791 -1.5693
 5430TIP3    H237706   3.355   0.068  15.285 -0.8378  1.7344 -1.6776
 5431TIP3   OH237707   0.008   0.355  12.258  0.2184 -1.0872  0.8509
 5431TIP3    H137708  -0.079   0.331  12.225 -0.7574  0.9872  1.7401
 5431TIP3    H237709   0.067   0.335  12.185 -0.9049 -2.8803  0.3538
 5432TIP3   OH237710   1.084   4.557  14.316  0.6123  0.3238 -0.5684
 5432TIP3    H137711   1.173   4.588  14.304  0.9672 -0.2389  0.5159
 5432TIP3    H237712   1.030   4.636  14.310  1.1385  0.6269 -1.5279
 5433TIP3   OH237713   2.142   2.212   5.895 -0.6157  0.0562  0.5856
 5433TIP3    H137714   2.091   2.162   5.959 -2.1292  0.9437  0.1313
 5433TIP3    H237715   2.096   2.296   5.889  1.2083  1.1037  0.5108
 5434TIP3   OH237716   5.678   2.828   1.756 -0.4249 -0.0492  0.7720
 5434TIP3    H137717   5.694   2.767   1.684  0.2295  2.3827 -1.3149
 5434TIP3    H237718   5.588   2.857   1.743 -0.1314  0.8060  0.5277
 5435TIP3   OH237719   0.769   2.608   1.028  0.2110  0.4901  0.1112
 5435TIP3    H137720   0.711   2.681   1.046  1.5266  1.9220 -1.2213
 5435TIP3    H237721   0.845   2.623   1.084  0.6500  0.3506 -0.4390
 5436TIP3   OH237722   2.881   1.621   6.594  0.4085  0.4185 -0.2295
 5436TIP3    H137723   2.837   1.633   6.510  1.5721 -2.7661 -1.4561
 5436TIP3    H237724   2.816   1.577   6.649  0.9688 -1.5116 -1.0259
 5437TIP3   OH237725   2.520   6.553  15.627 -0.2869 -0.2184 -0.2388
 5437TIP3    H137726   2.550   6.523  15.541  0.2131  3.2641 -1.4228
 5437TIP3    H237727   2.424   6.544  15.623 -0.2232 -0.7082 -0.8693
 5438TIP3   OH237728   3.118   1.485   4.595  0.2190 -0.3483 -0.3959
 5438TIP3    H137729   3.104   1.571   4.634  0.0968 -0.0826 -1.0147
 5438TIP3    H237730   3.040   1.469   4.542  0.8373 -0.2453 -1.3575
 5439TIP3   OH237731   4.341   4.431   2.292  0.5868 -0.2216  0.5016
 5439TIP3    H137732   4.335   4.363   2.359 -1.9951  1.9085  2.7061
 5439TIP3    H237733   4.426   4.472   2.309  0.2550 -0.1259  2.1631
 5440TIP3   OH237734   5.988   0.931   5.437 -0.1443  0.1108  0.2671
 5440TIP3    H137735   5.895   0.910   5.446 -0.0742  0.1807  1.4161
 5440TIP3    H237736   6.032   0.846   5.438 -0.1037  0.1211  1.3883
 5441TIP3   OH237737   1.523   0.252   2.374 -0.2650  0.8157  0.3792
 5441TIP3    H137738   1.443   0.201   2.363 -0.5760  0.8520  2.1661
 5441TIP3    H237739   1.519   0.284   2.464  1.6497  1.0255  0.4328
 5442TIP3   OH237740   4.882   4.832   2.474 -0.1894 -0.5379  0.1995
 5442TIP3    H137741   4.871   4.758   2.415 -0.9856 -0.3027  0.0380
 5442TIP3    H237742   4.963   4.874   2.445  0.7020 -1.7719  0.7873
 5443TIP3   OH237743   0.911   1.851  12.863  0.4233 -0.3170  0.1778
 5443TIP3    H137744   0.921   1.843  12.958  3.3194 -0.2792 -0.0237
 5443TIP3    H237745   0.855   1.927  12.850  0.6120  0.1382  1.8458
 5444TIP3   OH237746   5.334   2.175  11.557  0.2624  0.7090  0.1237
 5444TIP3    H137747   5.355   2.238  11.488 -0.7501  1.2365  0.2845
 5444TIP3    H237748   5.405   2.110  11.552  1.2428  1.7610 -0.1488
 5445TIP3   OH237749   4.645   3.261   3.272 -0.1567  0.0523 -0.3175
 5445TIP3    H137750   4.577   3.261   3.204  1.2365  2.1163 -1.8435
 5445TIP3    H237751   4.714   3.205   3.236  1.0471  2.0069 -1.2011
 5446TIP3   OH237752   4.235   4.393   2.016 -0.3634  0.0139 -0.6359
 5446TIP3    H137753   4.162   4.333   2.033 -0.3852  0.2168  0.0452
 5446TIP3    H237754   4.259   4.426   2.103  1.5321 -1.1863 -0.6616
 5447TIP3   OH237755   2.742   0.518   1.254 -0.2559 -0.1891  0.0990
 5447TIP3    H137756   2.788   0.597   1.283 -0.1615 -1.4066  3.8031
 5447TIP3    H237757   2.811   0.454   1.239 -0.4724 -0.6498  0.9837
 5448TIP3   OH237758   2.676   0.856   0.878  0.4783 -0.3331  0.1653
 5448TIP3    H137759   2.699   0.919   0.946 -2.2714  1.0562 -0.0286
 5448TIP3    H237760   2.670   0.772   0.923 -0.6224  0.4368  1.5594
 5449TIP3   OH237761   4.828   1.082  16.229  0.1236  0.6921  0.0021
 5449TIP3    H137762   4.878   1.001  16.219 -1.6485 -0.2410 -2.0627
 5449TIP3    H237763   4.891   1.152  16.213  0.9233 -0.4272 -1.9640
 5450TIP3   OH237764   2.871   4.725  11.326  0.2210  0.2543 -0.0726
 5450TIP3    H137765   2.906   4.650  11.278 -0.2554  0.5844 -0.9551
 5450TIP3    H237766   2.787   4.744  11.284  1.1843  2.4581 -1.1784
 5451TIP3   OH237767   4.469   5.191   4.440 -0.0613  0.5899  0.4104
 5451TIP3    H137768   4.386   5.145   4.436  0.3154 -0.0150 -2.0383
 5451TIP3    H237769   4.445   5.283   4.450 -1.1508  0.5706 -1.4332
 5452TIP3   OH237770   2.226   6.729  13.560 -0.8229  0.1039 -0.1761
 5452TIP3    H137771   2.245   6.774  13.478  0.8307  0.2233  0.2522
 5452TIP3    H237772   2.235   6.796  13.628 -2.9769  0.2062  0.0795
 5453TIP3   OH237773   4.714   6.367   4.952 -0.0790  0.1026 -0.6344
 5453TIP3    H137774   4.767   6.288   4.943  1.3018  1.0032 -0.7430
 5453TIP3    H237775   4.678   6.383   4.865 -1.9360 -1.4077 -0.2167
 5454TIP3   OH237776   2.909   1.205  11.240 -0.3156  0.5040 -0.3799
 5454TIP3    H137777   2.918   1.257  11.320 -0.7491  0.0289 -0.0099
 5454TIP3    H237778   2.816   1.212  11.218 -0.0890  1.1198 -1.1896
 5455TIP3   OH237779   0.027   2.794  17.231  0.2875 -0.3441  0.2446
 5455TIP3    H137780  -0.049   2.852  17.239  1.4601  0.9718  3.7534
 5455TIP3    H237781   0.024   2.763  17.140 -3.5242  0.8240 -0.2127
 5456TIP3   OH237782   5.106   1.190  15.456  0.5227  0.3587  0.2525
 5456TIP3    H137783   5.080   1.259  15.396 -2.1840  0.3492  1.2848
 5456TIP3    H237784   5.140   1.238  15.533  1.0144  0.4467 -0.0140
 5457TIP3   OH237785   1.359   2.017   4.128  0.3551 -0.1113 -0.8297
 5457TIP3    H137786   1.425   2.085   4.115  0.5209 -0.2246 -0.5739
 5457TIP3    H237787   1.390   1.943   4.075 -0.1359  0.2141 -1.6011
 5458TIP3   OH237788   2.388   0.788  15.536  0.0722 -0.1380 -0.1887
 5458TIP3    H137789   2.471   0.774  15.581  0.5711 -2.4205 -1.6907
 5458TIP3    H237790   2.410   0.787  15.443 -1.7330 -1.8754 -0.6673
 5459TIP3   OH237791   3.521   1.471  11.312  0.8044 -0.2457 -0.3110
 5459TIP3    H137792   3.551   1.550  11.266 -0.5268  0.0512 -0.7106
 5459TIP3    H237793   3.480   1.418  11.244 -0.1833 -0.3174  0.3123
 5460TIP3   OH237794   1.457   5.706  15.404  0.4276 -0.6003 -0.2197
 5460TIP3    H137795   1.363   5.710  15.391  0.3879  1.5403  0.4120
 5460TIP3    H237796   1.474   5.760  15.481  2.0160 -2.3589  0.7926
 5461TIP3   OH237797   2.588   2.575  12.273  0.1152  0.4597 -0.5526
 5461TIP3    H137798   2.616   2.589  12.364  0.2829  0.4440 -0.6023
 5461TIP3    H237799   2.570   2.663  12.240 -0.5441  0.4220 -0.3134
 5462TIP3   OH237800   4.187   0.336   2.950  0.3384 -0.2109  0.0107
 5462TIP3    H137801   4.269   0.319   2.903  0.8585  0.7688  0.5291
 5462TIP3    H237802   4.147   0.250   2.961 -0.0571 -0.4641 -2.6527
 5463TIP3   OH237803   3.471   2.131   1.864  0.2989 -0.0219  0.0198
 5463TIP3    H137804   3.438   2.142   1.775 -1.4365  0.2348  0.6575
 5463TIP3    H237805   3.405   2.173   1.919  1.9869  0.9839  1.3502
 5464TIP3   OH237806   3.684   1.837  16.066 -0.3469 -0.4571  0.6129
 5464TIP3    H137807   3.770   1.865  16.097  0.5080 -2.5199  0.2305
 5464TIP3    H237808   3.636   1.919  16.052  0.5977  0.6921  3.3969
 5465TIP3   OH237809   6.311   2.619  12.408  0.2599  0.0709 -0.6339
 5465TIP3    H137810   6.311   2.678  12.333 -0.3662 -0.2899 -0.9282
 5465TIP3    H237811   6.250   2.660  12.470  0.5037  0.1843 -0.4668
 5466TIP3   OH237812   1.483   6.330  15.537 -0.1086 -0.1696  0.5060
 5466TIP3    H137813   1.526   6.343  15.453 -2.7222  0.6082 -0.8299
 5466TIP3    H237814   1.471   6.236  15.544  1.0665 -0.3302  0.5594
 5467TIP3   OH237815   1.909   3.161   5.070 -0.4272 -0.0495  0.7258
 5467TIP3    H137816   1.992   3.115   5.068  0.0928  0.8146  1.5453
 5467TIP3    H237817   1.862   3.130   4.993  0.4885 -0.8494  0.4804
 5468TIP3   OH237818   5.963   3.465   5.688 -0.1883 -0.2820  0.4193
 5468TIP3    H137819   5.909   3.522   5.743  0.8988  3.1852 -1.8111
 5468TIP3    H237820   6.042   3.451   5.740 -0.3285  0.5606  0.8849
 5469TIP3   OH237821   4.541   5.979  14.367  0.2036 -0.5724  0.3119
 5469TIP3    H137822   4.491   6.059  14.350  1.4091 -0.3583 -2.9636
 5469TIP3    H237823   4.620   6.010  14.412 -1.1507 -0.5595  2.8613
 5470TIP3   OH237824   4.538   6.353  13.942 -0.4315 -0.0024  0.6489
 5470TIP3    H137825   4.523   6.325  14.033 -0.5919  0.0074  0.6258
 5470TIP3    H237826   4.575   6.276  13.900  0.1797  0.1727  0.8655
 5471TIP3   OH237827   4.995   0.301   1.845  0.5898  0.2337  0.5756
 5471TIP3    H137828   4.969   0.219   1.802 -1.7215  1.2102 -0.1040
 5471TIP3    H237829   5.088   0.291   1.863  1.0286 -1.4453 -2.0159
 5472TIP3   OH237830   2.547   2.353  13.869 -0.1101  0.1039  0.0605
 5472TIP3    H137831   2.561   2.430  13.923 -0.2149 -0.0322  0.2801
 5472TIP3    H237832   2.523   2.284  13.930  1.0030 -0.3741 -0.0199
 5473TIP3   OH237833   6.345   3.195  13.151  0.1281 -0.4481 -0.1211
 5473TIP3    H137834   6.251   3.203  13.168 -0.0452  1.4785 -1.6809
 5473TIP3    H237835   6.357   3.105  13.124 -1.6518 -0.2319 -1.8249
 5474TIP3   OH237836   3.936   6.567   0.219  0.3614 -0.4259  0.0217
 5474TIP3    H137837   4.006   6.578   0.155  0.3721 -0.5030  0.0193
 5474TIP3    H237838   3.976   6.517   0.291  0.8003  1.0428  0.8335
 5475TIP3   OH237839   6.035   0.960   2.365 -0.1515  0.2875 -0.2147
 5475TIP3    H137840   6.081   1.037   2.396 -0.1816 -0.1463  0.9620
 5475TIP3    H237841   5.942   0.983   2.370 -0.2430 -0.3291  1.6547
 5476TIP3   OH237842   4.405   6.090   2.195  0.4290 -0.5294  0.3142
 5476TIP3    H137843   4.374   6.000   2.208 -1.5074  0.2416  1.5382
 5476TIP3    H237844   4.422   6.122   2.283  1.5339  0.1734 -0.1461
 5477TIP3   OH237845   5.015   3.615  12.477 -0.0957  0.5160 -0.3880
 5477TIP3    H137846   5.052   3.675  12.412 -0.2037 -0.2094 -1.1417
 5477TIP3    H237847   4.983   3.671  12.547 -0.6936  1.3717 -1.3241
 5478TIP3   OH237848   3.924   0.103  12.865 -0.3883 -0.2847 -0.3525
 5478TIP3    H137849   3.837   0.070  12.843 -0.2609 -1.3173  0.5810
 5478TIP3    H237850   3.908   0.184  12.913 -0.7695  0.2561 -1.3664
 5479TIP3   OH237851   4.740   3.044  14.367 -0.1896 -0.2158 -0.6317
 5479TIP3    H137852   4.681   3.104  14.413  1.3196  1.6140 -0.9877
 5479TIP3    H237853   4.744   3.078  14.278  0.7469 -0.7878 -0.8219
 5480TIP3   OH237854   0.935   5.035   3.378  0.0423  0.1466 -0.0533
 5480TIP3    H137855   0.936   5.060   3.470  0.3947 -0.6503  0.1660
 5480TIP3    H237856   0.994   5.097   3.335  1.6324 -0.8415  0.6307
 5481TIP3   OH237857   2.183   1.323  17.129 -0.1709 -0.5790  0.5621
 5481TIP3    H137858   2.261   1.317  17.074  0.5886  0.5284  1.4579
 5481TIP3    H237859   2.208   1.281  17.211 -0.7018 -0.6860  0.6769
 5482TIP3   OH237860   0.268   1.092  16.190 -0.2571  0.3280  0.0723
 5482TIP3    H137861   0.190   1.142  16.215 -1.1124  0.1254 -2.0205
 5482TIP3    H237862   0.339   1.156  16.196 -0.8341  0.9615  0.3896
 5483TIP3   OH237863   2.608   5.993  12.428 -0.4421  0.5202  0.1978
 5483TIP3    H137864   2.633   6.060  12.492  0.2951  1.4278 -0.9753
 5483TIP3    H237865   2.591   6.042  12.348  1.3572 -0.7551 -1.0591
 5484TIP3   OH237866   1.989   5.176   5.284 -0.1134  0.1489  0.0713
 5484TIP3    H137867   1.965   5.268   5.279  0.7624  0.3674 -0.3392
 5484TIP3    H237868   1.945   5.143   5.362 -2.4831  0.2904 -1.1395
 5485TIP3   OH237869   4.122   1.925   0.517 -0.8428  0.6202  0.3160
 5485TIP3    H137870   4.137   1.932   0.611  1.0433 -0.6088  0.1556
 5485TIP3    H237871   4.163   1.842   0.492 -1.9699  0.5533 -1.4730
 5486TIP3   OH237872   5.034   2.632   4.320 -0.0253 -0.3891 -0.3982
 5486TIP3    H137873   4.970   2.590   4.377  1.3117 -0.9226  0.7887
 5486TIP3    H237874   4.991   2.712   4.290 -1.1507 -0.6129  0.5365
 5487TIP3   OH237875   1.279   5.026   4.335 -0.2294  0.3986  0.1046
 5487TIP3    H137876   1.195   5.038   4.378 -0.3133  0.2765 -0.0257
 5487TIP3    H237877   1.335   4.986   4.402  0.0342  1.4406  0.5266
 5488TIP3   OH237878   5.997   0.410   5.216  0.2780  0.4982 -0.1486
 5488TIP3    H137879   5.925   0.447   5.165 -0.7502 -0.9597  0.2117
 5488TIP3    H237880   5.977   0.434   5.307 -1.3790 -2.3316  0.3364
 5489TIP3   OH237881   5.296   6.622   0.678  0.7430 -0.1661 -0.5864
 5489TIP3    H137882   5.388   6.596   0.668  0.8691 -0.3730  0.9414
 5489TIP3    H237883   5.296   6.682   0.753 -0.8885 -3.3747  2.2573
 5490TIP3   OH237884   3.105   5.241   0.463 -1.0039  0.4449 -0.0507
 5490TIP3    H137885   3.096   5.149   0.489 -0.2168 -0.3944 -2.4593
 5490TIP3    H237886   3.018   5.278   0.474 -1.3260 -0.5706  0.9838
 5491TIP3   OH237887   5.570   1.370  16.949  0.1549 -0.2773  0.7793
 5491TIP3    H137888   5.523   1.290  16.973  0.7413 -1.4532 -1.6374
 5491TIP3    H237889   5.516   1.440  16.984 -2.0658 -1.6492  0.3288
 5492TIP3   OH237890   1.115   0.318   0.206  0.7037  0.1548  0.1026
 5492TIP3    H137891   1.085   0.286   0.291 -1.0999  0.7102 -0.2763
 5492TIP3    H237892   1.065   0.398   0.191  0.7198 -0.1077 -1.6298
 5493TIP3   OH237893   0.414   4.280  13.305  0.3518  0.2800 -0.3133
 5493TIP3    H137894   0.454   4.208  13.353 -0.4627  0.1580  0.2162
 5493TIP3    H237895   0.482   4.311  13.246  0.0870 -2.3182 -2.1438
 5494TIP3   OH237896   0.619   0.640  12.968  0.0787 -0.0007  0.6034
 5494TIP3    H137897   0.618   0.657  12.874 -1.2032  1.8218  0.8955
 5494TIP3    H237898   0.536   0.596  12.986  0.7450 -1.2375  0.7684
 5495TIP3   OH237899   5.067   4.687   1.497  0.2461 -0.4355 -0.0562
 5495TIP3    H137900   5.051   4.774   1.461  1.4437  0.3405  1.1824
 5495TIP3    H237901   4.988   4.667   1.547 -0.6308 -0.7089 -1.4965
 5496TIP3   OH237902   6.371   0.959  17.169  0.1827  0.3896  0.0329
 5496TIP3    H137903   6.338   0.875  17.200 -0.0053  0.6480  0.5463
 5496TIP3    H237904   6.436   0.985  17.235 -1.3287  1.6861  1.0784
 5497TIP3   OH237905   5.989   2.546   1.492 -0.2600  0.2982  0.2677
 5497TIP3    H137906   5.950   2.618   1.542  1.0563  1.0648  0.2403
 5497TIP3    H237907   5.920   2.480   1.488 -1.4206  1.4452  0.5200
 5498TIP3   OH237908   3.326   1.853  17.177 -0.5361  0.1867  0.0490
 5498TIP3    H137909   3.351   1.884  17.091  0.7178  0.7454  0.5992
 5498TIP3    H237910   3.320   1.932  17.231 -1.5775 -0.1256  0.4301
 5499TIP3   OH237911   4.960   2.528  15.802 -0.0433  0.1006  0.5372
 5499TIP3    H137912   4.927   2.464  15.865 -3.1067  1.6826  0.7601
 5499TIP3    H237913   4.931   2.496  15.717  1.1874 -0.3549  0.2700
 5500TIP3   OH237914   4.952   4.014  13.367 -0.4533 -0.0169  0.0890
 5500TIP3    H137915   5.028   3.974  13.326 -0.9108 -1.5708  0.6485
 5500TIP3    H237916   4.877   3.972  13.324 -1.0481  1.9450 -0.9086
 5501TIP3   OH237917   1.880   2.001   3.194  0.2831  0.8628  0.7149
 5501TIP3    H137918   1.811   1.960   3.143  2.9624  0.8081 -3.3527
 5501TIP3    H237919   1.882   1.952   3.276 -1.0875 -2.6348 -1.1444
 5502TIP3   OH237920   3.141   0.409   5.853  0.3301  0.0778 -0.3068
 5502TIP3    H137921   3.078   0.339   5.866  0.7859 -0.6531 -1.7761
 5502TIP3    H237922   3.088   0.485   5.829 -0.0094 -0.8040 -2.6301
 5503TIP3   OH237923   0.004   5.713   1.214 -0.7616  0.3649 -0.0974
 5503TIP3    H137924   0.047   5.628   1.221  0.1307  0.6816 -1.3341
 5503TIP3    H237925   0.051   5.758   1.143 -1.6293  1.6382  0.0980
 5504TIP3   OH237926   1.978   3.887  11.764  0.1085  1.1522 -0.4529
 5504TIP3    H137927   1.886   3.906  11.783 -0.2941 -0.0851 -1.0396
 5504TIP3    H237928   2.020   3.973  11.759 -1.0345  1.7405 -0.2857
 5505TIP3   OH237929   2.638   6.457   3.364  0.0232  0.0482 -0.6011
 5505TIP3    H137930   2.674   6.418   3.444 -0.0756  0.6621 -0.2549
 5505TIP3    H237931   2.598   6.383   3.318  0.7997 -0.4555 -0.4826
 5506TIP3   OH237932   5.544   2.917   3.324 -0.3380 -0.3020 -0.3436
 5506TIP3    H137933   5.460   2.961   3.311 -0.5740 -1.3438 -3.3019
 5506TIP3    H237934   5.529   2.856   3.396 -0.6881  2.5925  2.2111
 5507TIP3   OH237935   5.887   5.809   2.194 -0.1495 -0.3922  0.2577
 5507TIP3    H137936   5.815   5.851   2.148 -0.5059 -0.8400  0.3976
 5507TIP3    H237937   5.919   5.742   2.133 -0.5920 -0.9551  0.6308
 5508TIP3   OH237938   4.026   2.890   1.247  0.1020 -0.2076 -0.2159
 5508TIP3    H137939   3.986   2.877   1.334  0.1523 -0.2950 -0.2055
 5508TIP3    H237940   4.120   2.893   1.264  0.1047 -0.0797 -0.2503
 5509TIP3   OH237941   5.181   6.749  15.299  0.7934 -0.3895 -0.3362
 5509TIP3    H137942   5.208   6.840  15.292 -0.4005 -0.1384 -1.9570
 5509TIP3    H237943   5.264   6.700  15.300  1.4159  0.6354 -0.4202
 5510TIP3   OH237944   2.821   4.847  11.906 -0.5548 -0.3935 -0.1838
 5510TIP3    H137945   2.826   4.940  11.883 -1.9569 -0.1959  0.1566
 5510TIP3    H237946   2.911   4.816  11.903  0.0702  1.2079  0.5858
 5511TIP3   OH237947   2.525   2.499  14.131  0.1856 -0.3799 -0.0438
 5511TIP3    H137948   2.481   2.508  14.215  0.3528 -0.3530  0.0414
 5511TIP3    H237949   2.618   2.493  14.153  0.1594 -1.3889 -0.1557
 5512TIP3   OH237950   2.140   6.024  13.043  0.0336 -0.0067 -0.6452
 5512TIP3    H137951   2.226   5.992  13.073 -0.1204  0.1448 -0.0306
 5512TIP3    H237952   2.084   5.947  13.044  0.3769 -0.2982 -1.9132
 5513TIP3   OH237953   0.145   4.535  14.725 -0.3274 -0.0604  0.9073
 5513TIP3    H137954   0.063   4.572  14.758  0.0907  0.5774  1.2383
 5513TIP3    H237955   0.127   4.515  14.633 -1.4397 -1.6737  1.4341
 5514TIP3   OH237956   6.616   0.780   2.286  0.6493 -0.1486 -0.1652
 5514TIP3    H137957   6.584   0.862   2.248 -1.0291 -0.3253  0.7565
 5514TIP3    H237958   6.677   0.808   2.355 -1.4676  0.4883  1.5623
 5515TIP3   OH237959   1.853   5.820  10.678  0.2316 -0.7623 -0.2523
 5515TIP3    H137960   1.877   5.728  10.687  0.4106 -0.7417 -0.5069
 5515TIP3    H237961   1.931   5.868  10.705  0.0943 -0.6807  0.0089
 5516TIP3   OH237962   3.417   0.144  14.460  0.9021  0.5982 -0.1836
 5516TIP3    H137963   3.445   0.122  14.548  0.5783 -0.0581 -0.2358
 5516TIP3    H237964   3.497   0.145  14.408  1.0479  0.6162  0.0423
 5517TIP3   OH237965   6.231   4.344  16.474  0.3681 -0.3592  0.6188
 5517TIP3    H137966   6.313   4.295  16.470  1.8612  2.0572 -1.8470
 5517TIP3    H237967   6.258   4.436  16.469 -2.4837  0.5138 -0.8003
 5518TIP3   OH237968   5.795   3.684   4.738  0.2941 -0.4793  0.2424
 5518TIP3    H137969   5.888   3.663   4.729  0.5450  0.5374  0.3937
 5518TIP3    H237970   5.782   3.700   4.832 -0.3118 -1.8087  0.4173
 5519TIP3   OH237971   3.675   2.483  10.414  0.3814  0.1074  0.0711
 5519TIP3    H137972   3.692   2.442  10.499  0.9068  0.7053  0.2573
 5519TIP3    H237973   3.760   2.518  10.387  0.0226  0.7216 -0.2767
 5520TIP3   OH237974   6.246   5.230   1.643 -0.7258  0.0263 -0.0111
 5520TIP3    H137975   6.151   5.237   1.641 -0.7672 -0.3357 -2.2718
 5520TIP3    H237976   6.273   5.245   1.552  1.3374 -0.3042  0.4940
 5521TIP3   OH237977   1.380   0.361  11.798 -0.1615  0.3434  0.5606
 5521TIP3    H137978   1.317   0.354  11.870  1.2421  1.8984  2.0286
 5521TIP3    H237979   1.326   0.375  11.721 -1.8673 -3.5089  0.8018
 5522TIP3   OH237980   2.075   2.334  13.650  0.0596 -0.7448  0.1410
 5522TIP3    H137981   2.138   2.396  13.687 -0.9712  0.5195 -0.1248
 5522TIP3    H237982   2.123   2.251  13.644  2.0007  0.3872 -0.9872
 5523TIP3   OH237983   4.961   1.170  13.112 -0.1318  0.2250 -0.6658
 5523TIP3    H137984   5.039   1.124  13.141 -0.3335 -0.2397 -0.8492
 5523TIP3    H237985   4.912   1.187  13.193  0.0954  0.3968 -0.5652
 5524TIP3   OH237986   3.434   4.367   2.299  0.1618  0.1203 -0.0688
 5524TIP3    H137987   3.510   4.348   2.355  0.4592 -0.6020 -0.6927
 5524TIP3    H237988   3.402   4.452   2.329  1.1525  0.3832  0.2755
 5525TIP3   OH237989   1.987   4.078  16.349  0.1268 -0.2068  0.1928
 5525TIP3    H137990   2.021   4.163  16.321  0.5434  0.9421  3.7103
 5525TIP3    H237991   2.064   4.032  16.385 -0.7130 -0.5667  1.6052
 5526TIP3   OH237992   0.315   1.897  11.632  0.6499  0.7313  0.0281
 5526TIP3    H137993   0.357   1.970  11.677  0.0300  0.0864  1.7194
 5526TIP3    H237994   0.379   1.826  11.636  0.6731  0.7333 -0.2958
 5527TIP3   OH237995   5.535   5.004   4.121  0.2925 -0.3632  0.6547
 5527TIP3    H137996   5.534   4.998   4.217  2.3502 -0.4305  0.7203
 5527TIP3    H237997   5.600   5.072   4.102  1.5822 -1.8834 -0.6876
 5528TIP3   OH237998   3.718   1.758  10.916 -0.0541 -0.4433  0.5609
 5528TIP3    H137999   3.809   1.783  10.904 -0.1996 -0.1530  0.0471
 5528TIP3    H238000   3.715   1.721  11.005  0.1779  1.2539  1.3100
 5529TIP3   OH238001   3.117   3.036  14.906 -0.0598 -0.4139  0.3077
 5529TIP3    H138002   3.130   3.085  14.987  1.2342 -0.8805  0.4042
 5529TIP3    H238003   3.026   3.054  14.882  0.2374  1.6726  0.5625
 5530TIP3   OH238004   0.370   0.856   0.692 -0.2320  0.2553  0.2316
 5530TIP3    H138005   0.425   0.780   0.710  0.7796  0.7229 -0.7888
 5530TIP3    H238006   0.416   0.929   0.733  1.7180  1.2164 -3.2674
 5531TIP3   OH238007   6.543   2.874  11.090  0.0388  0.0804  0.1657
 5531TIP3    H138008   6.540   2.781  11.109  2.4609 -0.1012  0.0226
 5531TIP3    H238009   6.603   2.882  11.016 -1.7267  1.6191 -1.1961
 5532TIP3   OH238010   3.333   0.358  11.696  0.0098  0.6560  0.2743
 5532TIP3    H138011   3.324   0.403  11.612  1.2394 -1.1093 -0.8667
 5532TIP3    H238012   3.426   0.364  11.717  0.3021 -1.5896 -0.1098
 5533TIP3   OH238013   2.626   5.017  12.761  0.0652  0.2994  0.6035
 5533TIP3    H138014   2.554   4.954  12.759  0.5844 -0.3302  1.1474
 5533TIP3    H238015   2.700   4.971  12.723  0.1554  0.9911 -0.0871
 5534TIP3   OH238016   1.091   1.441  11.227 -0.0757  0.4062 -0.0902
 5534TIP3    H138017   1.168   1.465  11.279 -0.2871  0.4575  0.1989
 5534TIP3    H238018   1.116   1.462  11.137  0.1238  0.7451  0.0423
 5535TIP3   OH238019   2.242   0.735   5.420 -0.4355  0.1011  0.3828
 5535TIP3    H138020   2.227   0.820   5.379 -1.1159  0.3245  1.0821
 5535TIP3    H238021   2.333   0.737   5.448 -0.4990  0.6709  0.5570
 5536TIP3   OH238022   1.736   6.702   3.732  0.3291  0.3956  0.6564
 5536TIP3    H138023   1.826   6.696   3.767  0.2331 -0.5846  0.7744
 5536TIP3    H238024   1.681   6.702   3.810  0.1803 -0.1341  0.5513
 5537TIP3   OH238025   3.027   2.055  11.857  0.1882 -0.4537  0.5993
 5537TIP3    H138026   3.064   2.047  11.769  1.5315 -1.6743  1.2214
 5537TIP3    H238027   3.099   2.030  11.915  0.4753  3.5155  2.2990
 5538TIP3   OH238028   2.493   0.928  11.628  0.0934 -0.0535  0.6519
 5538TIP3    H138029   2.482   0.877  11.708  2.6312 -0.5763  0.7580
 5538TIP3    H238030   2.404   0.944  11.597 -0.9248 -4.3111  0.7548
 5539TIP3   OH238031   5.239   2.320   0.984 -0.1472 -0.1257  0.9457
 5539TIP3    H138032   5.204   2.320   1.073  0.5186 -0.6363  1.2253
 5539TIP3    H238033   5.331   2.346   0.995  0.0007 -0.4210  0.4433
 5540TIP3   OH238034   0.491   1.239   1.249 -0.0744 -0.0294  0.2408
 5540TIP3    H138035   0.578   1.206   1.227 -0.1269  0.2589 -0.4177
 5540TIP3    H238036   0.480   1.317   1.195 -0.6064  0.1339  0.5728
 5541TIP3   OH238037   1.368   0.068   3.717 -0.0275 -0.0507 -0.1598
 5541TIP3    H138038   1.384  -0.007   3.775  1.7870  1.5644  1.5614
 5541TIP3    H238039   1.350   0.141   3.776 -0.9050  1.0800 -1.7596
 5542TIP3   OH238040   0.937   3.450   1.868  0.1196 -0.4918 -0.0838
 5542TIP3    H138041   1.022   3.406   1.880  0.7339  0.5794 -0.3485
 5542TIP3    H238042   0.897   3.404   1.793  0.3166 -1.2070  0.2367
 5543TIP3   OH238043   3.970   6.365   6.288  0.1799  0.2558 -0.3538
 5543TIP3    H138044   4.053   6.394   6.325  0.5275 -0.2891 -0.6829
 5543TIP3    H238045   3.906   6.380   6.357  0.4176  1.3633 -0.3518
 5544TIP3   OH238046   5.119   6.397  15.253  0.0432 -0.3759 -0.4107
 5544TIP3    H138047   5.168   6.472  15.288 -0.1245 -0.4457 -0.0270
 5544TIP3    H238048   5.181   6.354  15.194  0.5405 -0.6284  0.2880
 5545TIP3   OH238049   6.517   2.554  12.011 -0.5774  0.1097 -0.0809
 5545TIP3    H138050   6.516   2.459  12.004 -0.9715  0.1618 -0.7857
 5545TIP3    H238051   6.605   2.575  12.042 -1.0848 -0.5988  1.9676
 5546TIP3   OH238052   4.307   4.250   3.450 -0.1773  0.1535 -0.4874
 5546TIP3    H138053   4.388   4.290   3.483 -0.0595  0.2794 -0.9247
 5546TIP3    H238054   4.261   4.221   3.529  0.3403 -0.0131 -0.2416
 5547TIP3   OH238055   6.704   3.061   5.861 -0.4677 -0.1501 -0.6599
 5547TIP3    H138056   6.760   2.998   5.906 -0.8614  0.2841  0.4799
 5547TIP3    H238057   6.629   3.071   5.920 -1.3098 -0.0460 -1.7299
 5548TIP3   OH238058   0.579   5.724   5.102  0.2825  0.2411  0.3300
 5548TIP3    H138059   0.655   5.667   5.105  0.7000  0.8227  1.3531
 5548TIP3    H238060   0.600   5.790   5.035  0.1015 -0.3574 -0.3327
 5549TIP3   OH238061   3.158   2.962   5.124  0.6928  0.1105  0.3074
 5549TIP3    H138062   3.109   3.044   5.113  0.8452 -0.1184 -3.0882
 5549TIP3    H238063   3.094   2.901   5.160 -0.1735  1.0407  0.4178
 5550TIP3   OH238064   2.466   2.949  11.203  0.6614  0.2850  0.2220
 5550TIP3    H138065   2.418   2.924  11.124  0.3302 -0.8786  0.7779
 5550TIP3    H238066   2.474   3.044  11.196 -1.0375  0.4309 -0.2788
 5551TIP3   OH238067   3.395   6.581  17.166  0.0796 -0.8492 -0.3805
 5551TIP3    H138068   3.354   6.578  17.080  3.9451 -2.1415 -2.3889
 5551TIP3    H238069   3.383   6.492  17.201  1.6577 -1.4518 -1.2939
 5552TIP3   OH238070   1.616   1.507  16.087 -0.0564 -0.1871  0.2958
 5552TIP3    H138071   1.679   1.463  16.029 -0.4521 -0.7809  0.3016
 5552TIP3    H238072   1.536   1.514  16.034 -0.4915 -0.9356  0.8260
 5553TIP3   OH238073   5.452   6.134   3.055 -0.7220  0.3296  0.2842
 5553TIP3    H138074   5.447   6.215   3.004 -0.0406 -0.1647 -0.5878
 5553TIP3    H238075   5.441   6.064   2.990 -0.8272 -0.2934  0.9602
 5554TIP3   OH238076   3.986   2.603  12.413  0.5717 -0.2412 -0.1270
 5554TIP3    H138077   4.033   2.539  12.466 -2.0990 -2.4409 -0.1811
 5554TIP3    H238078   3.903   2.617  12.460 -0.4347  0.3593 -1.9823
 5555TIP3   OH238079   1.617   6.389  13.620 -0.6527 -0.4774  0.0145
 5555TIP3    H138080   1.577   6.474  13.633  0.0746  0.2335 -2.0351
 5555TIP3    H238081   1.663   6.396  13.536 -0.3478 -2.7967 -0.0850
 5556TIP3   OH238082   1.700   1.827   1.407  0.4181  0.2129  0.0762
 5556TIP3    H138083   1.621   1.778   1.385 -0.2034  1.0768  0.3465
 5556TIP3    H238084   1.765   1.795   1.344  0.0979 -1.0960  0.3767
 5557TIP3   OH238085   1.540   1.900   3.569  0.3198 -0.7530 -0.5452
 5557TIP3    H138086   1.569   1.983   3.607  0.8272 -0.9092 -0.5852
 5557TIP3    H238087   1.474   1.868   3.631  1.0314 -0.9327  0.1502
 5558TIP3   OH238088   0.033   0.755   1.380  0.5922  0.6510  0.9408
 5558TIP3    H138089   0.044   0.833   1.326 -2.9789 -0.3851 -1.6243
 5558TIP3    H238090   0.094   0.691   1.343  0.1427  0.8084 -0.1025
 5559TIP3   OH238091   1.361   4.874  13.376  0.3361 -0.6994  0.0774
 5559TIP3    H138092   1.300   4.866  13.449 -2.0663 -0.7478 -1.7640
 5559TIP3    H238093   1.398   4.962  13.385  0.5565 -0.9391  1.6590
 5560TIP3   OH238094   1.100   4.745   0.998  0.2368  0.6535 -0.0969
 5560TIP3    H138095   1.156   4.807   0.952  1.8986 -0.5060  0.2586
 5560TIP3    H238096   1.031   4.724   0.936  1.7253  0.0747 -1.6472
 5561TIP3   OH238097   2.055   4.553   5.095  0.1893 -0.2586 -0.1847
 5561TIP3    H138098   2.084   4.475   5.142  1.0396 -1.5211 -2.6542
 5561TIP3    H238099   2.066   4.624   5.158 -0.7800 -2.0954  2.2040
 5562TIP3   OH238100   4.457   1.097   0.546  0.1874  0.6206  0.0495
 5562TIP3    H138101   4.515   1.075   0.618  1.3845  1.6315 -0.5707
 5562TIP3    H238102   4.418   1.181   0.571 -0.6197  0.2119  0.2145
 5563TIP3   OH238103   1.144   1.078  15.359  0.3324 -0.2768 -0.0852
 5563TIP3    H138104   1.239   1.070  15.349  0.4890  1.0365  0.1544
 5563TIP3    H238105   1.109   1.003  15.313  1.5002 -0.8598 -0.0654
 5564TIP3   OH238106   4.114   0.252  12.205  0.5731 -0.1362 -0.0456
 5564TIP3    H138107   4.083   0.295  12.286  2.7491  1.2790  0.1161
 5564TIP3    H238108   4.095   0.160  12.218 -0.6487  0.2695  1.3586
 5565TIP3   OH238109   1.000   6.774   0.675  0.5499  0.0906 -0.5730
 5565TIP3    H138110   0.984   6.779   0.770  0.5392  0.5255 -0.5932
 5565TIP3    H238111   1.011   6.681   0.657 -1.2677 -0.2042 -0.4366
 5566TIP3   OH238112   4.698   5.879   1.305 -0.4391 -0.3101  0.4509
 5566TIP3    H138113   4.742   5.963   1.324  2.1286 -1.0675 -1.6049
 5566TIP3    H238114   4.738   5.817   1.366 -1.4308 -0.3105  1.1169
 5567TIP3   OH238115   3.924   2.109  13.566  0.4499  0.1989 -0.1097
 5567TIP3    H138116   3.886   2.126  13.480 -1.3188  0.7931  0.7395
 5567TIP3    H238117   3.891   2.022  13.589  1.3380 -0.1829 -0.2188
 5568TIP3   OH238118   6.707   6.331  16.351  0.3580  0.0733 -0.2707
 5568TIP3    H138119   6.630   6.375  16.386  2.1313  2.2387  1.1441
 5568TIP3    H238120   6.735   6.387  16.278 -0.2088 -1.5278 -1.7924
 5569TIP3   OH238121   4.757   0.584   1.138  0.0883 -0.2481  0.5072
 5569TIP3    H138122   4.824   0.574   1.071 -0.4594  0.6825 -0.1906
 5569TIP3    H238123   4.806   0.612   1.216  0.4251  1.4313 -0.2670
 5570TIP3   OH238124   3.719   3.934   4.995 -0.0094 -0.0885 -0.0752
 5570TIP3    H138125   3.676   3.884   5.064 -0.0211 -1.0625 -0.7715
 5570TIP3    H238126   3.801   3.887   4.977  1.1570  1.4789  0.9001
 5571TIP3   OH238127   2.571   3.754   1.727  0.4888  0.6546  0.0739
 5571TIP3    H138128   2.563   3.816   1.655 -0.1090  1.2713  0.6485
 5571TIP3    H238129   2.482   3.719   1.738  0.6207  0.4073  0.3716
 5572TIP3   OH238130   0.085   0.288   1.538 -0.2702  0.5235  0.0627
 5572TIP3    H138131   0.034   0.364   1.566 -1.0374 -0.2934  0.9240
 5572TIP3    H238132   0.053   0.270   1.449 -1.7337 -0.1639  0.7047
 5573TIP3   OH238133   0.108   2.702   1.946 -0.8046 -0.2580  0.0792
 5573TIP3    H138134   0.165   2.664   1.878 -0.0094 -0.1481  0.6707
 5573TIP3    H238135   0.141   2.665   2.028 -0.7057  0.8770  0.5637
 5574TIP3   OH238136   4.563   4.093   4.135 -0.5176 -0.1488  0.6036
 5574TIP3    H138137   4.502   4.048   4.076 -2.4558  1.2092  1.4521
 5574TIP3    H238138   4.517   4.095   4.219  0.4505  1.4189  1.1356
 5575TIP3   OH238139   1.907   3.904   4.704  0.3807  0.2872  0.5486
 5575TIP3    H138140   1.972   3.850   4.658  0.4745  0.0915  0.9035
 5575TIP3    H238141   1.848   3.935   4.636  2.3384  2.6658 -0.2291
 5576TIP3   OH238142   2.835   4.025  15.470 -0.0041  0.1353 -0.5615
 5576TIP3    H138143   2.900   3.994  15.407  1.0301 -0.9304  0.9634
 5576TIP3    H238144   2.789   3.945  15.498  0.2930  0.4315  0.8303
 5577TIP3   OH238145   1.894   4.097  14.387  0.4797 -0.2865 -0.1956
 5577TIP3    H138146   1.811   4.066  14.424 -0.4939  1.1203 -1.1129
 5577TIP3    H238147   1.953   4.021  14.393 -0.9206 -1.3791  0.2746
 5578TIP3   OH238148   6.502   1.988  12.234  0.0929  0.5780 -0.4776
 5578TIP3    H138149   6.484   1.897  12.261  1.6012  0.2940 -0.3077
 5578TIP3    H238150   6.496   2.038  12.315 -0.7461  0.6360 -0.5714
 5579TIP3   OH238151   0.523   3.506   5.275 -0.1164  0.4334 -0.2931
 5579TIP3    H138152   0.589   3.441   5.300  0.5133  1.3076  0.4076
 5579TIP3    H238153   0.574   3.579   5.238 -0.7705  0.7074 -0.6741
 5580TIP3   OH238154   3.946   5.578   1.658 -0.5566 -0.3496  0.0538
 5580TIP3    H138155   4.020   5.531   1.695  0.3038  1.9309  1.4835
 5580TIP3    H238156   3.981   5.620   1.579 -0.1210  1.0510  0.9417
 5581TIP3   OH238157   5.844   5.746  13.029  0.0151 -0.7060 -0.1812
 5581TIP3    H138158   5.897   5.826  13.025  0.0796 -0.6461  1.3992
 5581TIP3    H238159   5.788   5.751  12.952 -0.6245  1.3265  0.3623
 5582TIP3   OH238160   4.906   3.558  15.406  0.3138 -0.2621  0.2179
 5582TIP3    H138161   4.989   3.511  15.409  0.7658  0.4986 -0.0107
 5582TIP3    H238162   4.924   3.641  15.451 -0.7924 -0.7792  1.6953
 5583TIP3   OH238163   2.827   0.967  16.331 -0.1117  0.2976  0.6627
 5583TIP3    H138164   2.766   0.925  16.270  0.1751  1.4095 -0.4297
 5583TIP3    H238165   2.786   0.957  16.417  0.8516 -3.9182  0.8152
 5584TIP3   OH238166   2.851   6.129  11.828 -0.3280  0.0197  0.8401
 5584TIP3    H138167   2.771   6.076  11.821 -0.4694  0.2706  0.5050
 5584TIP3    H238168   2.910   6.077  11.883 -0.9616  0.1347  1.6441
 5585TIP3   OH238169   1.706   5.366   3.462 -0.6420  0.4769 -0.1000
 5585TIP3    H138170   1.642   5.367   3.533  0.6483  0.8938  1.0831
 5585TIP3    H238171   1.785   5.327   3.500  0.5718  2.1003 -0.8502
 5586TIP3   OH238172   3.468   3.365  13.923 -0.3910 -0.4515  0.1032
 5586TIP3    H138173   3.452   3.451  13.961  0.4145 -0.5307  0.6447
 5586TIP3    H238174   3.445   3.374  13.831  1.4906  0.8819 -0.2836
 5587TIP3   OH238175   1.850   6.222  10.329 -0.4895 -0.5316 -0.1913
 5587TIP3    H138176   1.905   6.147  10.350  1.1707 -0.0047 -2.3272
 5587TIP3    H238177   1.911   6.291  10.303 -2.0265  1.2243  0.5951
 5588TIP3   OH238178   2.671   1.587  11.689 -0.3460  0.6595 -0.0511
 5588TIP3    H138179   2.584   1.624  11.679 -0.0652  1.7783  1.2642
 5588TIP3    H238180   2.719   1.653  11.739  0.9326 -0.4200  0.2061
 5589TIP3   OH238181   1.920   0.056   4.812 -0.1399  0.2285  0.1909
 5589TIP3    H138182   1.853  -0.013   4.811  0.7886 -0.6796 -0.4834
 5589TIP3    H238183   1.916   0.091   4.901 -2.2957  0.9825 -0.1458
 5590TIP3   OH238184   0.173   2.922   2.288  0.9021 -0.4225  0.1690
 5590TIP3    H138185   0.135   2.838   2.265  2.7431 -1.9432  2.1876
 5590TIP3    H238186   0.261   2.921   2.249  1.0382  0.4412  0.4242
 5591TIP3   OH238187   2.288   1.691   3.732 -0.5345 -0.4655 -0.1171
 5591TIP3    H138188   2.348   1.636   3.682  1.5102  0.2807  1.3699
 5591TIP3    H238189   2.210   1.637   3.744  0.4298 -2.0854 -0.7927
 5592TIP3   OH238190   0.904   2.120   1.508  0.4552 -0.4931 -0.1043
 5592TIP3    H138191   0.938   2.192   1.562 -0.1020 -0.0350 -0.3481
 5592TIP3    H238192   0.898   2.046   1.568 -2.5992  0.6451  1.2474
 5593TIP3   OH238193   1.896   1.084  12.329 -0.1556  0.0061  0.2274
 5593TIP3    H138194   1.895   1.165  12.380 -1.7395 -0.8761  1.6735
 5593TIP3    H238195   1.806   1.052  12.332  0.1468 -1.1525 -1.4464
 5594TIP3   OH238196   0.019   5.724  15.486  0.1427 -0.5299  0.2865
 5594TIP3    H138197   0.026   5.804  15.537 -0.5703 -0.1404 -0.2062
 5594TIP3    H238198  -0.041   5.669  15.536  0.7133 -0.8130  0.6774
 5595TIP3   OH238199   1.699   3.075  11.337  0.7170  0.4927 -0.0639
 5595TIP3    H138200   1.790   3.079  11.367  1.1723 -1.3203 -1.0558
 5595TIP3    H238201   1.704   3.095  11.243  0.0869  0.3985 -0.1220
 5596TIP3   OH238202   0.844   3.023   0.921  0.4498 -0.6647  0.3278
 5596TIP3    H138203   0.781   3.067   0.978  0.2744 -1.0977  0.4716
 5596TIP3    H238204   0.799   2.944   0.891  0.3058 -0.1285 -0.9322
 5597TIP3   OH238205   4.809   0.847  13.052  0.5871 -0.3212  0.5063
 5597TIP3    H138206   4.788   0.894  12.972  0.8495  1.6091  1.5094
 5597TIP3    H238207   4.754   0.769  13.050  1.1808 -0.7410 -1.9034
 5598TIP3   OH238208   5.587   6.672  17.074 -0.0649  0.2302  0.3871
 5598TIP3    H138209   5.631   6.744  17.029 -1.2523  1.5277  1.2107
 5598TIP3    H238210   5.552   6.617  17.004 -0.2151  1.1404 -0.2710
 5599TIP3   OH238211   5.590   5.995  15.148  0.0403  0.2661 -0.0052
 5599TIP3    H138212   5.509   5.949  15.130 -0.8761  1.1716  1.5571
 5599TIP3    H238213   5.643   5.983  15.070 -0.5575 -2.5135 -0.0558
 5600TIP3   OH238214   4.569   1.794   6.528 -0.0909  0.4133 -0.1456
 5600TIP3    H138215   4.625   1.787   6.451  1.2302 -1.0132  0.8673
 5600TIP3    H238216   4.621   1.844   6.591 -0.9177  1.0634  0.0426
 5601TIP3   OH238217   1.416   6.074   0.477  0.4767  0.3955  0.1831
 5601TIP3    H138218   1.329   6.075   0.517  1.4969 -0.6641  2.6170
 5601TIP3    H238219   1.431   6.165   0.450 -0.9659  0.7945  0.6451
 5602TIP3   OH238220   0.821   3.419   2.214 -0.6251  0.1581  0.1347
 5602TIP3    H138221   0.787   3.338   2.175 -0.7640  0.4064 -0.2729
 5602TIP3    H238222   0.915   3.405   2.220 -0.6680 -0.1062  0.2406
 5603TIP3   OH238223   6.724   4.204  15.286  0.0816  0.1510  0.6873
 5603TIP3    H138224   6.819   4.191  15.286  0.0235 -0.3411 -0.1066
 5603TIP3    H238225   6.698   4.187  15.377  0.8237  0.9266  1.0634
 5604TIP3   OH238226   0.045   3.334   5.930 -0.7401  0.2740  0.1168
 5604TIP3    H138227  -0.039   3.339   5.886 -0.5742  1.1224 -0.1173
 5604TIP3    H238228   0.074   3.244   5.917 -0.7763  0.4509 -1.3590
 5605TIP3   OH238229   0.266   4.457  11.972 -0.2486 -0.7234  0.5738
 5605TIP3    H138230   0.322   4.387  12.004 -0.1291 -0.4160  1.0504
 5605TIP3    H238231   0.323   4.509  11.916 -0.5357 -1.4315 -0.4019
 5606TIP3   OH238232   4.450   5.208   2.601 -0.0381 -0.6392  0.0114
 5606TIP3    H138233   4.436   5.176   2.512  0.6291 -0.1796 -0.2693
 5606TIP3    H238234   4.389   5.282   2.610  2.2119  1.5426 -1.3043
 5607TIP3   OH238235   1.150   3.668  12.073 -0.1693  0.1697 -0.2711
 5607TIP3    H138236   1.160   3.664  11.978 -0.1434  0.5556 -0.2888
 5607TIP3    H238237   1.184   3.754  12.097  0.5871 -0.2418  0.1868
 5608TIP3   OH238238   2.260   6.213  15.596  0.4626  0.5087  0.3669
 5608TIP3    H138239   2.349   6.209  15.562  0.0296  1.8237 -0.9822
 5608TIP3    H238240   2.231   6.122  15.596  1.3983  0.1927 -0.2462
 5609TIP3   OH238241   6.686   6.604  13.997  0.3114  0.1045  0.3308
 5609TIP3    H138242   6.665   6.634  14.085  0.2757 -0.5568  0.5536
 5609TIP3    H238243   6.780   6.622  13.987  0.5562 -0.7840  0.9086
 5610TIP3   OH238244   5.588   3.456   4.750  0.1056  0.1568 -0.4392
 5610TIP3    H138245   5.662   3.491   4.699  0.8765 -0.1244  0.4666
 5610TIP3    H238246   5.597   3.361   4.743 -1.0474  0.0917 -1.5402
 5611TIP3   OH238247   1.839   5.967  12.827  0.7862 -0.1836 -0.1330
 5611TIP3    H138248   1.746   5.982  12.814  0.9534  0.7907 -0.3119
 5611TIP3    H238249   1.845   5.922  12.911  0.1913  0.2691  0.1596
 5612TIP3   OH238250   1.103   3.321  12.004  0.0857 -0.4263 -0.1023
 5612TIP3    H138251   1.118   3.227  12.006 -1.9206 -0.7957  0.6738
 5612TIP3    H238252   1.069   3.342  12.091  2.8009  1.5179  0.6247
 5613TIP3   OH238253   3.722   4.313  14.405 -0.1283  0.1810  0.1257
 5613TIP3    H138254   3.662   4.325  14.478 -0.5568  0.5398 -0.2772
 5613TIP3    H238255   3.788   4.382  14.417 -1.4931  1.8013 -1.0923
 5614TIP3   OH238256   0.665   6.462  12.819 -1.1703  0.0338  0.4259
 5614TIP3    H138257   0.708   6.508  12.747  0.0917 -1.9195 -0.1430
 5614TIP3    H238258   0.659   6.371  12.789 -1.6775 -0.5992  2.3254
 5615TIP3   OH238259   4.632   4.029  12.463  0.0442  0.1643  0.5983
 5615TIP3    H138260   4.680   4.002  12.541  1.6308  1.5143  0.1384
 5615TIP3    H238261   4.682   3.993  12.390 -0.5524  0.2329  0.1495
 5616TIP3   OH238262   0.932   5.559   1.621  1.2909 -0.0283  0.0237
 5616TIP3    H138263   0.843   5.565   1.587  0.7847 -0.3490  1.2450
 5616TIP3    H238264   0.986   5.605   1.556  0.3301 -0.3413 -1.0277
 5617TIP3   OH238265   0.786   1.018  15.430 -0.0462  0.5334  0.7038
 5617TIP3    H138266   0.740   0.938  15.451  0.0346  0.1722 -0.4206
 5617TIP3    H238267   0.821   1.003  15.342  1.8744  0.9380  1.3472
 5618TIP3   OH238268   4.717   5.788   1.727  0.4058  0.0726 -0.3291
 5618TIP3    H138269   4.623   5.796   1.709 -0.6385 -2.9049  2.5995
 5618TIP3    H238270   4.736   5.858   1.789 -0.9970 -1.4121  1.9788
 5619TIP3   OH238271   2.982   3.248  14.158 -0.1362 -0.4249  0.4075
 5619TIP3    H138272   3.017   3.284  14.239  0.1156  1.8050 -0.6162
 5619TIP3    H238273   3.019   3.303  14.089 -0.4161 -2.1835 -1.2390
 5620TIP3   OH238274   5.534   5.827  14.245  0.1448  0.5150 -0.6532
 5620TIP3    H138275   5.456   5.822  14.189 -2.1274 -2.4060  2.3346
 5620TIP3    H238276   5.572   5.739  14.239 -0.0625  0.1740  2.0627
 5621TIP3   OH238277   2.913   0.825  12.492  0.2215 -0.4509 -0.6787
 5621TIP3    H138278   2.889   0.916  12.478  0.7259  0.5055  3.4280
 5621TIP3    H238279   2.838   0.775  12.462 -0.8291  1.4366 -1.3298
 5622TIP3   OH238280   5.107   2.740   5.096  0.2257 -0.4554 -0.2705
 5622TIP3    H138281   5.082   2.662   5.045  1.3248 -0.6876 -0.4799
 5622TIP3    H238282   5.107   2.710   5.187  0.1145 -0.5554 -0.3032
 5623TIP3   OH238283   5.546   4.300  14.565 -1.3428 -0.3869  0.1589
 5623TIP3    H138284   5.631   4.340  14.579 -1.9464  0.8843  0.3506
 5623TIP3    H238285   5.563   4.205  14.564 -0.1491 -0.2262  1.6872
 5624TIP3   OH238286   2.057   5.239  11.225  0.1887 -0.0796  0.2922
 5624TIP3    H138287   2.019   5.204  11.144  2.9009 -0.2490 -1.0513
 5624TIP3    H238288   2.119   5.172  11.253 -0.0600  0.3882  2.0396
 5625TIP3   OH238289   5.895   1.981  11.168 -0.3376 -0.0873 -0.1385
 5625TIP3    H138290   5.965   2.031  11.210  0.8328 -0.3071 -1.7350
 5625TIP3    H238291   5.815   2.016  11.207  0.5993  0.7403  1.1553
 5626TIP3   OH238292   1.664   3.056   3.016  0.5345  0.3165 -0.1292
 5626TIP3    H138293   1.745   3.006   3.022 -0.6078 -1.5414  0.5917
 5626TIP3    H238294   1.648   3.088   3.105  1.0911  1.7805 -0.5204
 5627TIP3   OH238295   0.254   3.256   3.399 -0.0144 -0.5052 -0.1249
 5627TIP3    H138296   0.234   3.172   3.440 -3.8825 -0.5026 -1.6410
 5627TIP3    H238297   0.312   3.233   3.326  0.8113 -1.4703  0.7892
 5628TIP3   OH238298   4.390   2.142   2.465 -0.7622  0.0930 -0.3360
 5628TIP3    H138299   4.369   2.151   2.372 -1.3032 -2.3849 -0.5421
 5628TIP3    H238300   4.484   2.129   2.468 -0.7270  0.3038 -0.5224
 5629TIP3   OH238301   3.619   1.830   1.903 -0.4121 -0.4923  0.0120
 5629TIP3    H138302   3.528   1.830   1.934  0.0546  1.6262  1.6421
 5629TIP3    H238303   3.626   1.912   1.853  0.5456 -0.7366 -0.2665
 5630TIP3   OH238304   5.901   1.275  13.531  0.2034 -0.4508 -0.5910
 5630TIP3    H138305   5.875   1.349  13.477  0.6199 -1.8413 -2.8237
 5630TIP3    H238306   5.926   1.314  13.614 -0.1123  1.8455 -1.5025
 5631TIP3   OH238307   0.337   4.601   6.119 -0.5435 -0.1291 -0.6140
 5631TIP3    H138308   0.352   4.670   6.183 -1.6655 -0.6132  0.1966
 5631TIP3    H238309   0.390   4.528   6.149  1.7989  0.7719 -2.2603
 5632TIP3   OH238310   1.136   2.937   3.405  0.5277  0.6854 -0.2442
 5632TIP3    H138311   1.176   2.860   3.444 -1.2861 -0.7203 -1.0173
 5632TIP3    H238312   1.200   2.968   3.340  0.1602 -1.9049 -1.9691
 5633TIP3   OH238313   4.755   3.666   3.558  0.1490  0.0655 -0.5958
 5633TIP3    H138314   4.750   3.596   3.494 -2.1357 -0.1159 -0.3060
 5633TIP3    H238315   4.812   3.632   3.627  0.5123 -0.7692 -1.2951
 5634TIP3   OH238316   2.516   0.323  12.929  0.2002 -1.1340  0.1447
 5634TIP3    H138317   2.487   0.367  12.849  0.3626 -0.3562  0.5085
 5634TIP3    H238318   2.578   0.257  12.898  0.0929 -0.9922 -0.3909
 5635TIP3   OH238319   2.543   3.417   1.613 -0.9262  0.8429 -0.1827
 5635TIP3    H138320   2.526   3.507   1.639 -0.6052  0.2212  2.4712
 5635TIP3    H238321   2.456   3.378   1.603 -1.1009  1.6655 -2.5284
 5636TIP3   OH238322   0.839   5.780  17.069  0.2470 -0.0639  0.0224
 5636TIP3    H138323   0.930   5.809  17.056  0.6131 -1.9826 -2.6503
 5636TIP3    H238324   0.830   5.705  17.010 -2.9167 -0.3314  0.6980
 5637TIP3   OH238325   5.375   1.411   2.379  0.6474  0.2764 -0.4539
 5637TIP3    H138326   5.392   1.355   2.455  2.3961 -0.9719 -1.6802
 5637TIP3    H238327   5.290   1.381   2.347  1.3336 -1.3852 -0.7977
 5638TIP3   OH238328   0.647   4.196   5.258 -0.2732  0.2383  0.7259
 5638TIP3    H138329   0.682   4.175   5.171  0.2293 -0.3490  1.0550
 5638TIP3    H238330   0.669   4.288   5.271 -0.6778  0.4378  0.0884
 5639TIP3   OH238331   1.266   1.870  11.150 -0.0710  0.0052 -0.2691
 5639TIP3    H138332   1.248   1.880  11.057  0.6172  0.2109 -0.3909
 5639TIP3    H238333   1.326   1.795  11.155  1.8776  1.4745 -0.2741
 5640TIP3   OH238334   2.401   2.017  14.558  0.1903  0.5297 -0.0533
 5640TIP3    H138335   2.321   2.005  14.507  0.8533  1.0073 -1.2583
 5640TIP3    H238336   2.370   2.036  14.647 -1.0392  0.9495 -0.5435
 5641TIP3   OH238337   5.356   6.710   4.899 -0.0615 -0.2628  0.0282
 5641TIP3    H138338   5.277   6.705   4.845 -0.7519  0.0049  0.9744
 5641TIP3    H238339   5.399   6.626   4.887  0.4275  0.2123 -1.8391
 5642TIP3   OH238340   4.038   4.618   2.592 -0.4523 -0.1457 -0.3697
 5642TIP3    H138341   3.943   4.609   2.587 -0.3062 -1.6542 -0.7521
 5642TIP3    H238342   4.065   4.555   2.659  0.4228 -0.8982 -1.4004
 5643TIP3   OH238343   2.664   5.354  12.235  0.5331  0.0091  1.0646
 5643TIP3    H138344   2.685   5.261  12.240 -3.7425 -1.1662  0.7707
 5643TIP3    H238345   2.600   5.361  12.164 -0.8473  2.7994  2.4206
 5644TIP3   OH238346   5.680   4.957   5.749  0.3601  0.1512  0.0931
 5644TIP3    H138347   5.729   5.026   5.705  0.8540 -0.6318 -0.6031
 5644TIP3    H238348   5.721   4.876   5.720 -0.2129 -0.4422  0.9016
 5645TIP3   OH238349   5.460   6.259  15.310  0.0644  0.2530  0.9221
 5645TIP3    H138350   5.540   6.244  15.259 -0.2883  2.8727 -0.5786
 5645TIP3    H238351   5.399   6.194  15.277  0.6318  0.2714 -0.2320
 5646TIP3   OH238352   3.016   3.016   2.957 -0.0741 -0.1381  0.1430
 5646TIP3    H138353   3.020   2.957   3.032 -0.7344 -0.4900 -0.0959
 5646TIP3    H238354   3.106   3.047   2.947 -0.1113  0.4803  1.5252
 5647TIP3   OH238355   6.625   1.577  13.420 -0.1744 -0.5787 -0.8091
 5647TIP3    H138356   6.683   1.508  13.387  0.5605 -0.2194 -0.2833
 5647TIP3    H238357   6.636   1.650  13.359  0.5428 -0.2219 -0.2664
 5648TIP3   OH238358   2.728   3.020  12.891  0.3586  0.0973 -0.3487
 5648TIP3    H138359   2.731   3.105  12.936 -0.7785 -0.5612  1.0397
 5648TIP3    H238360   2.815   2.982  12.906  0.4761  0.5067  0.0279
 5649TIP3   OH238361   5.011   5.869   2.038  0.4583  0.1054  0.1581
 5649TIP3    H138362   5.030   5.891   2.129 -1.0892 -0.5751  0.6670
 5649TIP3    H238363   4.932   5.919   2.017  0.6027 -0.0131 -0.6942
 5650TIP3   OH238364   0.006   0.029  16.659  0.2494  0.0146 -0.1295
 5650TIP3    H138365   0.015  -0.037  16.728  0.6005  0.8820  0.6709
 5650TIP3    H238366   0.062   0.101  16.687  0.2468  0.4594 -1.2345
 5651TIP3   OH238367   5.410   3.863   2.768  0.2114  0.0240  0.2488
 5651TIP3    H138368   5.429   3.946   2.723 -0.8909 -0.1990 -0.6785
 5651TIP3    H238369   5.428   3.881   2.860  1.2608  0.8921 -0.1028
 5652TIP3   OH238370   6.257   3.513  15.381  0.2072 -0.1738 -0.9521
 5652TIP3    H138371   6.333   3.543  15.431 -0.7164 -0.2713  0.5965
 5652TIP3    H238372   6.270   3.419  15.371 -0.9139 -0.7144  1.6942
 5653TIP3   OH238373   2.492   5.080   2.994  0.1672  0.5126 -0.6284
 5653TIP3    H138374   2.538   5.064   2.912 -0.7174 -0.3670 -0.9760
 5653TIP3    H238375   2.466   5.172   2.989  0.5522  0.5968 -1.1110
 5654TIP3   OH238376   5.151   4.114   5.455  0.1608 -0.3967  0.0679
 5654TIP3    H138377   5.236   4.071   5.463  0.5418 -0.4164 -2.8093
 5654TIP3    H238378   5.099   4.055   5.399 -1.0058  0.5737  0.0816
 5655TIP3   OH238379   2.652   2.271  16.826  0.6121  0.3162 -0.4324
 5655TIP3    H138380   2.712   2.214  16.873 -0.7456 -0.7904  0.0439
 5655TIP3    H238381   2.662   2.247  16.734  1.6927  0.9349 -0.4832
 5656TIP3   OH238382   2.791   4.340  10.377 -0.0673 -0.1322  0.2766
 5656TIP3    H138383   2.751   4.409  10.325  0.8686  0.2272  0.0025
 5656TIP3    H238384   2.885   4.359  10.374  0.6263 -3.0022 -2.2367
 5657TIP3   OH238385   4.717   5.441  13.615  0.2706  0.5585 -0.0223
 5657TIP3    H138386   4.783   5.497  13.576 -0.3219  0.3627 -1.3852
 5657TIP3    H238387   4.643   5.444  13.553 -1.1554  1.0856  1.6396
 5658TIP3   OH238388   4.858   4.398   4.077 -0.6890 -0.7070  0.1909
 5658TIP3    H138389   4.883   4.378   4.167 -0.3416 -0.0699  0.2400
 5658TIP3    H238390   4.910   4.474   4.054 -0.9896 -0.6913 -0.4542
 5659TIP3   OH238391   4.056   3.498   1.338  0.2738 -0.1066 -0.2038
 5659TIP3    H138392   4.097   3.533   1.259  0.1995  0.3966 -0.0198
 5659TIP3    H238393   4.080   3.560   1.407  1.9137 -1.4947  0.5581
 5660TIP3   OH238394   2.779   1.094   6.313 -0.7441  0.1657 -0.2005
 5660TIP3    H138395   2.727   1.156   6.363 -3.2404 -0.0384 -2.3769
 5660TIP3    H238396   2.809   1.143   6.237  2.5040  0.3032  0.9920
 5661TIP3   OH238397   4.135   0.232   1.123 -0.1928 -0.3927  0.1346
 5661TIP3    H138398   4.104   0.308   1.171 -1.7396 -0.4501 -0.7145
 5661TIP3    H238399   4.209   0.264   1.071 -0.8486  0.5483 -0.2393
 5662TIP3   OH238400   3.970   1.303   0.506 -0.0556 -0.1630 -0.5309
 5662TIP3    H138401   4.055   1.319   0.466 -0.1182  3.0470  0.3692
 5662TIP3    H238402   3.909   1.298   0.432  0.6559 -0.6522 -1.0900
 5663TIP3   OH238403   3.451   2.808  15.520  0.7174 -0.5804 -0.0552
 5663TIP3    H138404   3.502   2.883  15.547  0.3875 -0.6471  0.7702
 5663TIP3    H238405   3.480   2.737  15.577 -0.7943 -0.4454  0.9624
 5664TIP3   OH238406   2.497   6.573   4.171 -0.2720  0.3966 -0.3604
 5664TIP3    H138407   2.582   6.595   4.207 -0.2200 -0.7320  0.2544
 5664TIP3    H238408   2.434   6.622   4.224 -0.1287 -0.4390  0.6021
 5665TIP3   OH238409   1.454   4.279  11.164 -0.2067  0.0231  0.0111
 5665TIP3    H138410   1.441   4.307  11.254  0.3106  0.0079  0.0965
 5665TIP3    H238411   1.549   4.271  11.155 -0.2190  0.4954 -0.6737
 5666TIP3   OH238412   4.034   0.410   0.027 -0.0979 -0.4144 -0.1294
 5666TIP3    H138413   4.031   0.385  -0.066 -0.3627 -0.1771 -0.1876
 5666TIP3    H238414   3.944   0.401   0.057 -0.0633 -0.2228  0.0341
 5667TIP3   OH238415   4.540   6.205  13.297 -0.0110 -0.3148  0.5179
 5667TIP3    H138416   4.450   6.183  13.321 -0.2830  0.0398 -0.1556
 5667TIP3    H238417   4.531   6.260  13.219  0.7082  0.9846  1.3018
 5668TIP3   OH238418   2.491   5.552   4.846 -0.2410  0.6607  0.0020
 5668TIP3    H138419   2.466   5.627   4.791  0.2382 -0.1391 -1.3494
 5668TIP3    H238420   2.544   5.497   4.789 -1.6922 -1.3946  0.5324
 5669TIP3   OH238421   4.562   5.329  14.103 -0.2071  0.7131 -0.1696
 5669TIP3    H138422   4.475   5.291  14.112  0.4114 -0.7411 -0.1504
 5669TIP3    H238423   4.558   5.380  14.022 -1.1835  1.0191  0.0562
 5670TIP3   OH238424   6.624   5.041   5.777  0.1156  0.1550  0.3468
 5670TIP3    H138425   6.682   4.966   5.796  0.3722  0.5613  1.2332
 5670TIP3    H238426   6.677   5.118   5.796 -0.0631  0.5803 -0.8217
 5671TIP3   OH238427   3.959   5.486   3.953  0.2571  0.1305  0.2737
 5671TIP3    H138428   4.053   5.473   3.967  0.1313 -0.3717  0.7041
 5671TIP3    H238429   3.931   5.406   3.907 -0.2409 -0.4487  1.5298
 5672TIP3   OH238430   2.247   4.693   2.139  0.0677 -0.0090  0.4858
 5672TIP3    H138431   2.242   4.674   2.045  0.1684 -0.0683  0.4921
 5672TIP3    H238432   2.172   4.646   2.176 -1.0856  1.5151  0.2023
 5673TIP3   OH238433   3.697   3.661   2.954  1.1798  0.0025  0.0527
 5673TIP3    H138434   3.721   3.706   2.873  0.9043 -0.5256 -0.3235
 5673TIP3    H238435   3.613   3.619   2.935  0.9754  0.0972  0.6980
 5674TIP3   OH238436   5.910   4.102  15.854  0.0785 -0.2390  0.0845
 5674TIP3    H138437   5.823   4.127  15.823 -0.5624 -0.4788  1.5789
 5674TIP3    H238438   5.905   4.113  15.949  2.6690  2.7388  0.0085
 5675TIP3   OH238439   4.653   0.715  12.614 -0.3809  0.0878 -0.1893
 5675TIP3    H138440   4.617   0.628  12.631 -1.0374  0.6313  1.4317
 5675TIP3    H238441   4.578   0.768  12.588 -0.5073  0.7736  1.4081
 5676TIP3   OH238442   4.474   2.680  14.879  0.1191  0.3869 -0.4034
 5676TIP3    H138443   4.412   2.705  14.947 -1.3410 -1.2427 -1.0490
 5676TIP3    H238444   4.465   2.748  14.812 -0.8656  0.2682 -0.4071
 5677TIP3   OH238445   1.076   0.329  10.879  0.4126 -0.1170 -0.2931
 5677TIP3    H138446   1.145   0.341  10.813 -0.7486  1.4349 -1.2821
 5677TIP3    H238447   1.111   0.372  10.957  0.5383  0.7295 -0.8083
 5678TIP3   OH238448   0.962   3.909   2.168 -0.2537  0.5628  0.2386
 5678TIP3    H138449   1.054   3.898   2.192 -0.0862  1.3547  0.0116
 5678TIP3    H238450   0.939   3.829   2.122  0.6365  0.7922 -0.6378
 5679TIP3   OH238451   2.049   3.701   2.164  0.2812 -0.2249 -0.0627
 5679TIP3    H138452   2.110   3.637   2.201  1.3185  0.5624 -0.3738
 5679TIP3    H238453   2.105   3.766   2.122 -0.7841  0.4633 -0.4477
 5680TIP3   OH238454   4.302   0.782  16.588 -0.2445  0.0052 -0.5703
 5680TIP3    H138455   4.350   0.865  16.594  0.9003 -0.6475 -0.2507
 5680TIP3    H238456   4.316   0.753  16.498  0.3826 -0.4067 -0.3520
 5681TIP3   OH238457   0.532   5.610   1.812  0.1087  0.4480  0.5019
 5681TIP3    H138458   0.494   5.575   1.732  0.3290 -1.0603  1.0151
 5681TIP3    H238459   0.609   5.555   1.828  0.9339  1.6892  0.9457
 5682TIP3   OH238460   2.439   2.781   4.111 -0.6265 -0.1139 -0.1065
 5682TIP3    H138461   2.502   2.841   4.150 -1.3737  0.0941  0.8261
 5682TIP3    H238462   2.360   2.793   4.163 -0.3338 -3.0921  1.2117
 5683TIP3   OH238463   0.050   3.093   5.405 -0.7606  0.5794  0.3220
 5683TIP3    H138464   0.014   3.005   5.407  0.6358 -0.0254  2.9477
 5683TIP3    H238465   0.005   3.139   5.476  1.2475  0.7441  1.5547
 5684TIP3   OH238466   4.508   1.152   5.382  0.2935 -0.1126 -0.1146
 5684TIP3    H138467   4.416   1.168   5.403 -0.3675 -2.0429 -1.3005
 5684TIP3    H238468   4.517   1.178   5.291  1.3000  1.3368  0.3666
 5685TIP3   OH238469   5.843   4.358   1.165 -0.5321 -0.0089 -0.3585
 5685TIP3    H138470   5.831   4.263   1.171 -0.9588  0.0930  0.5472
 5685TIP3    H238471   5.884   4.382   1.247 -2.9193  0.9477  0.6614
 5686TIP3   OH238472   4.454   1.116   1.083  0.2565 -0.1593  0.1006
 5686TIP3    H138473   4.480   1.102   1.174  0.6989  1.8762  0.3230
 5686TIP3    H238474   4.370   1.071   1.075  0.3276 -0.5622  1.4353
 5687TIP3   OH238475   0.317   3.181   4.912 -0.3236  0.1412 -0.0504
 5687TIP3    H138476   0.252   3.148   4.850  0.7013 -0.9218 -0.6094
 5687TIP3    H238477   0.338   3.105   4.967  2.2035 -0.2872 -1.4504
 5688TIP3   OH238478   0.560   2.540   1.280  0.7559  0.6163  0.0383
 5688TIP3    H138479   0.550   2.608   1.215 -0.4900 -0.2900 -0.7628
 5688TIP3    H238480   0.543   2.458   1.233 -1.9882  0.0319  1.8058
 5689TIP3   OH238481   5.529   4.953   4.423 -0.1541  0.0651 -0.0233
 5689TIP3    H138482   5.447   4.990   4.454 -0.3360 -0.1423 -0.2530
 5689TIP3    H238483   5.525   4.861   4.449  0.2086  0.1583  0.3727
 5690TIP3   OH238484   3.531   2.645  16.007 -0.2430 -0.0580  0.4990
 5690TIP3    H138485   3.442   2.651  16.042  0.3003  1.4414  1.7165
 5690TIP3    H238486   3.535   2.713  15.940 -0.5836 -1.4332 -0.9681
 5691TIP3   OH238487   4.549   1.831   2.672 -0.1183  0.2202 -0.2075
 5691TIP3    H138488   4.595   1.870   2.746 -1.8606  0.4467  0.8021
 5691TIP3    H238489   4.548   1.900   2.606  0.5705  0.3708 -0.0680
 5692TIP3   OH238490   3.211   1.350  17.032 -0.8846 -0.4652  0.1059
 5692TIP3    H138491   3.164   1.313  16.957  0.2290  1.4319 -1.6482
 5692TIP3    H238492   3.291   1.298  17.038  0.0117  0.6601 -1.4355
 5693TIP3   OH238493   4.327   0.045   3.251  0.1953  0.1304 -0.6953
 5693TIP3    H138494   4.383   0.122   3.246  1.5003 -0.7840 -0.6437
 5693TIP3    H238495   4.247   0.076   3.295  0.6949  1.4283 -0.6583
 5694TIP3   OH238496   3.293   4.861   0.736  0.5023  0.5193  0.0965
 5694TIP3    H138497   3.252   4.877   0.821  0.4600  1.2413 -0.0532
 5694TIP3    H238498   3.221   4.866   0.674  0.0069 -2.7006  0.2189
 5695TIP3   OH238499   4.604   0.365   5.597 -0.3803  0.4252 -0.3848
 5695TIP3    H138500   4.638   0.294   5.651  0.6313  0.1187 -1.3711
 5695TIP3    H238501   4.545   0.322   5.535 -0.3499  0.5428 -0.4973
 5696TIP3   OH238502   2.787   5.933  12.188  0.1258 -0.3874  0.1659
 5696TIP3    H138503   2.782   6.028  12.202  1.3391 -0.4508  1.2432
 5696TIP3    H238504   2.879   5.912  12.207 -0.2684 -1.8668  0.4778
 5697TIP3   OH238505   6.357   2.889   2.921 -0.2272 -0.1932 -0.0487
 5697TIP3    H138506   6.386   2.937   2.998  0.3185  0.3787 -0.6008
 5697TIP3    H238507   6.403   2.931   2.848  0.4991 -1.7599 -0.5167
 5698TIP3   OH238508   2.603   3.073   5.209 -0.3190 -0.1562  0.7271
 5698TIP3    H138509   2.538   3.020   5.164 -0.9795  0.1655  1.2936
 5698TIP3    H238510   2.685   3.024   5.199 -0.4399 -0.1075 -0.8033
 5699TIP3   OH238511   4.651   4.162   4.483  0.7478 -0.0218  0.8415
 5699TIP3    H138512   4.657   4.201   4.570  0.8515  2.2613 -0.1090
 5699TIP3    H238513   4.607   4.078   4.497 -0.0914  0.6986  2.9587
 5700TIP3   OH238514   4.252   3.704   5.783  0.2263  0.0270  0.4351
 5700TIP3    H138515   4.252   3.609   5.787  0.0641  0.0215  0.2813
 5700TIP3    H238516   4.344   3.727   5.765  0.2116 -0.1092  0.1934
 5701TIP3   OH238517   2.617   2.515  16.272 -0.1338 -0.5952  0.3566
 5701TIP3    H138518   2.593   2.428  16.240 -2.4081  0.0050  0.2605
 5701TIP3    H238519   2.543   2.571  16.248  0.4975  1.0132  1.9187
 5702TIP3   OH238520   1.463   0.925   1.622  0.2605  0.0802  0.7005
 5702TIP3    H138521   1.462   1.019   1.639 -0.8822 -0.1820  2.4087
 5702TIP3    H238522   1.453   0.885   1.709  0.6720 -1.6207  0.0104
 5703TIP3   OH238523   3.687   5.211  15.464  0.2475 -0.1908 -0.0795
 5703TIP3    H138524   3.594   5.208  15.440 -0.3668 -0.0530  2.0949
 5703TIP3    H238525   3.704   5.125  15.503  0.0964  0.8917  2.5550
 5704TIP3   OH238526   1.685   4.764   0.270 -0.5218  0.2681  0.0505
 5704TIP3    H138527   1.749   4.707   0.227  0.4326  1.6455 -0.4184
 5704TIP3    H238528   1.635   4.803   0.199 -0.9480  0.2844  0.3515
 5705TIP3   OH238529   1.812   1.552   3.171  0.5504 -0.1471 -0.1317
 5705TIP3    H138530   1.782   1.484   3.110  1.2688  0.9540 -1.8116
 5705TIP3    H238531   1.900   1.525   3.195 -0.2381 -1.3191  1.6223
 5706TIP3   OH238532   2.755   5.573  12.383  0.2740  0.2738  0.7989
 5706TIP3    H138533   2.674   5.618  12.407  0.9009  1.2169  1.2103
 5706TIP3    H238534   2.727   5.505  12.322 -0.7634  0.9189  0.5241
 5707TIP3   OH238535   2.143   0.637   0.267 -0.3119  0.0748 -0.3282
 5707TIP3    H138536   2.238   0.635   0.260 -0.2511 -0.6194  0.5380
 5707TIP3    H238537   2.116   0.547   0.251 -0.8362  0.2903 -0.6809
 5708TIP3   OH238538   1.984   4.090  13.264  0.6248  0.0603 -0.5366
 5708TIP3    H138539   1.988   4.179  13.299 -0.1126 -0.1641  0.1326
 5708TIP3    H238540   2.070   4.077  13.223  0.6236  1.1889 -0.9355
 5709TIP3   OH238541   1.603   3.051   2.361  0.5717  0.3985  0.1131
 5709TIP3    H138542   1.593   3.029   2.453 -1.7628  0.9974  0.0860
 5709TIP3    H238543   1.514   3.048   2.326  0.6602  4.5527 -1.0421
 5710TIP3   OH238544   1.309   1.660   0.866  0.0399  0.5409  0.3654
 5710TIP3    H138545   1.260   1.580   0.849  0.5832  0.1866  0.4332
 5710TIP3    H238546   1.310   1.666   0.962 -0.6980  1.0752  0.3497
 5711TIP3   OH238547   6.231   1.738  16.075 -0.4153 -0.3861  0.7461
 5711TIP3    H138548   6.290   1.710  16.005  0.1028 -1.6277  1.6393
 5711TIP3    H238549   6.197   1.656  16.111 -0.3367  0.2099  2.2180
 5712TIP3   OH238550   2.667   3.051  12.131 -0.2507 -0.4741 -0.5031
 5712TIP3    H138551   2.622   3.084  12.209  0.3379 -2.4385  0.7567
 5712TIP3    H238552   2.619   2.972  12.107  0.4295 -0.6702 -1.2579
 5713TIP3   OH238553   3.354   0.574  13.313 -0.0396  0.2295  0.4365
 5713TIP3    H138554   3.423   0.537  13.258 -0.0864  1.3805 -0.4342
 5713TIP3    H238555   3.281   0.514  13.303  0.2574 -0.0563 -0.0376
 5714TIP3   OH238556   3.759   0.461  12.278 -0.6729  0.0207 -0.6234
 5714TIP3    H138557   3.672   0.478  12.242 -0.4810  1.2274 -0.5678
 5714TIP3    H238558   3.819   0.503  12.217 -0.2797  1.1423  0.4875
 5715TIP3   OH238559   5.696   5.128  12.048 -0.7736  0.2852 -0.9091
 5715TIP3    H138560   5.658   5.092  11.968  2.4588  0.0573 -2.4780
 5715TIP3    H238561   5.665   5.219  12.051 -1.2155  0.1930 -2.2186
 5716TIP3   OH238562   5.605   1.076   4.986 -0.0667  0.1527  0.0749
 5716TIP3    H138563   5.699   1.059   4.978  0.2929  2.1101 -0.6941
 5716TIP3    H238564   5.600   1.161   5.029 -1.5660 -0.6178  1.5077
 5717TIP3   OH238565   0.449   0.720  16.590  0.2015  0.4482  0.4603
 5717TIP3    H138566   0.471   0.729  16.682  1.0477 -1.5781  0.5159
 5717TIP3    H238567   0.519   0.665  16.554  0.5286  2.1248 -1.6722
 5718TIP3   OH238568   1.530   5.294   4.751  0.0350  0.4287 -0.1589
 5718TIP3    H138569   1.534   5.390   4.754 -0.2887  0.4482 -0.2626
 5718TIP3    H238570   1.620   5.266   4.739  0.1137  0.7290 -0.2712
 5719TIP3   OH238571   0.926   3.578  12.548 -0.6936 -0.2146  0.0435
 5719TIP3    H138572   0.997   3.537  12.499 -0.7615 -1.2115  0.7391
 5719TIP3    H238573   0.957   3.576  12.639 -0.7059  1.2992  0.0971
 5720TIP3   OH238574   2.276   4.434  14.775  0.5564 -0.3090  0.1737
 5720TIP3    H138575   2.303   4.364  14.716 -1.9989 -0.3404 -1.0988
 5720TIP3    H238576   2.292   4.515  14.725 -0.4335 -0.2756 -0.1334
 5721TIP3   OH238577   6.176   4.456   2.162  0.6934 -0.0711  0.6602
 5721TIP3    H138578   6.087   4.490   2.151  0.7193  0.4165  1.7445
 5721TIP3    H238579   6.171   4.365   2.135  0.6005  0.7186 -2.2527
 5722TIP3   OH238580   1.334   2.504   6.099  0.0637  0.3506 -0.3820
 5722TIP3    H138581   1.262   2.564   6.078 -1.3983  0.0435  3.1228
 5722TIP3    H238582   1.301   2.417   6.077 -0.6611  0.2219  1.1147
 5723TIP3   OH238583   2.002   0.402  17.244 -0.3992 -0.8158 -0.6323
 5723TIP3    H138584   1.982   0.495  17.230  0.9886 -0.1408  1.3874
 5723TIP3    H238585   1.919   0.363  17.269 -0.8251  0.0720 -0.6312
 5724TIP3   OH238586   2.916   6.374  17.060  0.2954 -0.1919 -0.5648
 5724TIP3    H138587   3.010   6.374  17.074  0.4461  0.3223 -1.4986
 5724TIP3    H238588   2.905   6.377  16.965 -0.6706 -1.6150 -0.5295
 5725TIP3   OH238589   1.678   3.328   2.916 -0.1842  0.1953  0.2533
 5725TIP3    H138590   1.718   3.306   2.832 -0.3973  0.4198  0.0911
 5725TIP3    H238591   1.659   3.243   2.956 -1.1876  0.0635 -0.4544
 5726TIP3   OH238592   2.845   4.611   5.796 -0.0826 -0.3465  0.0947
 5726TIP3    H138593   2.839   4.707   5.794  1.6393 -0.2215 -0.3892
 5726TIP3    H238594   2.938   4.592   5.807 -0.4168 -1.9782  0.4339
 5727TIP3   OH238595   4.438   1.721   3.495  0.3127 -0.2753  0.3905
 5727TIP3    H138596   4.528   1.689   3.500  0.5762  0.5580  2.2630
 5727TIP3    H238597   4.443   1.801   3.443  0.7941  0.0899  0.9809
 5728TIP3   OH238598   3.209   5.994   3.036 -0.8380  0.1097  0.1017
 5728TIP3    H138599   3.169   5.907   3.028  1.9765 -1.3569  0.5078
 5728TIP3    H238600   3.267   6.000   2.960 -1.0167  1.6719  0.0690
 5729TIP3   OH238601   6.194   3.612  13.679  0.9041  0.0240 -0.3359
 5729TIP3    H138602   6.219   3.679  13.615  0.0761  0.3185 -0.3607
 5729TIP3    H238603   6.262   3.616  13.746 -0.0930  2.1981  0.6408
 5730TIP3   OH238604   0.401   4.740  12.982  0.0373 -0.5594  0.1601
 5730TIP3    H138605   0.496   4.744  12.990 -0.1285  0.5137  2.6920
 5730TIP3    H238606   0.383   4.648  12.964  1.4454 -1.7060  3.7210
 5731TIP3   OH238607   3.964   6.131  15.003 -0.3292 -0.0151 -0.6398
 5731TIP3    H138608   3.886   6.090  14.966 -0.4493 -0.3725  0.0078
 5731TIP3    H238609   3.935   6.217  15.033 -0.2688  0.2098 -1.2124
 5732TIP3   OH238610   5.611   0.778  15.009 -0.1364 -0.4953 -0.9328
 5732TIP3    H138611   5.588   0.757  15.100  0.3935  0.2673 -0.6178
 5732TIP3    H238612   5.699   0.740  14.998  0.3959  0.6322 -0.6787
 5733TIP3   OH238613   0.596   1.171  11.137  0.7328 -0.0467  0.2489
 5733TIP3    H138614   0.577   1.093  11.086  0.9120 -0.1885  0.3991
 5733TIP3    H238615   0.518   1.184  11.191 -0.0564  0.9083 -1.0597
 5734TIP3   OH238616   0.771   5.325   4.433  0.0342  0.1280  0.4845
 5734TIP3    H138617   0.783   5.408   4.479  1.7864  0.8606 -1.1658
 5734TIP3    H238618   0.701   5.342   4.370  2.1089  1.2597 -1.6522
 5735TIP3   OH238619   5.204   3.218   2.545 -0.4516 -0.4728  0.4292
 5735TIP3    H138620   5.178   3.211   2.637  0.4872  0.2957  0.7661
 5735TIP3    H238621   5.296   3.242   2.548  0.5568 -3.7284 -0.7392
 5736TIP3   OH238622   2.894   2.415  12.418  0.6001  1.0336  0.1321
 5736TIP3    H138623   2.921   2.345  12.359 -0.7436 -1.1307  1.9013
 5736TIP3    H238624   2.970   2.474  12.421  1.0257  0.8287 -2.9917
 5737TIP3   OH238625   4.615   0.813   3.473 -0.2638 -0.4117 -0.0755
 5737TIP3    H138626   4.696   0.830   3.426 -1.3639 -0.2185 -2.0266
 5737TIP3    H238627   4.575   0.900   3.485 -1.9133 -0.7300 -2.5394
 5738TIP3   OH238628   2.989   3.517   3.959  0.2564  0.0455 -0.2734
 5738TIP3    H138629   2.932   3.494   3.885  2.4919  0.1373 -2.1149
 5738TIP3    H238630   2.993   3.612   3.958 -0.0093  0.0673  0.2349
 5739TIP3   OH238631   1.724   0.759  17.171  0.1542  0.2224  0.7565
 5739TIP3    H138632   1.673   0.719  17.242  1.5209 -1.5465  0.8132
 5739TIP3    H238633   1.815   0.750  17.199  0.6896  0.0825 -0.9229
 5740TIP3   OH238634   3.981   1.780  11.017  0.1695  0.3521 -0.3469
 5740TIP3    H138635   4.037   1.846  10.977  1.4451  0.2376  1.1596
 5740TIP3    H238636   4.031   1.748  11.092 -1.8753  0.1570  1.0067
 5741TIP3   OH238637   5.176   2.091   0.049 -0.2242  0.5638  0.4872
 5741TIP3    H138638   5.155   2.056   0.136 -1.6565  2.4285  0.9659
 5741TIP3    H238639   5.190   2.184   0.064 -0.8493  0.9836 -1.3429
 5742TIP3   OH238640   2.382   3.135  15.416  1.4133 -0.3548 -0.1818
 5742TIP3    H138641   2.439   3.088  15.355 -1.8355 -2.2667 -2.0391
 5742TIP3    H238642   2.337   3.200  15.361  0.7150  0.0933  0.8895
 5743TIP3   OH238643   5.517   4.112   6.551 -0.2224 -0.0709  0.0302
 5743TIP3    H138644   5.538   4.082   6.463 -2.7200 -0.4279 -0.5131
 5743TIP3    H238645   5.517   4.208   6.545 -3.0330 -0.0530 -1.1521
 5744TIP3   OH238646   2.160   5.544  14.479  0.1963  0.3521 -0.3935
 5744TIP3    H138647   2.215   5.594  14.538  2.5875 -0.8980 -1.4055
 5744TIP3    H238648   2.122   5.609  14.420 -0.5691  1.3761  1.1543
 5745TIP3   OH238649   4.280   4.809   5.903  0.2705 -0.9104  0.3834
 5745TIP3    H138650   4.370   4.838   5.913  0.4484 -1.2248 -0.2816
 5745TIP3    H238651   4.230   4.890   5.891  0.4920 -0.7528  0.5256
 5746TIP3   OH238652   0.376   2.376   3.567  0.0573 -0.0209 -0.1378
 5746TIP3    H138653   0.465   2.401   3.541  0.5199 -0.1732  1.2192
 5746TIP3    H238654   0.326   2.456   3.558  0.1363 -0.0972 -1.6111
 5747TIP3   OH238655   6.529   0.331  11.806  0.0090  0.5252  0.1899
 5747TIP3    H138656   6.463   0.395  11.835 -0.8032 -0.3859  0.3915
 5747TIP3    H238657   6.524   0.335  11.710 -1.8681 -1.0289  0.1737
 5748TIP3   OH238658   2.604   1.044  13.468 -0.0159  0.2137 -0.0107
 5748TIP3    H138659   2.561   1.113  13.418  1.0708  0.4939 -0.5697
 5748TIP3    H238660   2.620   0.974  13.405 -0.5475 -0.3145  0.4193
 5749TIP3   OH238661   3.685   3.236   5.452  0.1595 -0.0313 -0.4847
 5749TIP3    H138662   3.702   3.176   5.524 -1.0015 -0.8281 -0.8476
 5749TIP3    H238663   3.695   3.323   5.490  2.6450 -0.3791 -0.1341
 5750TIP3   OH238664   1.110   3.722   0.891  0.3121 -0.2475 -0.3189
 5750TIP3    H138665   1.175   3.775   0.844 -0.5977 -0.0681 -1.4224
 5750TIP3    H238666   1.075   3.781   0.957 -0.6360  0.5496 -1.4871
 5751TIP3   OH238667   2.217   4.941   4.437  0.0019 -0.1002 -0.0510
 5751TIP3    H138668   2.154   4.902   4.497 -0.4577 -0.7827 -0.9608
 5751TIP3    H238669   2.198   4.902   4.352  0.4940  1.0173 -0.7036
 5752TIP3   OH238670   6.600   4.904  10.634 -0.3588 -0.2121 -0.6502
 5752TIP3    H138671   6.514   4.944  10.642  0.0186  0.6338 -0.6936
 5752TIP3    H238672   6.655   4.972  10.595  0.6389 -0.2644  0.5743
 5753TIP3   OH238673   2.459   0.503  16.664 -0.0256 -0.4245  0.0862
 5753TIP3    H138674   2.492   0.420  16.697  0.3281 -0.5746 -0.6312
 5753TIP3    H238675   2.385   0.479  16.608  0.1887 -0.2759 -0.2655
 5754TIP3   OH238676   1.759   2.388  11.974 -0.3032  0.6119 -0.2698
 5754TIP3    H138677   1.820   2.354  11.909  0.8365  1.5510  0.2835
 5754TIP3    H238678   1.802   2.465  12.011 -2.0552  1.6247 -0.2256
 5755TIP3   OH238679   2.622   2.050  12.802  0.1361  0.1163 -0.3051
 5755TIP3    H138680   2.602   2.054  12.895 -0.2073 -0.8891 -0.3254
 5755TIP3    H238681   2.536   2.054  12.759  0.1226 -1.5721 -0.4909
 5756TIP3   OH238682   1.978   4.562   2.161 -0.7647 -0.0765 -0.1870
 5756TIP3    H138683   1.906   4.617   2.129 -0.2775  1.0933  0.6552
 5756TIP3    H238684   1.957   4.546   2.253  0.7181  1.4531  0.4634
 5757TIP3   OH238685   3.453   4.617   3.821 -0.1179 -0.3178 -0.1532
 5757TIP3    H138686   3.494   4.581   3.900 -0.5105  2.2148  1.3306
 5757TIP3    H238687   3.502   4.697   3.803 -0.2625 -0.6474 -2.3336
 5758TIP3   OH238688   1.871   2.840  14.513  0.1782  0.4912  0.4182
 5758TIP3    H138689   1.791   2.804  14.476  0.4052  2.1144 -1.9114
 5758TIP3    H238690   1.940   2.779  14.487  0.5721  2.2349 -3.5443
 5759TIP3   OH238691   5.618   5.600   2.084  0.1454 -0.2364 -0.1750
 5759TIP3    H138692   5.594   5.622   1.994  1.1648  0.3032 -0.3369
 5759TIP3    H238693   5.540   5.619   2.136 -0.2581  0.0131 -0.8653
 5760TIP3   OH238694   4.515   1.499   3.717  0.4677  0.4917 -0.6688
 5760TIP3    H138695   4.563   1.528   3.794 -0.4327 -0.4368  0.2654
 5760TIP3    H238696   4.560   1.542   3.644  1.4165  1.2874  0.3409
 5761TIP3   OH238697   5.294   4.875   2.146  0.0250 -0.0629 -0.1937
 5761TIP3    H138698   5.345   4.803   2.110  0.1712 -0.6287  1.0897
 5761TIP3    H238699   5.240   4.905   2.073 -0.5504 -1.9257 -0.5823
 5762TIP3   OH238700   2.507   1.456   4.265  0.3382  0.4491 -0.0896
 5762TIP3    H138701   2.551   1.507   4.333 -1.5569  0.2102  1.4075
 5762TIP3    H238702   2.500   1.368   4.301 -2.3823  0.7447  0.3212
 5763TIP3   OH238703   4.079   4.387   1.720  0.1278 -0.4678  0.0661
 5763TIP3    H138704   4.066   4.474   1.759  0.9156 -0.2372 -0.1704
 5763TIP3    H238705   4.173   4.372   1.725  0.1983 -0.6440 -1.2740
 5764TIP3   OH238706   0.933   5.688  16.423  0.1724  0.2736  0.3052
 5764TIP3    H138707   0.970   5.635  16.351  0.3842  0.8297  0.0030
 5764TIP3    H238708   1.001   5.751  16.443 -0.8563  1.7793 -0.7364
 5765TIP3   OH238709   5.930   4.104   5.171 -0.8876 -0.1682  0.0445
 5765TIP3    H138710   5.972   4.044   5.233 -1.1202  1.9027  2.3750
 5765TIP3    H238711   5.985   4.101   5.093  1.0801 -0.7761  1.3847
 5766TIP3   OH238712   4.857   6.122  15.061  0.0498 -0.3680 -0.0214
 5766TIP3    H138713   4.901   6.040  15.082  1.7375  0.4267 -0.2618
 5766TIP3    H238714   4.912   6.162  14.994 -0.3994  1.2218  0.5094
 5767TIP3   OH238715   0.592   6.014   6.546 -0.1934 -0.6681 -0.2491
 5767TIP3    H138716   0.579   6.000   6.640 -0.9676 -3.0553 -0.6286
 5767TIP3    H238717   0.592   5.925   6.509  2.2715  0.0510 -2.2566
 5768TIP3   OH238718   3.294   2.895   0.159 -0.0692 -0.1083 -0.0728
 5768TIP3    H138719   3.219   2.882   0.218 -0.9839  0.3230 -1.1055
 5768TIP3    H238720   3.370   2.894   0.217 -1.1172  4.0530  1.7415
 5769TIP3   OH238721   4.112   0.733   5.123 -0.2611  0.1447 -0.2431
 5769TIP3    H138722   4.086   0.714   5.213  0.3112  1.7481  0.2909
 5769TIP3    H238723   4.153   0.819   5.127 -1.8296  1.0964 -2.3411
 5770TIP3   OH238724   5.152   3.008  16.703  0.1943  0.4320 -0.4791
 5770TIP3    H138725   5.104   2.925  16.699  0.4628  0.2681 -0.3347
 5770TIP3    H238726   5.179   3.015  16.794 -1.3703  1.5683 -0.0600
 5771TIP3   OH238727   4.766   3.939  11.657 -0.2429 -0.2206  0.0409
 5771TIP3    H138728   4.823   3.958  11.582 -0.8256  0.5296 -0.2159
 5771TIP3    H238729   4.820   3.884  11.714 -0.0445 -1.4561 -1.2840
 5772TIP3   OH238730   3.025   0.122   0.093  0.3255  0.2499  0.1854
 5772TIP3    H138731   3.095   0.057   0.103 -0.2489 -0.2365  1.2653
 5772TIP3    H238732   2.945   0.074   0.114 -0.1873  1.1347  0.3183
 5773TIP3   OH238733   3.074   5.590  11.818 -0.4340  0.4044 -0.1633
 5773TIP3    H138734   3.039   5.672  11.783 -0.1768  0.3576 -0.5337
 5773TIP3    H238735   3.041   5.523  11.758 -1.7912  0.0686  0.9089
 5774TIP3   OH238736   3.350   1.722  16.677  0.1615 -0.1608 -0.5206
 5774TIP3    H138737   3.382   1.811  16.690  0.9151 -0.4100 -0.6096
 5774TIP3    H238738   3.342   1.686  16.765 -2.4105  0.7378 -0.3148
 5775TIP3   OH238739   4.189   0.986   5.183 -0.0619 -0.2364 -0.2454
 5775TIP3    H138740   4.141   1.031   5.114 -1.6607 -0.3690  0.7113
 5775TIP3    H238741   4.179   1.043   5.260 -0.2083 -1.1311  0.4170
 5776TIP3   OH238742   1.200   5.399  11.456  0.1764  0.5322  0.0346
 5776TIP3    H138743   1.193   5.449  11.537 -0.6682 -0.4067  0.5693
 5776TIP3    H238744   1.181   5.463  11.387  0.0784  1.1603  0.6322
 5777TIP3   OH238745   4.474   3.409   1.753  0.1951  0.3808  0.2136
 5777TIP3    H138746   4.472   3.314   1.766 -0.2022  0.4695  0.8009
 5777TIP3    H238747   4.483   3.419   1.658  1.9159 -0.2484  0.2713
 5778TIP3   OH238748   1.587   4.565  10.562  0.6567 -0.7936  0.4726
 5778TIP3    H138749   1.557   4.503  10.629  1.4391  0.5857  2.1836
 5778TIP3    H238750   1.526   4.638  10.570  0.8394 -0.5608 -0.2631
 5779TIP3   OH238751   4.655   5.833   0.425  0.0761  0.5266  0.1107
 5779TIP3    H138752   4.707   5.842   0.505  0.3631  1.8568 -0.1920
 5779TIP3    H238753   4.601   5.756   0.440  2.7005 -1.4450  0.1141
 5780TIP3   OH238754   4.272   1.711   6.298  0.4541  0.1472  0.1677
 5780TIP3    H138755   4.246   1.689   6.387  0.6381  0.3190  0.2660
 5780TIP3    H238756   4.354   1.664   6.285 -0.1707 -0.8351 -0.3350
 5781TIP3   OH238757   6.147   0.455  16.939 -0.2038 -0.4962  0.9473
 5781TIP3    H138758   6.233   0.493  16.957 -0.4431  1.1514 -1.0736
 5781TIP3    H238759   6.102   0.458  17.023  0.8189  1.0310  1.4819
 5782TIP3   OH238760   0.007   4.841   5.875 -0.2877  0.5017  0.3135
 5782TIP3    H138761   0.076   4.854   5.940  0.0079  0.4684  0.0050
 5782TIP3    H238762  -0.046   4.770   5.911 -0.0077  0.3490  0.4241
 5783TIP3   OH238763   6.055   5.836   6.870 -0.2151 -0.0684  0.1738
 5783TIP3    H138764   6.023   5.774   6.805  1.8334 -0.2785 -0.7327
 5783TIP3    H238765   6.053   5.788   6.952  2.8229 -2.0587 -0.7394
 5784TIP3   OH238766   1.376   0.008   3.155 -0.3126 -0.1820 -0.4523
 5784TIP3    H138767   1.299   0.026   3.101  1.0004  0.3821 -2.2112
 5784TIP3    H238768   1.413  -0.072   3.116  0.1716 -0.2657  0.1812
 5785TIP3   OH238769   3.592   3.881   1.065 -0.0399  0.0338  0.5694
 5785TIP3    H138770   3.628   3.815   1.124  0.9003  0.1206  0.1072
 5785TIP3    H238771   3.603   3.964   1.112  0.9464  0.1342  0.1751
 5786TIP3   OH238772   0.685   4.795  16.004  0.1753 -0.4650 -0.0465
 5786TIP3    H138773   0.661   4.720  16.057  1.2725  0.8331  2.4488
 5786TIP3    H238774   0.744   4.846  16.059 -0.9341  2.5277 -1.4053
 5787TIP3   OH238775   4.574   6.186  16.280  0.1652  0.1251  0.2045
 5787TIP3    H138776   4.608   6.194  16.191  1.2289  1.6732  0.6965
 5787TIP3    H238777   4.493   6.238  16.280  1.0954  1.6441  0.5404
 5788TIP3   OH238778   2.463   6.111   0.332 -0.0632  0.0640  0.1995
 5788TIP3    H138779   2.549   6.102   0.373 -0.5071 -0.7001  1.0043
 5788TIP3    H238780   2.428   6.192   0.368  0.5221  0.6557 -0.5351
 5789TIP3   OH238781   6.126   3.551   5.158  0.2872 -0.2533 -0.0696
 5789TIP3    H138782   6.059   3.496   5.199 -0.8428  1.9309  1.2191
 5789TIP3    H238783   6.208   3.524   5.199 -0.4041 -0.2282  1.4028
 5790TIP3   OH238784   4.000   5.098   1.098 -0.1013  0.2519  0.1422
 5790TIP3    H138785   3.936   5.048   1.149 -0.8699  0.3759 -0.6708
 5790TIP3    H238786   4.076   5.040   1.092 -1.0062 -0.8841 -0.8513
 5791TIP3   OH238787   1.094   2.262   4.956  0.2549 -0.2512 -0.2534
 5791TIP3    H138788   1.145   2.308   4.890  0.8892 -0.3308  0.1770
 5791TIP3    H238789   1.014   2.315   4.965  0.8582  0.6364  0.0498
 5792TIP3   OH238790   5.667   0.069   0.521 -1.2255 -0.1484 -0.2742
 5792TIP3    H138791   5.638   0.031   0.604 -0.0590  0.6512  0.5296
 5792TIP3    H238792   5.690  -0.006   0.467  0.0837 -0.6664  0.9283
 5793TIP3   OH238793   6.431   1.599  12.205 -0.4696 -0.2718  0.4163
 5793TIP3    H138794   6.397   1.663  12.267 -1.7032 -1.9240  1.5175
 5793TIP3    H238795   6.387   1.619  12.123 -0.3286  0.6901  0.5592
 5794TIP3   OH238796   3.653   0.689   2.623 -0.0538 -0.1001 -0.5360
 5794TIP3    H138797   3.614   0.775   2.607 -1.1759 -0.6434 -0.8363
 5794TIP3    H238798   3.612   0.660   2.705  1.0861  0.0720  0.1130
 5795TIP3   OH238799   1.303   1.669  13.802  0.4540 -0.1336 -0.4704
 5795TIP3    H138800   1.255   1.707  13.876  0.5533 -0.6207 -0.1508
 5795TIP3    H238801   1.248   1.687  13.726  1.1175  1.8093 -0.5448
 5796TIP3   OH238802   2.770   3.572   4.167 -0.2816 -0.5299  0.0370
 5796TIP3    H138803   2.790   3.530   4.084 -0.5028  1.5719 -1.1490
 5796TIP3    H238804   2.853   3.611   4.196 -0.7676  1.1461 -0.6883
 5797TIP3   OH238805   0.068   1.725   1.109  0.7824  0.2052 -0.6995
 5797TIP3    H138806  -0.026   1.740   1.100  0.8257  0.7639 -0.2556
 5797TIP3    H238807   0.078   1.630   1.096 -0.4270 -0.6955  3.3049
 5798TIP3   OH238808   0.174   4.078   3.257  0.0835 -0.4370 -0.0040
 5798TIP3    H138809   0.169   4.173   3.262  0.1086 -0.4727  0.7119
 5798TIP3    H238810   0.083   4.048   3.264  0.2124 -0.5387  1.5062
 5799TIP3   OH238811   3.236   1.323   3.204 -0.4969  0.5515  0.1422
 5799TIP3    H138812   3.299   1.385   3.168  1.8112 -0.8757  1.5400
 5799TIP3    H238813   3.206   1.364   3.285  0.0615  0.4081  0.4225
 5800TIP3   OH238814   5.974   4.450  17.010  0.3721 -0.1521  0.4064
 5800TIP3    H138815   6.042   4.515  17.033  0.9481  0.7199 -3.1377
 5800TIP3    H238816   5.924   4.492  16.940 -0.6673 -2.7105 -0.4952
 5801TIP3   OH238817   4.941   1.748  14.076  0.5608 -0.0381  0.2014
 5801TIP3    H138818   4.848   1.727  14.067  0.5039 -0.5167  1.6456
 5801TIP3    H238819   4.984   1.689  14.015 -0.0987  0.4479 -0.7563
 5802TIP3   OH238820   0.330   4.333   4.664 -0.0284 -0.1146  0.6051
 5802TIP3    H138821   0.396   4.264   4.658 -0.4179 -0.4029 -0.7463
 5802TIP3    H238822   0.380   4.414   4.673  0.5946 -0.2178 -1.4352
 5803TIP3   OH238823   6.068   1.668  13.466 -0.2801  0.2650  0.2848
 5803TIP3    H138824   6.157   1.648  13.492 -0.2498  1.2586  0.9730
 5803TIP3    H238825   6.076   1.746  13.411 -0.8284  1.1308  1.3919
 5804TIP3   OH238826   1.427   0.631  16.689  0.2913  0.4670  0.0562
 5804TIP3    H138827   1.468   0.634  16.602 -0.2805 -1.1386 -0.3166
 5804TIP3    H238828   1.363   0.560  16.682 -0.7981  1.2786  1.3702
 5805TIP3   OH238829   0.083   0.682  14.077 -0.2307  0.4172  0.0880
 5805TIP3    H138830   0.100   0.777  14.084  1.1206  0.1191  1.6544
 5805TIP3    H238831   0.147   0.643  14.137  0.7285 -1.6684 -2.1275
 5806TIP3   OH238832   0.760   4.933   6.049 -0.1351 -0.1844  0.2504
 5806TIP3    H138833   0.735   4.850   6.007 -0.7080 -0.2679  0.7395
 5806TIP3    H238834   0.729   5.000   5.988  1.1820 -0.3338 -0.6070
 5807TIP3   OH238835   3.076   3.719  14.822  0.6904  0.3130 -0.1048
 5807TIP3    H138836   3.018   3.729  14.746 -0.8609  2.1742  1.2400
 5807TIP3    H238837   3.164   3.720  14.785 -0.0291 -1.8394 -2.1535
 5808TIP3   OH238838   2.797   1.237   3.768  0.2282  0.2310 -0.0933
 5808TIP3    H138839   2.888   1.215   3.789 -0.4396 -2.7931  0.1505
 5808TIP3    H238840   2.746   1.167   3.809 -2.1444  1.2939 -1.0726
 5809TIP3   OH238841   1.030   5.007   4.518 -0.2088  0.1609 -0.0773
 5809TIP3    H138842   0.966   4.959   4.570  1.5789 -1.2561  0.9218
 5809TIP3    H238843   1.039   5.091   4.562 -0.4167 -0.1339  0.5299
 5810TIP3   OH238844   0.564   4.841  12.051  0.3011  0.6338  0.3925
 5810TIP3    H138845   0.509   4.901  12.001  1.4753  0.6956 -0.8819
 5810TIP3    H238846   0.653   4.875  12.040  0.8513 -0.6817  0.6133
 5811TIP3   OH238847   4.940   2.151  16.192  0.3115 -0.1532  0.1173
 5811TIP3    H138848   4.998   2.099  16.248  1.7334  0.0117 -1.1226
 5811TIP3    H238849   4.874   2.187  16.252  1.5547 -0.2646  1.6179
 5812TIP3   OH238850   1.936   0.857  12.783 -0.3400  0.5098  0.1208
 5812TIP3    H138851   2.009   0.852  12.722  0.2905 -0.6078  0.9408
 5812TIP3    H238852   1.975   0.887  12.865 -0.7089 -0.5258  0.6863
 5813TIP3   OH238853   0.535   5.577   3.361  0.0024 -0.0170 -0.7447
 5813TIP3    H138854   0.486   5.659   3.352  1.4540  0.7622 -2.0471
 5813TIP3    H238855   0.611   5.600   3.414 -0.2642 -0.8745  0.0437
 5814TIP3   OH238856   6.693   4.827  13.380 -0.0556 -0.2388  0.2993
 5814TIP3    H138857   6.659   4.913  13.354 -0.1420 -0.1355  0.7408
 5814TIP3    H238858   6.785   4.843  13.400 -0.2778 -0.0620  1.2281
 5815TIP3   OH238859   6.752   6.755  12.119  0.0953 -0.8532  1.1744
 5815TIP3    H138860   6.676   6.811  12.133  0.0272 -0.9709  1.2814
 5815TIP3    H238861   6.776   6.725  12.207 -1.2354 -2.7999  0.9566
 5816TIP3   OH238862   6.338   1.523   6.261 -0.7689 -0.9176  0.0431
 5816TIP3    H138863   6.414   1.510   6.204  0.6027  0.8375  1.3283
 5816TIP3    H238864   6.269   1.556   6.203 -0.1899 -1.4211 -0.9638
 5817TIP3   OH238865   0.616   3.124  11.738 -0.4477 -0.3460  0.4512
 5817TIP3    H138866   0.642   3.215  11.723  1.5669 -0.7279  1.1752
 5817TIP3    H238867   0.667   3.074  11.674 -1.5003 -0.9913  0.0936
 5818TIP3   OH238868   0.218   3.079   1.321 -0.0148 -0.6146 -0.5166
 5818TIP3    H138869   0.151   3.059   1.255 -2.7309  1.4340  1.3866
 5818TIP3    H238870   0.184   3.038   1.401 -1.0802  3.4674  1.3540
 5819TIP3   OH238871   4.658   0.945  11.981 -0.0114  0.0657  0.3377
 5819TIP3    H138872   4.651   1.040  11.982  3.4137  0.4477 -0.8646
 5819TIP3    H238873   4.648   0.921  11.889  1.2252 -0.4910  0.3326
 5820TIP3   OH238874   5.627   3.552  16.593  0.2105  0.3332  0.1947
 5820TIP3    H138875   5.601   3.643  16.602  1.9396  0.7980  1.1092
 5820TIP3    H238876   5.711   3.555  16.546  0.1325 -0.8090 -0.0564
 5821TIP3   OH238877   2.113   6.068   1.747 -0.0347 -0.1929 -0.0170
 5821TIP3    H138878   2.078   5.983   1.722  0.8266 -0.3295 -0.8274
 5821TIP3    H238879   2.154   6.102   1.668  0.5359  0.5094  0.5566
 5822TIP3   OH238880   1.197   3.623   5.441 -0.3186 -0.9630  0.4489
 5822TIP3    H138881   1.121   3.656   5.490  0.1628  1.7674 -0.4291
 5822TIP3    H238882   1.258   3.594   5.508 -1.4013 -1.4252  1.2539
 5823TIP3   OH238883   0.629   3.271  15.924 -0.0394 -0.2813 -0.5568
 5823TIP3    H138884   0.546   3.286  15.880  0.2029  0.8965 -0.6364
 5823TIP3    H238885   0.658   3.185  15.892 -2.0199 -1.5304  0.7814
 5824TIP3   OH238886   3.391   1.462   4.054 -0.2533  0.0079 -0.1624
 5824TIP3    H138887   3.437   1.410   4.120  0.0760  0.0158 -0.3809
 5824TIP3    H238888   3.332   1.518   4.105 -0.5272 -0.4947  0.0780
 5825TIP3   OH238889   3.493   5.676   2.524 -0.0663 -0.3653  0.2760
 5825TIP3    H138890   3.505   5.769   2.508  0.0527 -0.5837 -1.1043
 5825TIP3    H238891   3.416   5.670   2.580  0.2005  0.5811  0.7462
 5826TIP3   OH238892   2.738   4.125  15.111 -0.1123 -0.4136 -0.3538
 5826TIP3    H138893   2.721   4.032  15.092 -0.2394 -0.3600 -0.5128
 5826TIP3    H238894   2.715   4.170  15.029 -0.4355 -0.2014 -0.1496
 5827TIP3   OH238895   0.564   2.731   4.603  0.3718 -0.4313 -0.0431
 5827TIP3    H138896   0.512   2.691   4.533 -0.8163 -2.1867  1.7054
 5827TIP3    H238897   0.500   2.778   4.657  0.8402 -1.0632  1.1197
 5828TIP3   OH238898   2.978   4.114  14.705  0.3301 -1.1138  0.0537
 5828TIP3    H138899   2.895   4.140  14.665  0.4727  1.8657  1.4681
 5828TIP3    H238900   2.954   4.051  14.773 -0.4142 -2.4060 -1.3459
 5829TIP3   OH238901   5.595   0.761   0.915  0.1961  0.6942 -0.7569
 5829TIP3    H138902   5.623   0.706   0.842  0.7615  2.6017 -2.0269
 5829TIP3    H238903   5.615   0.850   0.888  0.5410  1.4798  1.7911
 5830TIP3   OH238904   2.323   3.316  14.031 -0.1413 -0.0753  0.0329
 5830TIP3    H138905   2.345   3.405  14.002  0.6065 -0.6055 -1.1408
 5830TIP3    H238906   2.325   3.264  13.950 -0.9201 -1.0943  0.6482
 5831TIP3   OH238907   0.448   3.183   3.204  0.6547 -0.0517 -0.7952
 5831TIP3    H138908   0.475   3.273   3.186  0.3559  0.3494  0.6416
 5831TIP3    H238909   0.502   3.157   3.278 -1.2631 -0.0277  0.6634
 5832TIP3   OH238910   1.847   5.405   3.783 -0.7434 -0.2384  0.0389
 5832TIP3    H138911   1.935   5.398   3.747 -1.3966 -2.0442 -1.3971
 5832TIP3    H238912   1.840   5.496   3.813  1.3449  0.1331 -0.4533
 5833TIP3   OH238913   1.483   3.568   3.149 -1.0094 -0.0678 -0.8111
 5833TIP3    H138914   1.430   3.647   3.142 -1.1689 -0.3006 -2.6738
 5833TIP3    H238915   1.567   3.599   3.183 -1.5851  0.6418  0.0126
 5834TIP3   OH238916   2.294   6.119   0.714 -0.8065  0.6619  0.5252
 5834TIP3    H138917   2.287   6.105   0.809 -0.1620 -1.0265  0.3632
 5834TIP3    H238918   2.388   6.116   0.696 -0.9232  0.9577 -0.1754
 5835TIP3   OH238919   0.800   1.435   6.146 -0.0229 -0.6256  0.4589
 5835TIP3    H138920   0.875   1.454   6.202 -0.4820 -0.9227  1.1759
 5835TIP3    H238921   0.730   1.490   6.179  0.2750  0.8469 -1.1899
 5836TIP3   OH238922   1.128   0.241   2.662 -0.2589 -0.2205 -0.6754
 5836TIP3    H138923   1.074   0.316   2.637  1.2879  0.0894 -3.5734
 5836TIP3    H238924   1.192   0.276   2.723 -0.4136  0.5234 -0.9310
 5837TIP3   OH238925   2.457   2.721  16.130 -0.6568  0.1993 -0.3454
 5837TIP3    H138926   2.493   2.752  16.047  0.8810 -0.2608  0.1186
 5837TIP3    H238927   2.436   2.802  16.178 -0.8981  0.4708 -0.8983
 5838TIP3   OH238928   2.990   3.039  11.790 -0.4087  0.2570 -0.3750
 5838TIP3    H138929   3.021   3.020  11.879 -0.0693 -0.3835 -0.6243
 5838TIP3    H238930   2.904   2.997  11.786 -0.7265  0.8790 -0.1247
 5839TIP3   OH238931   5.668   0.278   1.544 -0.0620 -0.2623 -0.3418
 5839TIP3    H138932   5.579   0.280   1.579  0.4964  1.6656  1.1209
 5839TIP3    H238933   5.657   0.285   1.449 -1.4590 -0.6382 -0.2318
 5840TIP3   OH238934   2.574   0.967  10.511  0.2973 -0.1562 -0.3418
 5840TIP3    H138935   2.558   0.897  10.448 -1.1786  0.4091 -0.6488
 5840TIP3    H238936   2.523   0.941  10.588 -1.3798  1.1774 -0.9357
 5841TIP3   OH238937   3.846   5.461  14.776  0.1269  0.0971 -0.0869
 5841TIP3    H138938   3.923   5.435  14.827  0.8590  2.4393  0.1006
 5841TIP3    H238939   3.776   5.466  14.841  0.0021 -1.0903 -0.0947
 5842TIP3   OH238940   6.050   6.304   0.032 -0.8284 -0.1141  0.0719
 5842TIP3    H138941   5.974   6.247   0.044 -1.3919  0.6766  0.3675
 5842TIP3    H238942   6.070   6.300  -0.062 -0.2864 -1.4929  0.2262
 5843TIP3   OH238943   4.776   1.321   3.345 -0.1392  0.1358  0.0000
 5843TIP3    H138944   4.861   1.277   3.343  0.4424  1.2557 -1.4849
 5843TIP3    H238945   4.757   1.333   3.438  1.2849 -0.2034  0.3528
 5844TIP3   OH238946   6.503   5.374   3.607  0.0304 -0.1360  0.4446
 5844TIP3    H138947   6.420   5.329   3.588  0.5077 -0.8668  0.0157
 5844TIP3    H238948   6.480   5.466   3.615 -0.8323 -0.3412  0.3828
 5845TIP3   OH238949   2.361   6.481   0.725  0.3121 -0.1474  0.2131
 5845TIP3    H138950   2.307   6.542   0.776 -0.2644 -0.4422 -0.0426
 5845TIP3    H238951   2.451   6.506   0.746  0.0800  0.2030  0.8175
 5846TIP3   OH238952   1.749   4.533  11.525  0.0556  0.5010  0.3257
 5846TIP3    H138953   1.706   4.598  11.470  0.3395  1.8327  1.6183
 5846TIP3    H238954   1.843   4.546  11.508  0.1135  0.3352  0.5176
 5847TIP3   OH238955   5.184   2.080   5.186 -0.2392 -0.0957 -0.6211
 5847TIP3    H138956   5.168   2.174   5.184 -1.0907 -0.2411 -1.3460
 5847TIP3    H238957   5.209   2.061   5.277  2.1332  1.1452 -0.9211
 5848TIP3   OH238958   1.351   1.629  12.994  0.2015 -0.0201 -0.4051
 5848TIP3    H138959   1.296   1.554  13.017  0.2092 -0.3073 -1.2955
 5848TIP3    H238960   1.304   1.705  13.028 -0.5869 -0.2906 -0.8679
 5849TIP3   OH238961   3.229   3.160  11.741 -0.4951 -0.2812  0.3930
 5849TIP3    H138962   3.157   3.101  11.764 -1.5542 -0.1187 -2.1342
 5849TIP3    H238963   3.296   3.103  11.702 -0.7232 -0.0621 -0.3403
 5850TIP3   OH238964   2.697   3.578  11.925 -0.2750  0.2911  0.8132
 5850TIP3    H138965   2.731   3.491  11.905  0.4988  0.4553  1.3482
 5850TIP3    H238966   2.683   3.619  11.840  1.2849  0.3630  0.5582
 5851TIP3   OH238967   1.651   6.711   2.528  0.1765 -0.5785 -0.4237
 5851TIP3    H138968   1.674   6.687   2.618  1.3588  2.1784  0.1089
 5851TIP3    H238969   1.735   6.717   2.483 -0.1294  0.9738 -0.8528
 5852TIP3   OH238970   0.106   2.770  15.122 -0.0109  0.1414  0.0930
 5852TIP3    H138971   0.133   2.728  15.040  0.9529  1.2385 -0.1770
 5852TIP3    H238972   0.182   2.821  15.149 -0.4344  0.0733  1.5059
 5853TIP3   OH238973   5.545   4.795  13.588 -0.3046  0.4425 -0.3289
 5853TIP3    H138974   5.474   4.779  13.524  0.6364  0.8277 -1.5082
 5853TIP3    H238975   5.618   4.827  13.535  0.5385  0.7152  0.9566
 5854TIP3   OH238976   5.234   1.926  14.724  0.4827 -0.3123 -0.3647
 5854TIP3    H138977   5.189   1.909  14.806  0.7278  0.2241 -0.1118
 5854TIP3    H238978   5.327   1.932  14.748  0.5566 -0.1542 -0.6785
 5855TIP3   OH238979   1.772   0.216  17.178 -0.1383 -0.3320  0.0167
 5855TIP3    H138980   1.798   0.196  17.267  2.7869  0.6157 -0.5228
 5855TIP3    H238981   1.731   0.302  17.183 -0.8849 -0.7094  0.5500
 5856TIP3   OH238982   2.303   2.448   3.691  0.0547 -0.4186 -0.2051
 5856TIP3    H138983   2.342   2.430   3.605  0.1753 -1.0545 -0.0269
 5856TIP3    H238984   2.376   2.436   3.752 -0.2293 -0.8370  0.0598
 5857TIP3   OH238985   3.732   5.879  11.963  0.1576  0.1929  0.4519
 5857TIP3    H138986   3.749   5.912  12.051  0.4038  0.7472  0.2028
 5857TIP3    H238987   3.809   5.905  11.912 -0.3015  0.5083 -0.0954
 5858TIP3   OH238988   5.130   6.724   2.361 -0.4161  0.7751  0.4469
 5858TIP3    H138989   5.207   6.701   2.309  0.9946  0.2127  2.6556
 5858TIP3    H238990   5.057   6.719   2.299  0.9318 -1.4686 -1.1010
 5859TIP3   OH238991   1.249   2.100  11.824  0.8812  0.1762 -0.0927
 5859TIP3    H138992   1.184   2.170  11.812  1.1883  0.6162  0.7634
 5859TIP3    H238993   1.318   2.140  11.877  1.8656 -0.2834 -0.9930
 5860TIP3   OH238994   3.940   6.212   5.120 -0.3085 -0.0283 -0.3452
 5860TIP3    H138995   4.029   6.235   5.095 -0.9659  2.8310 -0.3347
 5860TIP3    H238996   3.893   6.295   5.121 -2.0274 -0.8576  3.5768
 5861TIP3   OH238997   1.304   2.188  12.748 -0.0737  0.3200  0.3341
 5861TIP3    H138998   1.230   2.187  12.687 -0.7677 -0.4323  1.1420
 5861TIP3    H238999   1.287   2.263  12.804  0.0133  0.4110  0.2376
 5862TIP3   OH239000   3.029   0.091   1.347 -0.5803  0.3517 -0.1900
 5862TIP3    H139001   3.011   0.130   1.433  1.8637  0.6952  0.2291
 5862TIP3    H239002   3.036   0.165   1.287  2.6913  0.6138  0.3463
 5863TIP3   OH239003   0.614   3.654   1.642  0.0121  0.1927  0.0506
 5863TIP3    H139004   0.630   3.625   1.553 -2.1234  1.0777 -0.6997
 5863TIP3    H239005   0.566   3.581   1.683 -0.2138  0.3249  0.0251
 5864TIP3   OH239006   4.906   4.372   1.120  0.1845 -0.9260  0.1692
 5864TIP3    H139007   4.850   4.448   1.101  1.6023 -0.5212 -2.8397
 5864TIP3    H239008   4.964   4.403   1.190  0.7878  0.8557 -1.0543
 5865TIP3   OH239009   5.648   4.784   3.046 -0.2746  0.4555  0.1713
 5865TIP3    H139010   5.648   4.702   2.998 -0.1807  0.3313  0.3811
 5865TIP3    H239011   5.627   4.759   3.136 -3.6291  0.9943 -0.3271
 5866TIP3   OH239012   1.600   4.343   2.126  0.0674 -0.0438  0.0644
 5866TIP3    H139013   1.576   4.322   2.036  2.3592  1.3140 -0.9606
 5866TIP3    H239014   1.518   4.342   2.174 -1.1391 -1.4519 -1.8943
 5867TIP3   OH239015   3.672   2.145  16.240  0.2924  0.8645  0.3493
 5867TIP3    H139016   3.646   2.222  16.291 -0.2210  0.4252  0.7717
 5867TIP3    H239017   3.591   2.094  16.233  0.4872  0.6563 -0.4496
 5868TIP3   OH239018   4.197   3.629   5.355  0.6220 -0.4862 -0.5791
 5868TIP3    H139019   4.161   3.541   5.367  1.7908 -1.1021 -1.3724
 5868TIP3    H239020   4.279   3.629   5.405  1.4183 -0.3813 -1.8509
 5869TIP3   OH239021   3.643   4.038   4.515 -0.3631  0.0329 -0.6251
 5869TIP3    H139022   3.677   4.031   4.604 -1.4714  0.5399 -0.1537
 5869TIP3    H239023   3.566   4.094   4.522 -1.6991 -1.5715 -1.5483
 5870TIP3   OH239024   1.856   4.575   0.142  0.0087  0.1738 -0.1744
 5870TIP3    H139025   1.830   4.546   0.054 -0.4264 -1.3154  0.4106
 5870TIP3    H239026   1.919   4.645   0.127 -0.0882 -0.0296 -1.6754
 5871TIP3   OH239027   1.837   5.090   2.797  0.3414 -0.9166 -0.3685
 5871TIP3    H139028   1.919   5.097   2.747  0.9292  0.2588  0.7269
 5871TIP3    H239029   1.815   5.180   2.819 -2.4515 -0.9595 -2.4741
 5872TIP3   OH239030   4.711   3.186  17.249  0.4440  0.3972  0.2891
 5872TIP3    H139031   4.708   3.128  17.325 -2.5487  1.2696  0.9465
 5872TIP3    H239032   4.662   3.264  17.276  0.1685  1.1737 -2.1891
 5873TIP3   OH239033   5.439   1.620  13.855  0.4456 -0.1326  0.3141
 5873TIP3    H139034   5.490   1.667  13.920 -0.3100 -2.4406  2.7376
 5873TIP3    H239035   5.459   1.665  13.772  1.6933  2.7340  2.0103
 5874TIP3   OH239036   6.106   4.363   3.914 -0.8595 -0.6489 -0.2085
 5874TIP3    H139037   6.125   4.310   3.836  1.7099  0.2257 -0.2734
 5874TIP3    H239038   6.045   4.430   3.884 -1.5735 -1.5920 -0.9240
 5875TIP3   OH239039   0.771   4.520   6.169 -0.1542 -0.1291 -0.3824
 5875TIP3    H139040   0.860   4.554   6.163  0.5990 -1.5429  1.8475
 5875TIP3    H239041   0.727   4.577   6.232 -0.7007  0.2380 -1.0751
 5876TIP3   OH239042   1.425   1.145  13.420 -0.0347  0.2123  0.1925
 5876TIP3    H139043   1.449   1.161  13.328  0.8289  0.3075  0.4257
 5876TIP3    H239044   1.338   1.106  13.415  0.4317 -0.7668 -0.7348
 5877TIP3   OH239045   6.172   2.897   1.374  0.3404  0.1146  0.1151
 5877TIP3    H139046   6.193   2.950   1.297 -1.7374  0.8658 -0.0025
 5877TIP3    H239047   6.115   2.828   1.341 -0.2226  0.1889  0.9079
 5878TIP3   OH239048   0.594   0.717  11.673  0.4705  0.5283  0.1271
 5878TIP3    H139049   0.642   0.800  11.680  0.8378  0.3073  0.2800
 5878TIP3    H239050   0.633   0.674  11.597  2.1083 -0.6594  1.5678
 5879TIP3   OH239051   4.617   0.800  15.102  0.1490  0.4943  0.8298
 5879TIP3    H139052   4.576   0.732  15.048 -3.3489  2.1540  1.1414
 5879TIP3    H239053   4.702   0.815  15.060 -0.6105 -1.2808 -1.5992
 5880TIP3   OH239054   3.836   5.207   4.788 -0.4570 -0.5879 -0.6607
 5880TIP3    H139055   3.790   5.146   4.846 -0.2960  0.3734  0.5040
 5880TIP3    H239056   3.777   5.281   4.779  0.1412 -0.0969 -0.5604
 5881TIP3   OH239057   4.535   1.627  14.891  0.4654  0.0309  0.3126
 5881TIP3    H139058   4.595   1.670  14.953 -0.2734  0.0109  1.0636
 5881TIP3    H239059   4.563   1.535  14.891  0.4596  0.0259  0.6408
 5882TIP3   OH239060   4.654   4.666  15.567  0.3662  0.0148 -0.0862
 5882TIP3    H139061   4.640   4.745  15.516  0.5877  0.2988  0.2845
 5882TIP3    H239062   4.571   4.617  15.559  0.3607  0.1054 -0.6139
 5883TIP3   OH239063   1.119   1.802  13.976 -0.9384 -0.1336  0.2421
 5883TIP3    H139064   1.071   1.876  13.937  0.1089  0.5550  0.2220
 5883TIP3    H239065   1.054   1.759  14.032 -1.6062  0.7332  0.1633
 5884TIP3   OH239066   4.717   4.558   0.292 -0.2010  0.1631  0.2938
 5884TIP3    H139067   4.806   4.593   0.280  0.1973 -0.3875  1.4971
 5884TIP3    H239068   4.699   4.569   0.385 -0.8639 -0.9523  0.3214
 5885TIP3   OH239069   1.378   5.268  11.053 -0.4244  0.0628  0.7349
 5885TIP3    H139070   1.342   5.347  11.093 -1.5799 -1.0982  2.0943
 5885TIP3    H239071   1.472   5.285  11.047 -0.7923  2.0489 -0.2730
 5886TIP3   OH239072   1.944   4.241  14.666  0.8188  0.1529 -0.7058
 5886TIP3    H139073   2.021   4.186  14.677  0.1405 -0.6851 -0.0217
 5886TIP3    H239074   1.892   4.226  14.745 -0.3242  0.2741 -1.4114
 5887TIP3   OH239075   5.421   6.127  10.908 -0.2723  0.1236  0.0360
 5887TIP3    H139076   5.356   6.173  10.961 -0.1647 -0.0599  0.3310
 5887TIP3    H239077   5.495   6.188  10.902 -0.8756  0.7671 -1.1903
 5888TIP3   OH239078   2.001   6.454   3.098  0.1760  0.5641 -0.2672
 5888TIP3    H139079   1.988   6.452   3.003  1.1245  0.5752 -0.4121
 5888TIP3    H239080   2.022   6.363   3.121  3.3403  1.0896 -0.6282
 5889TIP3   OH239081   2.137   2.554   4.650  1.2021  0.3295  0.1605
 5889TIP3    H139082   2.219   2.517   4.684  1.0491 -0.0205  0.1476
 5889TIP3    H239083   2.088   2.578   4.728  0.5351 -1.1496  0.2301
 5890TIP3   OH239084   5.262   5.861   0.876 -0.1650 -0.2288 -0.5579
 5890TIP3    H139085   5.172   5.831   0.872 -0.5653  0.9080 -0.2673
 5890TIP3    H239086   5.296   5.847   0.787 -0.5147 -0.9846 -0.5762
 5891TIP3   OH239087   0.343   0.662   3.798 -0.0628  0.4362 -0.1731
 5891TIP3    H139088   0.282   0.673   3.726 -0.7927 -0.6846  0.2442
 5891TIP3    H239089   0.373   0.751   3.818 -1.3426  0.9842 -0.5713
 5892TIP3   OH239090   5.751   4.601   5.428 -0.0184  0.7105  0.5957
 5892TIP3    H139091   5.671   4.642   5.393 -0.5055 -0.3044  0.4873
 5892TIP3    H239092   5.739   4.508   5.411  0.2867  0.3113  2.3966
 5893TIP3   OH239093   5.138   4.990  11.610  0.4400  0.3526 -0.2649
 5893TIP3    H139094   5.136   4.926  11.539 -0.0706 -0.2333  0.2665
 5893TIP3    H239095   5.077   4.955  11.676  1.6371  0.3578  0.9048
 5894TIP3   OH239096   4.981   2.103   2.277  0.5347 -0.5476  0.3118
 5894TIP3    H139097   5.044   2.159   2.321  1.0047 -1.5362  0.9202
 5894TIP3    H239098   4.899   2.152   2.281  1.3933  1.1708 -1.2891
 5895TIP3   OH239099   1.881   1.955  14.035 -0.1925 -1.0200  0.5071
 5895TIP3    H139100   1.816   1.906  14.085 -0.7877 -1.4813 -0.6681
 5895TIP3    H239101   1.838   2.039  14.015  0.3177 -0.5418  1.3740
 5896TIP3   OH239102   6.077   5.573   4.605 -0.2081 -0.6117 -0.1289
 5896TIP3    H139103   6.102   5.565   4.513 -0.3192 -1.8420 -0.0766
 5896TIP3    H239104   6.036   5.659   4.612 -0.9805 -0.8467 -1.4310
 5897TIP3   OH239105   4.693   0.187  14.153 -0.6444  0.3059 -0.3836
 5897TIP3    H139106   4.663   0.105  14.113 -1.3890  0.6106 -0.4817
 5897TIP3    H239107   4.723   0.240  14.080 -0.5141  0.2588 -0.3636
 5898TIP3   OH239108   3.257   5.054  16.597  0.0616  0.4203  0.3834
 5898TIP3    H139109   3.168   5.047  16.563  1.0186  0.2373 -2.3335
 5898TIP3    H239110   3.301   4.976  16.566  1.2655  0.6109  1.5040
 5899TIP3   OH239111   1.660   1.174  13.273 -0.2522  0.5070  0.2166
 5899TIP3    H139112   1.592   1.233  13.239 -1.9363 -1.6161 -0.3704
 5899TIP3    H239113   1.717   1.158  13.198 -1.3171 -0.5880 -0.4017
 5900TIP3   OH239114   3.069   6.734  13.323 -0.0754 -0.1121 -0.9131
 5900TIP3    H139115   3.093   6.800  13.258 -0.1848  0.9030  0.0470
 5900TIP3    H239116   2.974   6.727  13.316 -0.2447  0.9791  0.0203
 5901TIP3   OH239117   3.130   4.187  15.513 -0.3411 -0.5183 -0.3441
 5901TIP3    H139118   3.047   4.215  15.476  0.1164 -0.4102 -1.3028
 5901TIP3    H239119   3.137   4.094  15.490 -0.2024 -0.5347 -0.2413
 5902TIP3   OH239120   0.417   0.224   0.970 -0.2503  0.5668 -0.6348
 5902TIP3    H139121   0.425   0.270   1.054 -1.0512 -1.5007  0.6514
 5902TIP3    H239122   0.494   0.166   0.967  0.3990  1.4586 -1.9133
 5903TIP3   OH239123   4.716   2.752   5.842  0.2672 -0.2254 -0.1959
 5903TIP3    H139124   4.623   2.774   5.846  0.0764 -1.1119  0.7721
 5903TIP3    H239125   4.758   2.812   5.903  0.3354  0.1838 -0.6433
 5904TIP3   OH239126   1.229   6.040  11.656  0.4830  0.6354  0.7347
 5904TIP3    H139127   1.302   6.066  11.601 -1.6356  0.6665 -2.3198
 5904TIP3    H239128   1.163   6.007  11.595 -1.9850  0.3735  3.3094
 5905TIP3   OH239129   2.622   6.072  11.486  0.4991 -0.3066  0.6483
 5905TIP3    H139130   2.685   6.048  11.418 -0.1372  1.8059 -0.7678
 5905TIP3    H239131   2.667   6.138  11.539  0.4949 -0.9408  1.4676
 5906TIP3   OH239132   4.110   5.913   2.315  0.5623 -0.2161  0.2858
 5906TIP3    H139133   4.160   5.837   2.283 -1.4397 -1.4105 -0.1729
 5906TIP3    H239134   4.052   5.877   2.382 -2.5857  0.1865 -1.9693
 5907TIP3   OH239135   1.032   3.901  17.003 -0.3226  0.0211  0.0237
 5907TIP3    H139136   1.003   3.847  16.930 -1.4181 -2.2019  1.9758
 5907TIP3    H239137   0.964   3.967  17.013  1.1638  2.0967 -2.5616
 5908TIP3   OH239138   2.438   2.872   5.158 -0.0399  0.1410 -0.0228
 5908TIP3    H139139   2.408   2.831   5.239  0.4536 -2.1548 -0.9424
 5908TIP3    H239140   2.451   2.800   5.097  0.2947  1.7389 -1.9551
 5909TIP3   OH239141   2.044   2.334  16.650 -0.1956 -0.0728 -0.5128
 5909TIP3    H139142   2.099   2.268  16.693 -0.9613 -0.6418 -0.3922
 5909TIP3    H239143   2.086   2.347  16.565  1.5482  1.3276  0.4766
 5910TIP3   OH239144   5.923   2.214  13.815 -0.8063 -0.2602 -0.3834
 5910TIP3    H139145   5.957   2.270  13.884 -0.8331 -1.0927  0.3218
 5910TIP3    H239146   5.904   2.273  13.743 -1.9078  0.7923  0.7348
 5911TIP3   OH239147   0.905   0.954   1.317 -0.1457 -0.3258  0.1227
 5911TIP3    H139148   0.812   0.976   1.323  0.3463  2.0537  0.1273
 5911TIP3    H239149   0.931   0.983   1.230  0.5302 -1.3222 -0.0216
 5912TIP3   OH239150   4.733   6.005   4.062  0.0586  0.1568 -0.6138
 5912TIP3    H139151   4.738   5.911   4.075  0.4501  0.0733 -1.3373
 5912TIP3    H239152   4.723   6.017   3.968 -0.2633  0.8301 -0.5054
 5913TIP3   OH239153   5.268   5.580  16.159 -0.2414 -0.1786 -0.9779
 5913TIP3    H139154   5.294   5.672  16.173 -0.7137 -0.3490  1.4473
 5913TIP3    H239155   5.351   5.535  16.141  0.4141  0.2902  0.6527
 5914TIP3   OH239156   3.885   6.491   2.162  0.0891 -0.0457  0.2516
 5914TIP3    H139157   3.875   6.550   2.086 -0.1900  0.0459  0.3557
 5914TIP3    H239158   3.931   6.415   2.127  0.7961  0.3914  0.1940
 5915TIP3   OH239159   3.593   2.059   5.981  0.0810  0.0182  0.0024
 5915TIP3    H139160   3.580   1.974   6.022  2.3554  0.7195  2.4056
 5915TIP3    H239161   3.584   2.122   6.052 -1.1159  1.8434 -1.6277
 5916TIP3   OH239162   5.532   4.099  16.562  0.6900  0.5679 -0.0479
 5916TIP3    H139163   5.627   4.105  16.559  0.6699  0.8284 -0.2607
 5916TIP3    H239164   5.502   4.149  16.486  0.3783  0.6350  0.1124
 5917TIP3   OH239165   2.016   3.688   1.671  0.5693 -0.5498  0.7999
 5917TIP3    H139166   2.032   3.776   1.704  0.9049 -1.6904  4.0438
 5917TIP3    H239167   2.008   3.634   1.750  0.0738 -3.3893 -1.0501
 5918TIP3   OH239168   6.688   3.527   2.888  0.2588 -0.0420 -0.8342
 5918TIP3    H139169   6.645   3.583   2.953 -1.1230  0.7648 -2.3678
 5918TIP3    H239170   6.735   3.587   2.831  1.4672 -0.7393 -0.6161
 5919TIP3   OH239171   6.283   3.086   3.943 -0.0509  0.0136  0.0337
 5919TIP3    H139172   6.198   3.121   3.918 -0.6503 -0.6833  1.0049
 5919TIP3    H239173   6.347   3.147   3.906 -0.9790  0.7238 -0.4246
 5920TIP3   OH239174   2.708   3.608  12.765  0.2907  0.4310 -0.5861
 5920TIP3    H139175   2.629   3.623  12.714  0.1424 -0.3256 -0.5888
 5920TIP3    H239176   2.693   3.654  12.848 -1.4444 -2.1261  0.6459
 5921TIP3   OH239177   4.025   6.576   4.502 -0.3398  0.0937  0.1779
 5921TIP3    H139178   4.120   6.564   4.496 -0.1166 -0.1404  2.9668
 5921TIP3    H239179   3.998   6.517   4.571 -2.3079  1.2639  0.4632
 5922TIP3   OH239180   2.136   1.751  16.421 -0.3352 -0.3491  0.5418
 5922TIP3    H139181   2.172   1.727  16.336  1.0183  0.9927  0.6779
 5922TIP3    H239182   2.131   1.847  16.419 -2.1252 -0.3795  1.2851
 5923TIP3   OH239183   0.200   1.908   2.021  0.1021 -0.0763 -0.3519
 5923TIP3    H139184   0.206   1.841   1.953  0.3407 -1.2136  0.7555
 5923TIP3    H239185   0.119   1.955   2.002 -0.6584 -1.4171 -0.4985
 5924TIP3   OH239186   3.197   5.561  14.691  0.2785 -0.3980 -0.1768
 5924TIP3    H139187   3.242   5.488  14.734 -1.3179 -0.9164  0.7100
 5924TIP3    H239188   3.142   5.598  14.760  0.6476  1.3116 -0.7650
 5925TIP3   OH239189   1.112   6.756  10.905  0.1690 -0.5988 -0.2135
 5925TIP3    H139190   1.035   6.804  10.875 -0.7070 -0.4081  2.1608
 5925TIP3    H239191   1.137   6.702  10.830 -0.4077  1.5520 -2.0747
 5926TIP3   OH239192   1.977   2.838  13.557 -0.1554  0.4974  0.4710
 5926TIP3    H139193   1.990   2.865  13.467  0.0271 -1.5054 -0.1502
 5926TIP3    H239194   1.884   2.817  13.563  0.0070 -0.2479  0.4747
 5927TIP3   OH239195   1.084   5.091  16.241 -0.8047  0.1217 -0.1396
 5927TIP3    H139196   1.116   5.134  16.162  1.3900 -1.3486 -0.1364
 5927TIP3    H239197   1.141   5.015  16.252 -0.9511  0.3228  2.9093
 5928TIP3   OH239198   0.396   4.073   3.042  0.1877  0.0780 -0.5732
 5928TIP3    H139199   0.322   4.089   3.099  0.7369  0.7739 -0.0364
 5928TIP3    H239200   0.404   4.153   2.990  0.4996 -0.0248 -0.6899
 5929TIP3   OH239201   5.381   4.432   5.691 -0.0277 -0.0001 -0.2728
 5929TIP3    H139202   5.388   4.523   5.721 -4.1199  0.2600  0.4253
 5929TIP3    H239203   5.339   4.438   5.605  2.7339 -1.2287 -1.8601
 5930TIP3   OH239204   5.007   4.321   0.024 -0.0455 -0.2140  0.2797
 5930TIP3    H139205   5.054   4.329  -0.058  0.7494 -1.0164  0.6439
 5930TIP3    H239206   4.919   4.354   0.005  0.0918 -0.5281 -0.9199
 5931TIP3   OH239207   0.916   3.877  16.275  0.0475 -0.2031  0.1246
 5931TIP3    H139208   0.841   3.924  16.238  1.2954  2.1070  0.3010
 5931TIP3    H239209   0.901   3.880  16.369  0.0786 -0.2239  0.1300
 5932TIP3   OH239210   2.444   2.659   2.247  0.2033  0.1221  0.1448
 5932TIP3    H139211   2.428   2.584   2.191  0.9669 -0.8175  1.1442
 5932TIP3    H239212   2.501   2.626   2.317  1.7789  1.9417 -0.1599
 5933TIP3   OH239213   1.007   0.553  12.512  0.0369 -0.1225 -0.3731
 5933TIP3    H139214   1.093   0.577  12.546 -0.4470 -0.4058  1.1722
 5933TIP3    H239215   1.024   0.490  12.443  1.1105  0.9016 -1.0810
 5934TIP3   OH239216   3.492   6.023   4.944  0.3789 -0.4180  0.3256
 5934TIP3    H139217   3.564   5.962   4.929  1.8380  1.0259  1.2006
 5934TIP3    H239218   3.493   6.080   4.867  0.4270 -0.1563  0.5190
 5935TIP3   OH239219   1.258   4.606   2.250 -0.3193 -0.2481 -0.6553
 5935TIP3    H139220   1.241   4.686   2.199 -2.8220  0.9209  1.7772
 5935TIP3    H239221   1.212   4.537   2.201 -0.6258  0.3686 -1.2635
 5936TIP3   OH239222   2.755   5.865   1.441  0.6827 -0.2078  0.1882
 5936TIP3    H139223   2.807   5.942   1.419  0.4985 -0.6767 -2.1813
 5936TIP3    H239224   2.820   5.796   1.456  0.7981 -0.0521  0.4148
 5937TIP3   OH239225   2.531   0.186  14.420 -0.1308  0.3421  0.4256
 5937TIP3    H139226   2.529   0.206  14.514 -0.3312 -0.2408  0.5511
 5937TIP3    H239227   2.580   0.105  14.414  0.2508  0.6000 -0.0262
 5938TIP3   OH239228   4.814   5.007   6.033 -0.0848  0.1186  0.6893
 5938TIP3    H139229   4.721   5.006   6.056 -0.2325 -1.4839  0.1568
 5938TIP3    H239230   4.859   5.003   6.117 -0.5374 -0.9422  0.8929
 5939TIP3   OH239231   3.229   3.932  14.996 -0.6870 -0.2768  0.9891
 5939TIP3    H139232   3.169   3.863  14.968  0.0488 -0.4269 -0.3445
 5939TIP3    H239233   3.236   3.989  14.920 -0.7535  0.9015  1.8456
 5940TIP3   OH239234   1.164   0.984  13.394 -0.0549 -0.1012  0.1711
 5940TIP3    H139235   1.230   0.955  13.331 -0.6448  0.9169 -0.9381
 5940TIP3    H239236   1.100   0.913  13.396  0.3124 -0.4390  0.1571
 5941TIP3   OH239237   1.616   0.791   5.137  0.0462 -0.5415  0.4999
 5941TIP3    H139238   1.571   0.838   5.067  0.9487 -1.1957 -0.5370
 5941TIP3    H239239   1.590   0.700   5.126 -0.6398 -0.5206  1.6899
 5942TIP3   OH239240   0.377   4.687  12.653  0.0230  0.2370  0.1612
 5942TIP3    H139241   0.349   4.732  12.733  0.2770  0.7652 -0.0490
 5942TIP3    H239242   0.338   4.736  12.582 -1.6718 -1.2568  0.0012
 5943TIP3   OH239243   0.723   1.560  12.132  0.0414  0.1926 -0.4722
 5943TIP3    H139244   0.706   1.502  12.058 -0.9526  1.1640 -1.0384
 5943TIP3    H239245   0.700   1.507  12.209 -0.2918 -0.3553 -0.9417
 5944TIP3   OH239246   1.632   4.650  13.959  0.8075 -0.0770 -0.5446
 5944TIP3    H139247   1.611   4.569  13.913 -1.4579  0.8576 -1.3170
 5944TIP3    H239248   1.598   4.719  13.902 -0.6248  1.2215  1.7378
 5945TIP3   OH239249   2.069   5.307   1.329  0.6051 -0.3003 -0.5938
 5945TIP3    H139250   2.116   5.308   1.245 -0.0605 -1.5239 -1.0052
 5945TIP3    H239251   1.982   5.275   1.307 -0.5434  2.1360  0.1254
 5946TIP3   OH239252   0.326   4.068  12.552  0.1875 -0.2778 -0.1795
 5946TIP3    H139253   0.262   4.136  12.571  1.0934  0.6969 -0.5502
 5946TIP3    H239254   0.306   4.040  12.463  0.6049  0.3968 -0.4862
 5947TIP3   OH239255   6.161   5.036  11.638 -0.5494 -0.5371 -0.0787
 5947TIP3    H139256   6.256   5.027  11.639 -0.4580  0.3634 -0.1621
 5947TIP3    H239257   6.138   5.038  11.545 -0.4528  1.1241 -0.0831
 5948TIP3   OH239258   6.121   1.155   2.514  0.2152  0.0191  0.3715
 5948TIP3    H139259   6.190   1.144   2.579  0.4722  0.6543  0.2134
 5948TIP3    H239260   6.152   1.226   2.458 -0.4543  0.1412  0.1468
 5949TIP3   OH239261   6.063   4.318  14.915 -0.1485 -0.3476 -0.4644
 5949TIP3    H139262   5.968   4.304  14.919 -0.0844 -0.7048 -0.1546
 5949TIP3    H239263   6.100   4.235  14.943  0.2533  0.0601  0.2144
 5950TIP3   OH239264   1.464   6.397  14.605 -0.0819 -0.2901 -0.0197
 5950TIP3    H139265   1.417   6.314  14.596  0.5655 -0.7158  0.4183
 5950TIP3    H239266   1.543   6.374  14.654  0.4341  0.4594 -0.4795
 5951TIP3   OH239267   1.047   4.137   0.033 -1.0307  0.4064 -0.0489
 5951TIP3    H139268   1.098   4.146   0.114 -0.0451 -1.1675 -0.4320
 5951TIP3    H239269   1.103   4.084  -0.024 -2.3279  0.2359 -1.2207
 5952TIP3   OH239270   6.608   2.517  17.231 -0.1585 -0.2270  0.3695
 5952TIP3    H139271   6.514   2.506  17.247 -0.4214  1.2452  0.0465
 5952TIP3    H239272   6.641   2.558  17.310 -0.1415  0.8217 -0.1586
 5953TIP3   OH239273   4.176   3.244  16.320 -0.1193  0.4143  0.1908
 5953TIP3    H139274   4.168   3.191  16.240 -1.7000  1.0655 -0.1112
 5953TIP3    H239275   4.210   3.182  16.385  1.1418 -0.1469 -0.9374
 5954TIP3   OH239276   0.385   5.102  17.105  0.1144 -0.1211  0.8292
 5954TIP3    H139277   0.350   5.052  17.032  1.0273  3.2085 -2.1522
 5954TIP3    H239278   0.315   5.163  17.129  1.0621  1.3075  0.1214
 5955TIP3   OH239279   2.816   5.068   3.386 -0.1630 -0.6309 -0.1565
 5955TIP3    H139280   2.744   5.092   3.443 -1.0866  1.2031 -1.9874
 5955TIP3    H239281   2.894   5.103   3.429 -0.6521 -0.4867  0.6269
 5956TIP3   OH239282   3.662   3.578   2.597 -0.1177 -0.5459 -0.5653
 5956TIP3    H139283   3.583   3.567   2.649  0.2370 -1.0009 -0.1105
 5956TIP3    H239284   3.650   3.520   2.522  0.2089 -1.3758  0.0127
 5957TIP3   OH239285   6.090   4.838   2.138 -0.3542  0.2712 -0.0873
 5957TIP3    H139286   6.099   4.842   2.043  2.8400 -2.1399 -0.0670
 5957TIP3    H239287   6.041   4.757   2.153 -1.1741  0.8402  0.3360
 5958TIP3   OH239288   2.936   0.857  17.233  0.2661  0.3223  0.6405
 5958TIP3    H139289   2.875   0.885  17.164  0.0299  1.0916  1.1344
 5958TIP3    H239290   2.983   0.784  17.196  1.1759  1.6259 -0.8947
 5959TIP3   OH239291   2.110   0.940  16.355  0.3673 -0.3647 -0.1015
 5959TIP3    H139292   2.017   0.926  16.340  0.0901 -1.6176  2.3156
 5959TIP3    H239293   2.150   0.854  16.339  1.4360  0.5393 -2.7991
 5960TIP3   OH239294   0.752   0.209  16.901  0.0301 -0.5172 -0.1041
 5960TIP3    H139295   0.848   0.210  16.899  0.0656 -1.5094  0.4273
 5960TIP3    H239296   0.728   0.272  16.969  0.3267 -0.6127  0.0910
 5961TIP3   OH239297   3.043   4.611  12.161 -0.5432 -0.0195 -0.3931
 5961TIP3    H139298   3.100   4.534  12.152  0.4241  0.4892  0.9293
 5961TIP3    H239299   3.026   4.617  12.255 -0.3264  1.5632 -0.4242
 5962TIP3   OH239300   3.256   1.312  11.470  0.3275  0.2598  0.0407
 5962TIP3    H139301   3.267   1.404  11.495 -1.4654  0.6923 -0.6065
 5962TIP3    H239302   3.198   1.277  11.537  1.3358 -0.5434  0.5199
 5963TIP3   OH239303   0.904   1.368   3.858 -0.1041  0.1869 -0.1040
 5963TIP3    H139304   0.929   1.384   3.949  1.1546  1.4474 -0.6273
 5963TIP3    H239305   0.831   1.307   3.863 -0.5811  0.8465  1.7878
 5964TIP3   OH239306   5.115   3.205   4.467  0.3670  0.0188  0.6888
 5964TIP3    H139307   5.192   3.195   4.523  2.0887 -1.5321 -1.7875
 5964TIP3    H239308   5.041   3.194   4.527  2.0599 -0.2875  2.8501
 5965TIP3   OH239309   2.864   2.251   4.571 -0.0609  0.2602 -0.0122
 5965TIP3    H139310   2.858   2.168   4.618  1.3666  0.4433  0.5530
 5965TIP3    H239311   2.813   2.238   4.492  0.6118 -1.3661 -0.2084
 5966TIP3   OH239312   6.746   1.475   5.854 -0.0363  0.4662  0.6172
 5966TIP3    H139313   6.739   1.414   5.780 -1.7441  1.9517 -0.5319
 5966TIP3    H239314   6.766   1.419   5.929 -0.7566 -1.4122 -0.5099
 5967TIP3   OH239315   5.031   6.759   3.628 -0.5739  0.2786  0.5010
 5967TIP3    H139316   5.018   6.825   3.696  2.6517  2.2292 -0.5675
 5967TIP3    H239317   4.990   6.795   3.550  0.9748  0.9672 -0.0235
 5968TIP3   OH239318   0.840   2.378  12.054 -0.2174 -0.0193 -0.2124
 5968TIP3    H139319   0.770   2.378  11.988 -0.2189  0.8069 -0.2272
 5968TIP3    H239320   0.882   2.463  12.043  0.9814 -0.6201 -0.3825
 5969TIP3   OH239321   5.316   4.986   5.185 -0.2181 -0.3036 -0.7853
 5969TIP3    H139322   5.336   5.011   5.095  1.8341  1.8329  0.1499
 5969TIP3    H239323   5.401   4.964   5.224 -0.9255 -0.2514  0.8861
 5970TIP3   OH239324   2.532   3.383   4.167  0.0383 -0.0134 -0.2116
 5970TIP3    H139325   2.534   3.477   4.186 -0.4599 -0.4884  2.6955
 5970TIP3    H239326   2.556   3.342   4.250 -0.5135 -2.4916 -1.1940
 5971TIP3   OH239327   3.214   1.108  13.889 -0.4332  0.3611  0.6880
 5971TIP3    H139328   3.264   1.186  13.865 -1.7010  0.9261 -0.1462
 5971TIP3    H239329   3.205   1.114  13.985 -0.3107  1.1011  0.6552
 5972TIP3   OH239330   2.129   5.874   0.734 -0.1803  0.0788  0.1604
 5972TIP3    H139331   2.137   5.887   0.829  2.1589  1.4026 -0.1534
 5972TIP3    H239332   2.213   5.834   0.709 -0.1889  1.0726 -1.5421
 5973TIP3   OH239333   5.192   3.820   1.224  0.1725 -0.1206 -0.0279
 5973TIP3    H139334   5.240   3.899   1.200  1.0931 -0.5473  0.3695
 5973TIP3    H239335   5.198   3.764   1.147  0.1609 -0.1001 -0.0437
 5974TIP3   OH239336   0.043   6.355  12.578  0.4101  0.3404 -0.3619
 5974TIP3    H139337  -0.018   6.418  12.617 -0.0338 -0.7054  0.6849
 5974TIP3    H239338  -0.006   6.315  12.506 -1.5998 -2.9906  2.5221
 5975TIP3   OH239339   2.164   1.022   2.956 -0.1170 -0.0583  0.3093
 5975TIP3    H139340   2.155   1.093   3.019 -1.7464 -0.4426  0.5525
 5975TIP3    H239341   2.104   0.954   2.988  1.3682 -1.5517  0.0790
 5976TIP3   OH239342   4.278   2.232   1.194  0.6637  0.1354 -0.1797
 5976TIP3    H139343   4.226   2.180   1.133  0.7308  0.7972 -0.8299
 5976TIP3    H239344   4.362   2.245   1.149  1.3968 -0.8952  0.8414
 5977TIP3   OH239345   0.219   5.949  14.358 -0.2305  0.1773 -0.4079
 5977TIP3    H139346   0.310   5.949  14.388 -0.2551 -0.7817 -0.3029
 5977TIP3    H239347   0.222   5.992  14.273  0.9283 -2.8912 -2.0641
 5978TIP3   OH239348   4.080   1.376   2.903  0.4876  0.0098  0.5295
 5978TIP3    H139349   4.156   1.404   2.955  0.3456  0.7222  0.3597
 5978TIP3    H239350   4.053   1.454   2.856  1.5404 -0.9407 -1.8326
 5979TIP3   OH239351   5.300   1.896  12.661  0.1602  0.2171  0.0146
 5979TIP3    H139352   5.375   1.950  12.685 -0.4652  0.9165  0.4154
 5979TIP3    H239353   5.238   1.957  12.620 -0.3725 -0.2731  0.0794
 5980TIP3   OH239354   0.583   2.489  12.606  0.7004  0.0770  0.4946
 5980TIP3    H139355   0.589   2.493  12.511 -0.0682 -0.6859  0.4011
 5980TIP3    H239356   0.648   2.552  12.637  0.4448  0.8666 -0.5367
 5981TIP3   OH239357   1.815   0.826   2.633 -0.2448  0.0014  0.0190
 5981TIP3    H139358   1.794   0.916   2.659 -0.0974 -0.4512  1.8839
 5981TIP3    H239359   1.866   0.835   2.553 -0.8635  1.5318 -0.2374
 5982TIP3   OH239360   6.104   2.764   2.319 -0.4724 -0.1804 -0.3759
 5982TIP3    H139361   6.099   2.699   2.249  1.8755 -1.7339  0.7759
 5982TIP3    H239362   6.012   2.782   2.342 -1.2645 -3.4380 -0.4611
 5983TIP3   OH239363   2.086   5.925   4.943 -0.1104 -0.7542 -0.5533
 5983TIP3    H139364   2.136   5.861   4.893  1.0574  0.0688 -0.4726
 5983TIP3    H239365   2.150   5.991   4.969 -1.2064  0.2499 -0.3013
 5984TIP3   OH239366   6.651   4.399   4.619  0.0625  0.6420 -0.0811
 5984TIP3    H139367   6.670   4.402   4.712  1.4621 -0.7217 -0.2834
 5984TIP3    H239368   6.737   4.408   4.577 -0.2323 -1.1338 -1.1606
 5985TIP3   OH239369   6.621   0.440  14.021 -0.6338 -0.0693 -0.2367
 5985TIP3    H139370   6.712   0.450  14.047 -1.3498  1.4564  1.9300
 5985TIP3    H239371   6.604   0.346  14.030 -0.1757  0.0261  2.8890
 5986TIP3   OH239372   2.573   6.546   3.896  0.2360 -0.4771  0.0924
 5986TIP3    H139373   2.508   6.514   3.833  1.0889 -5.2347  1.2691
 5986TIP3    H239374   2.524   6.557   3.977  0.0867  0.6237 -0.1339
 5987TIP3   OH239375   0.117   6.427  11.319 -0.1099 -0.2128 -0.3590
 5987TIP3    H139376   0.091   6.509  11.277  1.9309  0.2100 -0.9189
 5987TIP3    H239377   0.205   6.444  11.353 -0.4330 -1.5671  1.2889
 5988TIP3   OH239378   5.460   5.675  12.274  0.2362 -0.5540 -0.2803
 5988TIP3    H139379   5.451   5.698  12.181  0.8012  0.2215 -0.1542
 5988TIP3    H239380   5.370   5.661  12.304  0.0193 -0.4137 -0.8488
 5989TIP3   OH239381   3.456   1.192  12.056  0.1442 -0.0367  0.5652
 5989TIP3    H139382   3.398   1.170  11.984  0.4035  0.0880  0.3171
 5989TIP3    H239383   3.467   1.287  12.051  1.1854 -0.1721 -0.0229
 5990TIP3   OH239384   4.244   2.331   4.628  0.2310  0.1891  0.1242
 5990TIP3    H139385   4.309   2.264   4.651 -0.2170  0.4649  2.5219
 5990TIP3    H239386   4.243   2.389   4.704 -1.7620  1.0345 -0.4936
 5991TIP3   OH239387   6.128   2.081   0.774  0.3826 -0.0394  0.0038
 5991TIP3    H139388   6.122   2.102   0.681 -0.5415  0.7096  0.2057
 5991TIP3    H239389   6.044   2.040   0.795  0.6474 -0.3488  0.4638
 5992TIP3   OH239390   2.205   0.217  15.594  0.1936 -0.0077  0.3391
 5992TIP3    H139391   2.266   0.240  15.524  0.0576  0.5512  0.4021
 5992TIP3    H239392   2.253   0.234  15.675  0.9037 -2.1004  0.4094
 5993TIP3   OH239393   6.215   2.006  13.768  0.1888  0.1262  0.0635
 5993TIP3    H139394   6.135   1.984  13.814  0.3331  1.2858  0.9369
 5993TIP3    H239395   6.278   2.027  13.838  0.5437  1.5001 -0.6275
 5994TIP3   OH239396   1.845   4.968  12.046  0.8724  0.0067 -0.6632
 5994TIP3    H139397   1.772   4.991  11.989 -0.3935 -0.4841  0.6884
 5994TIP3    H239398   1.807   4.909  12.112  2.3255  0.2957  0.4978
 5995TIP3   OH239399   4.304   1.725   5.264  0.0477 -0.0383  0.7105
 5995TIP3    H139400   4.296   1.632   5.243 -0.7467  0.1135  0.3042
 5995TIP3    H239401   4.368   1.728   5.335 -1.1791 -1.0732  1.9266
 5996TIP3   OH239402   2.536   6.454  14.855  0.3943  0.1236 -0.2572
 5996TIP3    H139403   2.477   6.524  14.881  1.7818  0.6709  1.7148
 5996TIP3    H239404   2.604   6.497  14.803 -0.5570 -0.4007 -2.0087
 5997TIP3   OH239405   3.290   0.456  13.587 -0.6565 -0.5117 -0.0307
 5997TIP3    H139406   3.385   0.465  13.581 -0.6093 -0.6309  0.5103
 5997TIP3    H239407   3.276   0.363  13.604 -0.9916 -0.9809 -2.5390
 5998TIP3   OH239408   1.456   1.031  14.680  0.2712  0.2369  0.1068
 5998TIP3    H139409   1.497   1.109  14.717  1.2963  0.6380 -1.7389
 5998TIP3    H239410   1.385   1.065  14.626  1.1844  0.0036 -1.2967
 5999TIP3   OH239411   1.156   1.967   0.171 -0.5186 -0.3691  0.8450
 5999TIP3    H139412   1.114   1.903   0.229  0.9363 -0.1140  2.2623
 5999TIP3    H239413   1.123   2.052   0.200 -1.6989 -0.3876 -0.3876
 6000TIP3   OH239414   3.075   3.068   0.385  0.3128 -0.2104 -0.3101
 6000TIP3    H139415   3.116   3.141   0.337  0.3219  0.0404  0.0740
 6000TIP3    H239416   3.134   3.053   0.459  0.6173 -0.9989 -0.7081
 6001TIP3   OH239417   0.380   6.598  13.477 -0.8512  0.1628 -0.4559
 6001TIP3    H139418   0.323   6.532  13.438  0.1569  0.7032 -3.0792
 6001TIP3    H239419   0.322   6.671  13.497 -1.6849 -0.8114  0.8271
 6002TIP3   OH239420   3.997   2.089  12.229 -0.2813 -0.4808 -0.7292
 6002TIP3    H139421   3.987   1.999  12.197  0.6273  0.1430 -2.9462
 6002TIP3    H239422   3.909   2.126  12.224 -0.2977 -0.6326 -1.8891
 6003TIP3   OH239423   3.271   1.703   4.960  0.0669 -0.7926  0.2241
 6003TIP3    H139424   3.342   1.656   5.005  0.5267 -1.5971 -1.2741
 6003TIP3    H239425   3.276   1.792   4.995  2.5941 -0.5168 -0.6263
 6004TIP3   OH239426   4.652   0.515   0.897 -0.0942 -0.6201  0.0612
 6004TIP3    H139427   4.609   0.587   0.851 -2.5408 -0.9080  1.6972
 6004TIP3    H239428   4.681   0.553   0.980  1.2722 -0.8790 -0.2646
 6005TIP3   OH239429   6.547   2.700   3.103 -0.3593  0.3178  0.3480
 6005TIP3    H139430   6.580   2.742   3.024  1.0425  0.2974  0.8878
 6005TIP3    H239431   6.475   2.645   3.073 -1.2948  1.9749 -0.5829
 6006TIP3   OH239432   1.048   3.048   1.663  0.4518 -0.2035 -0.1421
 6006TIP3    H139433   1.057   3.141   1.642 -0.3510 -0.1116 -0.1312
 6006TIP3    H239434   1.068   3.003   1.581  0.7678 -0.0187 -0.1679
 6007TIP3   OH239435   6.234   5.124  12.300  0.1836 -0.2563 -0.1297
 6007TIP3    H139436   6.327   5.146  12.300  0.1895 -0.2429 -1.0169
 6007TIP3    H239437   6.189   5.208  12.307  0.2286 -0.2985  0.8404
 6008TIP3   OH239438   4.271   4.504  14.177 -0.2009  0.4557  0.2626
 6008TIP3    H139439   4.254   4.599  14.177 -0.4801  0.5817  4.2436
 6008TIP3    H239440   4.362   4.496  14.205  0.0406 -0.4750 -0.7480
 6009TIP3   OH239441   1.555   0.871   3.510  0.4038 -0.8258 -0.2950
 6009TIP3    H139442   1.554   0.831   3.597  1.0042 -0.1926  0.0143
 6009TIP3    H239443   1.543   0.797   3.449  0.1295 -1.2902  0.3185
 6010TIP3   OH239444   1.578   5.342   5.955 -0.3114  0.1679 -0.2063
 6010TIP3    H139445   1.490   5.374   5.938 -0.2799  0.0710 -0.5625
 6010TIP3    H239446   1.589   5.350   6.050 -0.6754  0.2468 -0.1702
 6011TIP3   OH239447   4.090   0.073   2.971 -0.3984 -0.1135 -0.1034
 6011TIP3    H139448   4.124   0.022   2.898 -2.1486 -0.6010 -0.6333
 6011TIP3    H239449   4.059   0.008   3.034 -1.2192  0.2821 -0.0853
 6012TIP3   OH239450   0.899   5.498   1.304 -0.1053  0.8562  0.4631
 6012TIP3    H139451   0.850   5.457   1.233  1.0094  0.2059  0.0518
 6012TIP3    H239452   0.832   5.530   1.364 -1.0225 -0.0612 -0.0559
 6013TIP3   OH239453   2.225   6.708   4.263  0.5568  0.1637 -0.0084
 6013TIP3    H139454   2.153   6.759   4.301  1.6072  0.3553  1.8721
 6013TIP3    H239455   2.286   6.697   4.336  2.2831 -0.2671 -1.4663
 6014TIP3   OH239456   0.296   0.561   6.165 -0.4569 -0.3491 -0.4325
 6014TIP3    H139457   0.337   0.479   6.194 -0.3833  0.1783  1.0579
 6014TIP3    H239458   0.368   0.624   6.159 -0.6817 -0.0807 -0.3465
 6015TIP3   OH239459   2.450   0.542   6.011  0.2708 -0.0080 -0.5507
 6015TIP3    H139460   2.500   0.508   6.086  0.5891  0.4289 -0.5594
 6015TIP3    H239461   2.403   0.617   6.045  0.3669  0.1547 -0.7703
 6016TIP3   OH239462   6.288   0.470   2.695  0.1365  0.0017  0.3325
 6016TIP3    H139463   6.332   0.388   2.670  0.5133  0.8372 -1.9928
 6016TIP3    H239464   6.342   0.505   2.766  1.1069 -0.7992  0.0195
 6017TIP3   OH239465   4.922   5.486   0.615  0.5253  0.1618 -0.0112
 6017TIP3    H139466   4.994   5.485   0.679  0.6279  0.6611 -0.1191
 6017TIP3    H239467   4.844   5.467   0.667  0.8250 -1.1757 -0.0123
 6018TIP3   OH239468   6.344   5.449  17.123  0.3671 -0.4644  0.1681
 6018TIP3    H139469   6.327   5.520  17.184 -1.1954  0.2036 -0.9742
 6018TIP3    H239470   6.412   5.396  17.165 -0.5904  0.0134  2.4120
 6019TIP3   OH239471   1.648   1.370   5.212 -0.0223  0.3958  0.5225
 6019TIP3    H139472   1.672   1.340   5.299 -0.6864  0.0929  0.6138
 6019TIP3    H239473   1.580   1.435   5.227 -2.1972 -1.6447  0.1828
 6020TIP3   OH239474   0.286   6.446  12.198 -0.0465 -0.4434 -0.0232
 6020TIP3    H139475   0.354   6.467  12.262 -0.6778  1.8425  0.0078
 6020TIP3    H239476   0.297   6.512  12.129 -0.6539 -1.6117 -1.2924
 6021TIP3   OH239477   2.158   6.221   2.218 -0.0529 -0.4437  0.4533
 6021TIP3    H139478   2.064   6.202   2.225  0.0418 -0.6861  1.1292
 6021TIP3    H239479   2.175   6.282   2.290 -0.3280  2.2044 -1.5835
 6022TIP3   OH239480   3.712   0.428   4.511 -0.4761  0.0845  0.2295
 6022TIP3    H139481   3.739   0.403   4.423  0.7480  0.5806  0.4455
 6022TIP3    H239482   3.793   0.435   4.561 -1.0180  1.2839  1.0049
 6023TIP3   OH239483   0.340   3.304  15.894  0.0223 -0.4920 -0.1452
 6023TIP3    H139484   0.348   3.399  15.881  1.5856 -0.6358 -0.4706
 6023TIP3    H239485   0.271   3.277  15.834  1.0875  0.1477 -1.7311
 6024TIP3   OH239486   3.852   1.120   2.584  0.0702  0.5458 -0.1370
 6024TIP3    H139487   3.837   1.168   2.665 -1.4585  1.7162 -1.0574
 6024TIP3    H239488   3.841   1.186   2.515 -2.6761 -1.1658 -1.5055
 6025TIP3   OH239489   3.684   1.980   4.522  0.2873  0.4878  0.1197
 6025TIP3    H139490   3.717   2.011   4.437 -0.6807  1.4907  0.0957
 6025TIP3    H239491   3.762   1.976   4.577  0.8379  0.3784 -0.6473
 6026TIP3   OH239492   6.580   6.122   3.329 -0.4979  0.0802 -0.2208
 6026TIP3    H139493   6.604   6.033   3.356 -0.5719 -1.1789 -3.8594
 6026TIP3    H239494   6.664   6.165   3.313 -0.4881  0.3855  0.5872
 6027TIP3   OH239495   4.540   5.716   1.181  0.3270  0.2607  0.1758
 6027TIP3    H139496   4.549   5.774   1.105 -0.9364  0.8947  0.4923
 6027TIP3    H239497   4.571   5.768   1.255 -0.3132  0.3579  0.3821
 6028TIP3   OH239498   1.694   3.702  15.031 -0.3925 -0.4230 -0.3237
 6028TIP3    H139499   1.658   3.620  15.066 -0.8894 -0.4962 -0.9904
 6028TIP3    H239500   1.734   3.677  14.948 -4.3589  0.6265 -2.8308
 6029TIP3   OH239501   4.750   3.424   2.341  0.6410 -0.3786  0.3008
 6029TIP3    H139502   4.678   3.433   2.403  0.9441 -2.2951  1.0019
 6029TIP3    H239503   4.723   3.352   2.284  1.5925 -0.4710 -0.0424
 6030TIP3   OH239504   2.089   5.546   3.299 -0.1954  0.5993  0.2277
 6030TIP3    H139505   2.161   5.591   3.344  0.8577 -1.3602  0.6130
 6030TIP3    H239506   2.072   5.601   3.222  2.5927  0.5182 -0.5631
 6031TIP3   OH239507   0.370   3.957   3.978 -0.6744  0.1788 -0.3857
 6031TIP3    H139508   0.450   3.914   3.949  0.2172  2.8553 -2.3205
 6031TIP3    H239509   0.399   4.015   4.049 -0.7873  1.3874 -1.3017
 6032TIP3   OH239510   1.366   3.889  15.125 -0.0370  0.5267  0.3769
 6032TIP3    H139511   1.401   3.905  15.213 -0.6368  0.0398  0.7091
 6032TIP3    H239512   1.442   3.894  15.068  0.3092  1.1949  0.8806
 6033TIP3   OH239513   5.243   2.083   0.762  0.0166 -0.3676  0.3426
 6033TIP3    H139514   5.270   2.085   0.854 -0.2345  1.9307  0.4329
 6033TIP3    H239515   5.298   2.149   0.720  0.0525 -1.3154 -1.1521
 6034TIP3   OH239516   5.425   1.822   2.461  0.2845  0.2500 -0.7578
 6034TIP3    H139517   5.494   1.773   2.506  0.9400 -0.4791 -2.4577
 6034TIP3    H239518   5.441   1.914   2.485  0.4403 -0.1188  0.6459
 6035TIP3   OH239519   3.607   0.016  14.263  0.2312  0.0611 -0.4279
 6035TIP3    H139520   3.647   0.022  14.176 -1.9649 -3.7816 -1.9522
 6035TIP3    H239521   3.673  -0.026  14.317  1.1912  1.4304 -0.4770
 6036TIP3   OH239522   5.708   3.695  11.813  0.6787  0.0881  0.0328
 6036TIP3    H139523   5.754   3.611  11.815 -2.4818 -1.7915  0.3429
 6036TIP3    H239524   5.745   3.745  11.886  1.6574 -1.5926  0.7472
 6037TIP3   OH239525   5.091   6.306   2.600  0.0924 -0.2133 -0.5121
 6037TIP3    H139526   5.156   6.298   2.530  2.0926 -0.0081  1.2355
 6037TIP3    H239527   5.097   6.222   2.647 -2.1709 -0.8836 -1.2847
 6038TIP3   OH239528   4.917   2.611   2.103 -0.0706 -0.1845  0.3133
 6038TIP3    H139529   4.952   2.647   2.184  0.2433  0.1929  0.0139
 6038TIP3    H239530   4.950   2.669   2.035  0.3098 -0.9427 -0.1638
 6039TIP3   OH239531   4.469   3.077   1.028  0.4576  0.2239  0.0120
 6039TIP3    H139532   4.411   3.122   0.966  0.6555  1.0637  0.4279
 6039TIP3    H239533   4.502   3.147   1.085  2.0795 -0.1768 -0.3716
 6040TIP3   OH239534   4.310   4.154  13.850  0.5028  0.1611 -0.1724
 6040TIP3    H139535   4.376   4.191  13.909 -0.5209  1.4873  0.1825
 6040TIP3    H239536   4.321   4.202  13.768  0.4636 -0.1455 -0.3617
 6041TIP3   OH239537   3.423   2.593   3.373  0.3420 -0.2509  0.8819
 6041TIP3    H139538   3.346   2.601   3.318  0.4695  0.1043  0.7503
 6041TIP3    H239539   3.436   2.499   3.383 -1.3957 -0.3791  2.6961
 6042TIP3   OH239540   0.587   0.148  13.408  0.6391  0.3174  0.3759
 6042TIP3    H139541   0.632   0.066  13.426  0.5719 -0.4299 -2.3518
 6042TIP3    H239542   0.494   0.125  13.407  0.7046 -0.3615 -3.1247
 6043TIP3   OH239543   3.161   2.410  13.195  0.4708 -0.0279  0.5446
 6043TIP3    H139544   3.192   2.495  13.166 -1.3657  0.9325  1.2459
 6043TIP3    H239545   3.165   2.414  13.291 -1.1808 -0.0558  0.6541
 6044TIP3   OH239546   1.975   4.025   3.837  0.2170 -0.4489  0.5923
 6044TIP3    H139547   2.033   4.099   3.816  0.6835 -0.9755 -0.0330
 6044TIP3    H239548   1.923   4.055   3.911 -0.5645  1.0324 -0.4998
 6045TIP3   OH239549   6.423   4.608  16.088  0.4228 -0.0604 -0.2267
 6045TIP3    H139550   6.336   4.649  16.091  0.5760  0.3185 -0.8099
 6045TIP3    H239551   6.423   4.547  16.162 -0.2160  0.1827 -0.0169
 6046TIP3   OH239552   0.395   0.043   1.531  0.0030 -0.6095 -0.5000
 6046TIP3    H139553   0.476  -0.007   1.533 -0.7489 -2.1249 -3.1757
 6046TIP3    H239554   0.418   0.124   1.486  0.4362 -0.0771  0.6341
 6047TIP3   OH239555   6.575   5.635   1.010 -0.0837 -0.2461 -0.0387
 6047TIP3    H139556   6.559   5.596   0.923 -2.2134  0.9796 -0.2599
 6047TIP3    H239557   6.665   5.612   1.030  0.2915 -1.0368 -2.3447
 6048TIP3   OH239558   2.843   0.741  14.144 -0.0488  0.4071 -0.7163
 6048TIP3    H139559   2.799   0.826  14.136  0.8870  0.9545 -0.2498
 6048TIP3    H239560   2.774   0.677  14.129 -1.4657  1.1958  1.8725
 6049TIP3   OH239561   0.423   0.965  17.008 -0.6775  0.4911  0.0845
 6049TIP3    H139562   0.458   0.965  17.097  0.0874 -0.4776 -0.1953
 6049TIP3    H239563   0.467   1.038  16.964  1.5299 -1.0655 -0.4319
 6050TIP3   OH239564   3.745   6.275   4.243  0.4457  0.2667 -0.2315
 6050TIP3    H139565   3.651   6.269   4.223  0.6880 -0.5471 -1.1955
 6050TIP3    H239566   3.777   6.186   4.232  1.3980  0.6014 -0.2089
 6051TIP3   OH239567   6.528   4.227   1.095  0.3386  0.0126 -0.1555
 6051TIP3    H139568   6.543   4.170   1.171  1.0337 -1.6665 -1.4774
 6051TIP3    H239569   6.615   4.251   1.065  0.1326 -0.6430 -1.3316
 6052TIP3   OH239570   0.181   3.055   2.688  0.1278 -0.3570  0.2662
 6052TIP3    H139571   0.232   3.024   2.763  0.9538 -0.8053 -0.4663
 6052TIP3    H239572   0.128   3.127   2.723 -0.0913 -1.0807  1.4595
 6053TIP3   OH239573   1.787   1.876  12.335  0.4804  0.1903  0.3587
 6053TIP3    H139574   1.733   1.806  12.371  0.9297  0.0763  0.8199
 6053TIP3    H239575   1.855   1.831  12.285 -0.4554  0.3567 -1.1197
 6054TIP3   OH239576   1.901   6.190   2.305 -0.3923 -0.4771  0.5468
 6054TIP3    H139577   1.856   6.275   2.305 -0.6932 -0.6304 -0.1768
 6054TIP3    H239578   1.834   6.127   2.332  0.0310 -0.4034  1.8706
 6055TIP3   OH239579   0.853   2.117  14.992  0.0668  0.4285  0.6929
 6055TIP3    H139580   0.877   2.089  14.904 -0.6972  0.4004  0.4812
 6055TIP3    H239581   0.860   2.213  14.989 -1.1828  0.5383  0.1911
 6056TIP3   OH239582   4.258   5.833  12.436 -0.1195 -0.0389  0.2249
 6056TIP3    H139583   4.185   5.779  12.407  0.1739 -0.7953  0.8650
 6056TIP3    H239584   4.309   5.850  12.357 -1.4216  1.2186 -0.3933
 6057TIP3   OH239585   1.280   4.866  17.100 -0.3949  0.3391 -0.1898
 6057TIP3    H139586   1.206   4.891  17.044 -1.0383  0.6680  0.7805
 6057TIP3    H239587   1.344   4.937  17.087 -1.3819  1.4930  1.0130
 6058TIP3   OH239588   1.471   5.594   4.399 -0.3248 -0.6438  0.0722
 6058TIP3    H139589   1.495   5.633   4.483  1.1966 -1.5443  0.0831
 6058TIP3    H239590   1.440   5.507   4.420 -1.7718 -0.2016 -0.1445
 6059TIP3   OH239591   3.914   5.315   2.286  0.4439  0.3690 -0.4433
 6059TIP3    H139592   4.004   5.328   2.259  0.8629 -0.3729  0.5293
 6059TIP3    H239593   3.919   5.299   2.381 -0.4577 -1.8014 -0.6822
 6060TIP3   OH239594   0.372   3.723   3.546 -0.2794 -0.5935  0.0043
 6060TIP3    H139595   0.387   3.804   3.498  0.6952 -1.7331 -1.6955
 6060TIP3    H239596   0.439   3.723   3.615 -1.2274  0.7107  0.9596
 6061TIP3   OH239597   3.907   0.775  11.368 -0.1810  0.0386 -0.2136
 6061TIP3    H139598   3.992   0.820  11.366 -0.0606 -0.1753  0.1010
 6061TIP3    H239599   3.869   0.795  11.282 -0.1531  0.7778 -0.0627
 6062TIP3   OH239600   3.833   3.761   2.100  0.4406  0.0816  0.5288
 6062TIP3    H139601   3.903   3.733   2.160 -0.8163 -0.7158  1.6863
 6062TIP3    H239602   3.753   3.732   2.142 -0.6099  1.0041 -0.7611
 6063TIP3   OH239603   1.405   6.623   1.862 -0.2565 -0.3571  0.1946
 6063TIP3    H139604   1.452   6.606   1.943  1.4581  0.6902 -0.5169
 6063TIP3    H239605   1.445   6.703   1.827 -2.8955  0.8962 -0.2570
 6064TIP3   OH239606   6.553   2.427  12.318 -0.7551  0.2006 -0.0117
 6064TIP3    H139607   6.647   2.426  12.335 -0.3234 -0.7843 -2.1137
 6064TIP3    H239608   6.533   2.520  12.302 -0.3253  0.5193  1.1915
 6065TIP3   OH239609   6.162   4.735   0.939  0.1528  0.1050  0.6491
 6065TIP3    H139610   6.238   4.770   0.986  0.0545  1.4852 -0.1510
 6065TIP3    H239611   6.176   4.761   0.848  0.1954 -2.2451 -0.0923
 6066TIP3   OH239612   5.113   5.529   0.814  0.5210 -0.2490  0.2785
 6066TIP3    H139613   5.179   5.481   0.865  1.0940 -0.4936 -0.6744
 6066TIP3    H239614   5.079   5.595   0.875 -0.3664 -1.9081  1.6758
 6067TIP3   OH239615   6.635   0.847   3.250  0.3621 -0.6029  0.2690
 6067TIP3    H139616   6.673   0.819   3.333 -1.7269 -1.3394  1.0444
 6067TIP3    H239617   6.541   0.835   3.261 -0.0432 -0.0375 -1.9701
 6068TIP3   OH239618   5.878   1.800   0.629  0.4883 -0.0211  0.3939
 6068TIP3    H139619   5.960   1.812   0.581  0.9063 -0.3999  1.0082
 6068TIP3    H239620   5.856   1.887   0.662  0.8927 -0.0075  0.6288
 6069TIP3   OH239621   1.793   5.354   6.409  0.0363  0.0410 -0.7557
 6069TIP3    H139622   1.711   5.338   6.361 -0.0043 -0.5424 -0.5014
 6069TIP3    H239623   1.849   5.280   6.385  0.1606 -0.0395 -0.2208
 6070TIP3   OH239624   0.403   2.514   0.630  0.1477  0.1729 -0.3717
 6070TIP3    H139625   0.315   2.478   0.637 -0.1772  1.1167  0.6657
 6070TIP3    H239626   0.458   2.454   0.680  0.1268 -0.4802 -1.1178
 6071TIP3   OH239627   4.791   2.181   5.699  0.4068 -0.3772 -0.2779
 6071TIP3    H139628   4.871   2.129   5.691 -0.3615 -1.4022 -1.6889
 6071TIP3    H239629   4.720   2.118   5.689 -0.6437  0.3392  1.9671
 6072TIP3   OH239630   4.914   5.520  16.356  0.1400  0.0205  0.6007
 6072TIP3    H139631   4.855   5.497  16.428  0.1873  0.7793  0.8948
 6072TIP3    H239632   4.926   5.438  16.308  1.1744 -0.8319  2.2199
 6073TIP3   OH239633   2.501   5.627   5.750  0.6907 -0.4802  0.7786
 6073TIP3    H139634   2.484   5.556   5.812 -1.9053  0.1609  0.9366
 6073TIP3    H239635   2.525   5.702   5.804 -0.1539 -0.3040  0.9242
 6074TIP3   OH239636   2.887   2.356  13.486 -0.3813  0.1238  0.2213
 6074TIP3    H139637   2.800   2.395  13.485 -1.3360 -1.8909 -0.5315
 6074TIP3    H239638   2.872   2.264  13.509  1.5714 -0.2147  0.3229
 6075TIP3   OH239639   0.563   5.961  16.054 -0.1541 -0.5284  0.8053
 6075TIP3    H139640   0.571   5.912  16.135 -0.3672  2.1369  2.5378
 6075TIP3    H239641   0.583   6.051  16.077 -1.1630  0.5125 -1.8985
 6076TIP3   OH239642   5.339   2.334  13.730  0.1684 -0.2443  0.7213
 6076TIP3    H139643   5.321   2.247  13.767 -0.6512 -0.8803 -1.0469
 6076TIP3    H239644   5.358   2.389  13.806 -0.6127 -1.6555  1.9972
 6077TIP3   OH239645   0.825   4.355   1.982 -0.0449 -0.0142  0.3694
 6077TIP3    H139646   0.853   4.297   2.053  1.1350  0.4437  0.2987
 6077TIP3    H239647   0.879   4.329   1.907 -1.6614 -0.8583 -0.5434
 6078TIP3   OH239648   6.564   0.650  13.279  0.3115  0.3751  0.4016
 6078TIP3    H139649   6.494   0.610  13.331 -0.5324 -0.7673 -1.5381
 6078TIP3    H239650   6.531   0.737  13.257 -0.7138 -0.2939 -0.8218
 6079TIP3   OH239651   1.922   2.851   5.092  0.3836 -0.7410 -0.6964
 6079TIP3    H139652   1.861   2.837   5.164  1.3464 -0.2980  0.2409
 6079TIP3    H239653   1.870   2.893   5.024 -0.1421  0.6108  0.4894
 6080TIP3   OH239654   2.611   5.827  14.174  0.2883  0.1352  0.2157
 6080TIP3    H139655   2.689   5.825  14.229 -0.5615 -0.0278  1.4443
 6080TIP3    H239656   2.606   5.917  14.143  0.1136  0.5506  1.4024
 6081TIP3   OH239657   4.191   1.777   4.700 -0.5918  0.3536  0.1799
 6081TIP3    H139658   4.120   1.768   4.764 -0.7186  0.7590  0.1023
 6081TIP3    H239659   4.252   1.838   4.741 -0.0747 -0.3271  0.4275
 6082TIP3   OH239660   5.375   0.296  11.098  0.5096 -0.0958  0.5526
 6082TIP3    H139661   5.343   0.243  11.171  0.1090 -1.3941 -0.5152
 6082TIP3    H239662   5.427   0.234  11.046  0.6103  0.7482 -0.3678
 6083TIP3   OH239663   1.410   3.774  12.408 -0.0759 -0.6569  0.0047
 6083TIP3    H139664   1.485   3.833  12.408 -1.3037  0.9999 -0.2657
 6083TIP3    H239665   1.433   3.705  12.347  0.9584  0.1844 -0.5854
 6084TIP3   OH239666   1.330   0.091   5.599 -0.2409  0.2818 -0.1712
 6084TIP3    H139667   1.291   0.132   5.521  0.6147  0.6877 -0.3945
 6084TIP3    H239668   1.317   0.155   5.668 -1.3940 -0.2611  0.1434
 6085TIP3   OH239669   5.514   6.598   2.904  0.4189  0.0837 -0.1494
 6085TIP3    H139670   5.608   6.610   2.919  0.4255 -0.1247 -0.0160
 6085TIP3    H239671   5.500   6.504   2.918  0.2556  0.0528 -0.5179
 6086TIP3   OH239672   6.198   4.541  14.080 -0.3328 -0.4548 -0.9176
 6086TIP3    H139673   6.108   4.569  14.096 -0.2893  0.1247 -1.6585
 6086TIP3    H239674   6.200   4.513  13.989  0.3009 -0.1983 -0.9929
 6087TIP3   OH239675   4.770   0.080  14.905  0.0779 -0.0689 -0.1252
 6087TIP3    H139676   4.776   0.112  14.995  0.2113 -0.1557 -0.1035
 6087TIP3    H239677   4.677   0.090  14.883  0.2613  1.1149 -0.4061
 6088TIP3   OH239678   5.698   0.819   4.828 -0.1283 -0.1072 -0.7292
 6088TIP3    H139679   5.768   0.847   4.888 -0.6290 -1.3512  0.4744
 6088TIP3    H239680   5.740   0.753   4.773  0.1165  0.4711 -1.2566
 6089TIP3   OH239681   1.013   1.706   5.639  0.2226  0.1440 -0.0859
 6089TIP3    H139682   1.055   1.634   5.686  0.9692  0.6058 -0.0131
 6089TIP3    H239683   1.067   1.782   5.661  0.9577  0.2825 -2.1227
 6090TIP3   OH239684   4.455   0.739  16.305 -0.0771  0.1518  0.3836
 6090TIP3    H139685   4.477   0.832  16.312 -0.1058  0.1268  0.8207
 6090TIP3    H239686   4.522   0.703  16.246 -0.1986  0.4903  0.0303
 6091TIP3   OH239687   3.499   2.044  15.963 -0.0035 -0.2296  0.1108
 6091TIP3    H139688   3.478   2.136  15.978  1.3308  0.0054  0.6712
 6091TIP3    H239689   3.419   1.997  15.989 -0.0238  0.6393  1.8064
 6092TIP3   OH239690   2.161   0.351   3.020 -0.0535  0.4742  0.8925
 6092TIP3    H139691   2.165   0.290   3.094  1.0508 -1.1439 -0.4322
 6092TIP3    H239692   2.194   0.301   2.945  0.1211  2.4595 -0.4469
 6093TIP3   OH239693   2.130   5.840   6.690  0.2501 -0.0897 -0.3048
 6093TIP3    H139694   2.128   5.851   6.594  0.9972  1.0484 -0.2005
 6093TIP3    H239695   2.100   5.924   6.724  2.3997  0.4158  0.4912
 6094TIP3   OH239696   6.137   5.693  14.970 -0.8046  0.7322 -0.3715
 6094TIP3    H139697   6.186   5.611  14.968  0.4558  1.4621 -0.9415
 6094TIP3    H239698   6.048   5.668  14.947 -0.7089 -0.6214  0.5749
 6095TIP3   OH239699   5.943   6.347  16.530  0.4075  0.3990  0.1997
 6095TIP3    H139700   5.911   6.271  16.579  2.4263 -0.4815  0.2436
 6095TIP3    H239701   5.968   6.410  16.598  1.2366  0.0080  0.2766
 6096TIP3   OH239702   4.346   1.410  17.122 -0.0402 -0.1975 -0.3874
 6096TIP3    H139703   4.400   1.477  17.082 -0.3769 -0.0942 -0.6791
 6096TIP3    H239704   4.366   1.330  17.073 -0.2830 -0.1200 -0.6173
 6097TIP3   OH239705   4.097   5.869  17.248 -0.5220 -0.0849 -0.3500
 6097TIP3    H139706   4.082   5.962  17.265  0.3692 -0.1073  0.7112
 6097TIP3    H239707   4.062   5.854  17.160  1.0648  1.7154 -1.3777
 6098TIP3   OH239708   3.895   3.442  13.017 -0.0648  0.2563 -0.1621
 6098TIP3    H139709   3.807   3.447  13.054  0.2317 -0.1311  0.6353
 6098TIP3    H239710   3.916   3.532  12.992  1.2570  1.4887  4.3839
 6099TIP3   OH239711   0.192   1.657   2.820  0.3809  0.0270 -0.2893
 6099TIP3    H139712   0.125   1.612   2.873  1.1487  1.5689  2.1544
 6099TIP3    H239713   0.232   1.720   2.880  3.4869 -0.2393 -1.8759
 6100TIP3   OH239714   2.659   1.719   2.404 -0.2347  0.5666 -0.4957
 6100TIP3    H139715   2.660   1.666   2.484  0.5276  0.4266 -0.5900
 6100TIP3    H239716   2.748   1.711   2.369 -0.6894  0.2189 -1.6305
 6101TIP3   OH239717   3.389   4.232   2.971  0.1039  0.1724 -0.1725
 6101TIP3    H139718   3.424   4.163   2.915 -0.3050 -0.0033 -0.2127
 6101TIP3    H239719   3.304   4.200   2.999  1.1222 -0.6720  2.2242
 6102TIP3   OH239720   6.147   1.813   2.596 -0.1499  0.0788 -0.2267
 6102TIP3    H139721   6.074   1.757   2.623 -0.4668  0.8442  0.6000
 6102TIP3    H239722   6.225   1.768   2.628 -0.3089 -0.4571 -0.5916
 6103TIP3   OH239723   0.133   5.402   2.422 -0.0658  0.2863  0.6085
 6103TIP3    H139724   0.152   5.487   2.382 -0.2273 -0.8699 -2.1563
 6103TIP3    H239725   0.203   5.345   2.391 -1.5698 -1.2637 -0.0769
 6104TIP3   OH239726   5.402   1.423  12.480 -0.1790 -0.3062  0.5085
 6104TIP3    H139727   5.450   1.356  12.527  1.4726  1.1786  1.0761
 6104TIP3    H239728   5.397   1.391  12.390  1.2878 -0.8643  0.5941
 6105TIP3   OH239729   5.608   2.829  16.664  0.1205 -0.4994 -0.8320
 6105TIP3    H139730   5.579   2.867  16.581  1.6861  0.9039 -0.7972
 6105TIP3    H239731   5.704   2.827  16.657  0.3338  0.3520  1.2077
 6106TIP3   OH239732   5.072   4.193  15.924  0.0895 -0.0569 -0.2044
 6106TIP3    H139733   5.023   4.112  15.921 -1.4502  0.6757  2.3666
 6106TIP3    H239734   5.050   4.238  15.842 -0.9060 -1.1875 -0.5825
 6107TIP3   OH239735   6.098   6.283   6.078 -0.4547 -0.1011 -0.6536
 6107TIP3    H139736   6.148   6.258   6.001  1.3578  0.5939  0.2370
 6107TIP3    H239737   6.150   6.251   6.152 -1.2181  0.8543  0.3330
 6108TIP3   OH239738   1.546   2.413   1.311 -0.1802 -0.5544 -0.3857
 6108TIP3    H139739   1.456   2.378   1.305 -0.1807 -1.0834  1.7762
 6108TIP3    H239740   1.580   2.376   1.392  1.4276  0.9971 -0.3067
 6109TIP3   OH239741   1.601   0.890   5.580 -0.5742 -0.0921 -0.3934
 6109TIP3    H139742   1.579   0.925   5.494 -0.7645 -0.3561 -0.4533
 6109TIP3    H239743   1.618   0.797   5.565  0.6496  0.1071 -0.3607
 6110TIP3   OH239744   1.254   0.775   3.710  0.4742 -0.6590  0.1473
 6110TIP3    H139745   1.175   0.814   3.748  1.0571 -1.4452  2.2939
 6110TIP3    H239746   1.241   0.681   3.718  1.4790 -0.8024  0.2232
 6111TIP3   OH239747   0.273   0.896   0.225  0.0469 -0.1856 -0.5547
 6111TIP3    H139748   0.281   0.990   0.210  0.7104  0.0449  1.0800
 6111TIP3    H239749   0.359   0.869   0.257 -0.6751 -0.9798  0.8123
 6112TIP3   OH239750   4.062   0.431   3.375  0.0844 -0.5803  0.6547
 6112TIP3    H139751   4.131   0.474   3.324  1.2009 -1.3787  1.4365
 6112TIP3    H239752   3.998   0.403   3.309 -0.2284  1.4360  0.0533
 6113TIP3   OH239753   2.262   2.139  16.729 -0.1421  0.7535  0.2243
 6113TIP3    H139754   2.188   2.081  16.745  0.4783  0.2442  1.3770
 6113TIP3    H239755   2.331   2.107  16.788  0.7889  1.5925 -0.3748
 6114TIP3   OH239756   3.390   2.636   6.237  0.4826 -0.1315  0.0779
 6114TIP3    H139757   3.319   2.583   6.272  0.8437 -0.4423  0.3555
 6114TIP3    H239758   3.355   2.725   6.235  0.1015 -0.2736  0.2549
 6115TIP3   OH239759   5.886   1.430   1.417 -0.5642  0.7206  0.1338
 6115TIP3    H139760   5.835   1.377   1.479 -0.9814 -0.5642 -1.2352
 6115TIP3    H239761   5.949   1.368   1.380 -0.0575  1.5615 -0.4349
 6116TIP3   OH239762   4.587   2.163  10.837  0.1701  0.8666 -0.0493
 6116TIP3    H139763   4.495   2.165  10.809  0.1584  1.9796  0.0166
 6116TIP3    H239764   4.629   2.103  10.776 -0.4537  0.9301 -0.5525
 6117TIP3   OH239765   4.656   5.333  15.083  0.6984 -0.2836 -0.3288
 6117TIP3    H139766   4.673   5.256  15.138 -0.3687  0.9404  1.8386
 6117TIP3    H239767   4.578   5.373  15.121 -0.2097  0.5645 -2.8904
 6118TIP3   OH239768   2.340   6.361   1.793 -0.5320  0.2435 -0.1646
 6118TIP3    H139769   2.362   6.268   1.801 -0.0199  0.4584  0.9772
 6118TIP3    H239770   2.347   6.379   1.699  1.4873 -0.3582 -0.1628
 6119TIP3   OH239771   0.008   6.236   1.855 -0.2312 -0.1353 -0.2346
 6119TIP3    H139772   0.095   6.268   1.877 -0.8015  1.6837 -0.4076
 6119TIP3    H239773  -0.014   6.174   1.925  1.6727 -1.6324 -0.8798
 6120TIP3   OH239774   3.439   4.784  14.522 -0.7938 -0.0095  0.2555
 6120TIP3    H139775   3.515   4.789  14.581  0.1841  0.9709 -1.0263
 6120TIP3    H239776   3.424   4.691  14.510 -0.4984 -0.2233  1.4048
 6121TIP3   OH239777   1.690   5.781  12.566 -0.7263  0.1824 -0.1812
 6121TIP3    H139778   1.739   5.701  12.549  1.4156  1.6512 -1.4230
 6121TIP3    H239779   1.673   5.780  12.661  1.8183 -0.4038  0.3392
 6122TIP3   OH239780   3.612   2.406  15.839  0.1775 -0.4167 -0.1784
 6122TIP3    H139781   3.559   2.347  15.893  1.0744 -0.3048  0.8379
 6122TIP3    H239782   3.618   2.486  15.889 -2.5852  1.3454 -2.3267
 6123TIP3   OH239783   6.170   1.128   3.665 -0.1870 -0.1923  0.4737
 6123TIP3    H139784   6.087   1.146   3.621  0.6600  0.3702 -0.9461
 6123TIP3    H239785   6.201   1.047   3.625 -0.0796 -0.4484  1.0619
 6124TIP3   OH239786   6.550   5.202   4.531 -0.0763  1.0138 -0.3064
 6124TIP3    H139787   6.604   5.131   4.496  0.6446  1.0908  0.6129
 6124TIP3    H239788   6.463   5.163   4.541  0.4645  0.0239  0.8390
 6125TIP3   OH239789   0.001   6.433   3.093 -0.2648  0.2296  0.8946
 6125TIP3    H139790   0.016   6.363   3.156  0.5093  0.4168  0.9212
 6125TIP3    H239791   0.015   6.514   3.143 -3.0838  0.5138  1.4062
 6126TIP3   OH239792   3.850   5.191  14.137  0.1042 -0.0831 -0.3566
 6126TIP3    H139793   3.873   5.166  14.227 -0.4369 -0.8383 -0.4207
 6126TIP3    H239794   3.767   5.237  14.145  0.3405  0.3563 -0.4100
 6127TIP3   OH239795   3.581   6.422  15.419  0.2038  0.3527 -0.2894
 6127TIP3    H139796   3.647   6.491  15.419  1.2023 -0.5694 -0.8027
 6127TIP3    H239797   3.571   6.397  15.327 -1.0183  0.5969 -0.2503
 6128TIP3   OH239798   3.662   4.407  11.925 -0.3664  0.0321 -0.2783
 6128TIP3    H139799   3.566   4.404  11.922 -0.3339 -0.8321 -0.9268
 6128TIP3    H239800   3.686   4.477  11.865 -0.5977  0.5881  0.2628
 6129TIP3   OH239801   0.225   5.697  12.061 -0.7856 -0.1761 -0.1405
 6129TIP3    H139802   0.244   5.768  12.122  1.5069 -1.0236  0.2462
 6129TIP3    H239803   0.251   5.731  11.975  3.7455 -1.5324  0.4585
 6130TIP3   OH239804   4.004   0.908   2.551  0.3483  0.2282  0.1208
 6130TIP3    H139805   3.966   0.995   2.543 -0.3421 -0.0873 -0.1225
 6130TIP3    H239806   4.005   0.891   2.645  0.9587  0.6976  0.2040
 6131TIP3   OH239807   0.560   4.147  16.001 -0.0499  0.1211 -0.4681
 6131TIP3    H139808   0.650   4.121  15.986 -0.2659  0.0065 -1.6282
 6131TIP3    H239809   0.509   4.069  15.982 -0.6718  1.1307 -3.4979
 6132TIP3   OH239810   6.394   1.704   6.464  0.4215 -0.1129 -0.2509
 6132TIP3    H139811   6.486   1.679   6.468  0.9971  1.4226 -2.2153
 6132TIP3    H239812   6.355   1.641   6.402  0.0805 -0.8308  0.6610
 6133TIP3   OH239813   1.913   1.538  15.284 -0.1054 -0.5151 -0.0167
 6133TIP3    H139814   2.003   1.505  15.276 -0.3978 -1.6246  0.9874
 6133TIP3    H239815   1.924   1.625  15.324  0.6126  0.2709 -1.8107
 6134TIP3   OH239816   1.024   1.946   4.524  0.0495  0.6121  0.2596
 6134TIP3    H139817   0.944   1.910   4.484  0.5729  0.1303 -0.3650
 6134TIP3    H239818   1.025   1.908   4.612  0.5111 -0.8168 -0.3323
 6135TIP3   OH239819   5.970   5.705   1.941 -0.4878 -0.0381 -0.0363
 6135TIP3    H139820   6.018   5.646   1.883 -1.2107  1.1719 -1.9753
 6135TIP3    H239821   5.978   5.791   1.900 -0.4447  1.0347  2.0743
 6136TIP3   OH239822   6.575   6.142  13.002 -0.2777 -0.6504 -0.1109
 6136TIP3    H139823   6.609   6.147  13.092  0.5205  0.2113 -0.4466
 6136TIP3    H239824   6.496   6.088  13.010 -0.0401 -0.8631  1.0536
 6137TIP3   OH239825   6.152   6.644   4.279 -0.6252  0.0643 -0.0007
 6137TIP3    H139826   6.114   6.732   4.273 -1.2205  0.0240  2.1507
 6137TIP3    H239827   6.115   6.608   4.360  1.6659 -1.1393  0.5947
 6138TIP3   OH239828   4.824   3.146  10.326  0.2199 -0.4841 -0.1010
 6138TIP3    H139829   4.819   3.242  10.329  1.8811 -0.3612 -0.5745
 6138TIP3    H239830   4.798   3.118  10.414  1.1220  0.4796  0.4924
 6139TIP3   OH239831   3.003   1.486   3.988 -0.3613  0.0286 -0.2022
 6139TIP3    H139832   2.910   1.496   3.965 -0.3409 -0.5312 -0.5450
 6139TIP3    H239833   3.039   1.431   3.919  0.8332  2.3327 -1.5457
 6140TIP3   OH239834   0.120   4.018   4.865  0.4678  0.2303  0.5491
 6140TIP3    H139835   0.145   3.929   4.839  0.1686  0.5662 -1.0160
 6140TIP3    H239836   0.189   4.045   4.926  0.5586 -1.0686  1.0603
 6141TIP3   OH239837   6.655   3.278  10.989 -0.5160  0.0280 -0.4444
 6141TIP3    H139838   6.725   3.343  10.994  1.3906 -2.0052  0.9277
 6141TIP3    H239839   6.609   3.285  11.072  0.8225 -1.4990  0.4713
 6142TIP3   OH239840   0.413   1.688  15.622 -0.1724 -0.1803  0.6551
 6142TIP3    H139841   0.485   1.626  15.631 -1.7316 -2.8241 -2.4191
 6142TIP3    H239842   0.443   1.751  15.556 -0.5926 -1.3067 -0.6586
 6143TIP3   OH239843   1.659   6.350   6.125  0.0507 -0.4424  0.1092
 6143TIP3    H139844   1.654   6.346   6.029 -0.7399 -2.0793  0.1809
 6143TIP3    H239845   1.752   6.338   6.145  0.1347 -0.7371 -0.4411
 6144TIP3   OH239846   6.362   5.181  15.501  0.4881 -0.3215  0.2797
 6144TIP3    H139847   6.454   5.174  15.478  0.3504 -1.1971 -0.0729
 6144TIP3    H239848   6.357   5.147  15.590  0.4153 -0.9069  0.0564
 6145TIP3   OH239849   2.391   0.426  12.382  0.1256 -0.7642 -0.1463
 6145TIP3    H139850   2.484   0.401  12.385 -0.1232 -2.0447 -1.8499
 6145TIP3    H239851   2.380   0.465  12.295 -0.3755  1.9226  1.0291
 6146TIP3   OH239852   1.737   1.639   0.150 -0.3568  0.5791 -0.0893
 6146TIP3    H139853   1.730   1.616   0.242  0.0775  0.7494 -0.0100
 6146TIP3    H239854   1.760   1.558   0.105 -2.5206  0.0419 -0.3342
 6147TIP3   OH239855   3.229   3.166   2.697  0.5690 -0.4714 -0.1052
 6147TIP3    H139856   3.197   3.229   2.633  1.4103 -0.3771 -0.4422
 6147TIP3    H239857   3.201   3.201   2.782  1.4522  0.6261 -0.2463
 6148TIP3   OH239858   4.683   6.012  13.159  0.1282  0.3943 -0.1045
 6148TIP3    H139859   4.600   6.042  13.195  0.5809 -1.5095  2.9880
 6148TIP3    H239860   4.746   6.081  13.182  0.3646 -0.6638  3.0029
 6149TIP3   OH239861   4.084   1.192  15.215  1.1989 -0.8399 -0.4176
 6149TIP3    H139862   4.099   1.187  15.310  0.0280  0.8876 -0.0979
 6149TIP3    H239863   4.169   1.219  15.179  1.2647  0.0049  0.3334
 6150TIP3   OH239864   1.594   0.539  14.578 -0.3975  0.1012  0.3158
 6150TIP3    H139865   1.563   0.464  14.528  0.4279 -0.5577  0.7613
 6150TIP3    H239866   1.534   0.610  14.555 -0.6527 -0.4535 -0.8079
 6151TIP3   OH239867   2.355   4.616  12.368 -0.2371  0.3425 -0.9965
 6151TIP3    H139868   2.425   4.673  12.335 -0.0657 -0.3885 -1.9442
 6151TIP3    H239869   2.279   4.638  12.313 -0.2320 -0.1760 -1.2138
 6152TIP3   OH239870   2.717   0.034  12.038  0.2464 -0.2217  0.1134
 6152TIP3    H139871   2.636   0.009  12.082 -0.1014  0.4451 -0.1358
 6152TIP3    H239872   2.777  -0.038  12.056 -0.7099 -1.2075 -0.5467
 6153TIP3   OH239873   3.483   0.841   2.425 -0.2862  0.0876 -0.0044
 6153TIP3    H139874   3.483   0.867   2.517 -0.8156 -0.3710  0.1302
 6153TIP3    H239875   3.558   0.886   2.387  2.1907 -2.5877  1.4235
 6154TIP3   OH239876   0.816   2.523   3.094 -1.0977 -0.3314 -0.1238
 6154TIP3    H139877   0.751   2.537   3.025 -1.5920  2.0522  0.7637
 6154TIP3    H239878   0.896   2.565   3.061 -0.9454 -0.3667  0.1973
 6155TIP3   OH239879   0.052   0.846   0.381 -0.0694  0.1977  0.4440
 6155TIP3    H139880   0.136   0.866   0.340 -0.2321  1.8299  0.8252
 6155TIP3    H239881   0.000   0.806   0.311  0.1811  1.5019 -0.5362
 6156TIP3   OH239882   4.734   1.002   3.677  0.6510 -0.1291 -0.0072
 6156TIP3    H139883   4.726   0.907   3.675  1.2466 -0.1974  0.5737
 6156TIP3    H239884   4.829   1.018   3.682  0.5117  0.4713  0.9973
 6157TIP3   OH239885   4.900   5.422   5.516 -0.3048 -0.1407 -0.3751
 6157TIP3    H139886   4.951   5.501   5.529 -0.1078 -0.4587  0.9000
 6157TIP3    H239887   4.957   5.351   5.547 -0.9528 -0.6487 -0.3189
 6158TIP3   OH239888   5.979   3.641   2.835  0.0876  0.0109 -0.5407
 6158TIP3    H139889   5.906   3.647   2.774 -0.2804  1.3835  0.0031
 6158TIP3    H239890   6.045   3.700   2.799  0.7672 -0.8840 -0.7944
 6159TIP3   OH239891   4.557   5.355   0.305  0.2721 -0.8080 -0.0466
 6159TIP3    H139892   4.643   5.398   0.306 -0.1026  0.0924 -1.8455
 6159TIP3    H239893   4.558   5.297   0.381  1.9445  0.1966  0.7485
 6160TIP3   OH239894   2.334   5.984  16.670  0.6614  0.3873 -0.2928
 6160TIP3    H139895   2.307   6.046  16.737 -0.1528  0.7861 -0.9697
 6160TIP3    H239896   2.278   6.004  16.594  1.4729 -0.1260 -1.0524
 6161TIP3   OH239897   1.813   0.671   5.504  0.6919  0.3834 -0.1170
 6161TIP3    H139898   1.726   0.635   5.487 -0.0304  3.1371 -3.1582
 6161TIP3    H239899   1.873   0.598   5.488 -0.8861 -0.6242 -1.8442
 6162TIP3   OH239900   2.147   3.418  12.622 -0.1298  0.2386 -0.2083
 6162TIP3    H139901   2.134   3.512  12.614 -1.3857  0.1656  0.7274
 6162TIP3    H239902   2.238   3.404  12.596  0.5814  1.9131  1.2206
 6163TIP3   OH239903   6.383   1.731   2.717  0.5401  0.1788 -0.1083
 6163TIP3    H139904   6.466   1.738   2.765  1.1285 -1.1124 -0.8864
 6163TIP3    H239905   6.383   1.642   2.682 -0.6215  0.5563 -1.1392
 6164TIP3   OH239906   5.415   6.412   6.593  0.2883  0.2235  0.4065
 6164TIP3    H139907   5.481   6.346   6.613  1.8819  2.0673  1.5720
 6164TIP3    H239908   5.409   6.465   6.672 -1.9820  0.6629  0.0172
 6165TIP3   OH239909   2.603   3.248  14.579  0.0808  0.6135  0.0028
 6165TIP3    H139910   2.546   3.227  14.653  0.4787  0.4351  0.2572
 6165TIP3    H239911   2.680   3.193  14.591  0.9007  1.8071  0.3869
 6166TIP3   OH239912   5.542   1.639  15.178  0.4170 -0.0181 -0.5847
 6166TIP3    H139913   5.551   1.565  15.118 -0.2207 -1.3620  0.8883
 6166TIP3    H239914   5.586   1.711  15.134  0.5014 -1.0963 -2.3726
 6167TIP3   OH239915   6.479   3.269  13.731  0.8439 -0.1597 -0.5964
 6167TIP3    H139916   6.395   3.315  13.727  0.8144 -0.0726  0.8371
 6167TIP3    H239917   6.516   3.281  13.643 -1.4001 -1.6909 -1.8648
 6168TIP3   OH239918   2.756   3.718  16.756 -0.0035  0.2528 -0.2204
 6168TIP3    H139919   2.827   3.683  16.702 -0.8283  0.2160 -1.3244
 6168TIP3    H239920   2.800   3.755  16.832  0.9452 -2.7623  0.8325
 6169TIP3   OH239921   1.374   1.438   4.842  0.6693  0.0786 -0.1513
 6169TIP3    H139922   1.300   1.450   4.782  1.3939  0.3327 -1.0058
 6169TIP3    H239923   1.335   1.395   4.919 -0.4772  0.7736 -0.3251
 6170TIP3   OH239924   3.199   5.683   2.549  0.5488 -0.2538 -0.1780
 6170TIP3    H139925   3.223   5.768   2.513  2.1536 -0.1876  0.9507
 6170TIP3    H239926   3.141   5.703   2.622 -0.8068 -0.2844 -1.1856
 6171TIP3   OH239927   1.385   0.162  11.445 -0.5394 -0.2983 -0.1738
 6171TIP3    H139928   1.442   0.131  11.516  0.7606 -1.8324 -1.7757
 6171TIP3    H239929   1.386   0.257  11.453 -2.0291 -0.4248  2.9978
 6172TIP3   OH239930   4.801   4.853   4.349  0.4328  0.4016 -0.2173
 6172TIP3    H139931   4.778   4.844   4.257 -1.9168 -2.2332  0.4908
 6172TIP3    H239932   4.731   4.809   4.396 -0.0551  4.1077  3.1000
 6173TIP3   OH239933   6.165   3.941   5.743 -0.1308 -0.0260 -0.1884
 6173TIP3    H139934   6.151   3.950   5.837  0.7739  1.7194 -0.1836
 6173TIP3    H239935   6.256   3.913   5.735 -0.6515 -1.7979 -0.5435
 6174TIP3   OH239936   6.146   3.510   4.001 -0.4366  0.4313 -0.2656
 6174TIP3    H139937   6.205   3.449   3.956  1.5186  1.4500  0.7743
 6174TIP3    H239938   6.063   3.501   3.955  0.3502 -1.5006 -1.4456
 6175TIP3   OH239939   2.347   0.256   2.525 -0.1373  0.0549  0.3373
 6175TIP3    H139940   2.357   0.179   2.470 -3.0981 -0.5137  0.4477
 6175TIP3    H239941   2.361   0.330   2.466  1.0287 -0.5435 -0.1557
 6176TIP3   OH239942   2.528   3.663   0.749 -0.5069 -0.0331  0.2536
 6176TIP3    H139943   2.574   3.616   0.679  0.2629  0.6662  0.2746
 6176TIP3    H239944   2.591   3.667   0.821 -0.0608  2.1445 -0.2039
 6177TIP3   OH239945   2.215   3.694  14.589 -0.3865 -0.0615  0.7460
 6177TIP3    H139946   2.294   3.735  14.553  0.1507 -1.0835  0.7448
 6177TIP3    H239947   2.228   3.696  14.683 -0.7665  0.5570  0.7927
 6178TIP3   OH239948   3.875   0.518  11.433 -0.2061 -0.2020 -0.1398
 6178TIP3    H139949   3.921   0.601  11.415  0.1650  0.2690  2.6003
 6178TIP3    H239950   3.792   0.526  11.386 -0.3827  1.9498  0.4301
 6179TIP3   OH239951   6.658   2.542   3.629 -0.2877  0.0383  0.6835
 6179TIP3    H139952   6.658   2.590   3.712 -0.8469  0.3423  0.5133
 6179TIP3    H239953   6.729   2.583   3.578  1.7310 -1.7580  1.8986
 6180TIP3   OH239954   4.995   0.452   4.720  0.5941 -0.2779 -0.0066
 6180TIP3    H139955   5.024   0.544   4.720  1.3315 -0.4996  0.5227
 6180TIP3    H239956   5.022   0.419   4.635  2.2489 -0.5685  0.5951
 6181TIP3   OH239957   4.557   5.484  11.109  0.2118 -0.3833 -0.2743
 6181TIP3    H139958   4.539   5.393  11.132 -1.7392  0.2392  0.9325
 6181TIP3    H239959   4.471   5.521  11.088  0.1731  2.1945  3.3763
 6182TIP3   OH239960   3.630   3.950  10.897 -0.5037  0.3530 -0.6638
 6182TIP3    H139961   3.659   3.956  10.806 -1.0075 -0.6096 -0.9051
 6182TIP3    H239962   3.551   4.005  10.901  0.3741  1.6438 -0.4070
 6183TIP3   OH239963   3.575   2.681  12.286  0.1194 -0.1550  0.1946
 6183TIP3    H139964   3.620   2.613  12.235 -0.1906 -0.5504  0.4454
 6183TIP3    H239965   3.559   2.640  12.371  2.3893  1.1502  1.3324
 6184TIP3   OH239966   6.107   3.012  15.004 -0.0812 -0.5370 -0.1176
 6184TIP3    H139967   6.013   3.023  15.018  0.1413  0.9029  0.3368
 6184TIP3    H239968   6.137   2.962  15.080 -0.0385  1.4051  1.2119
 6185TIP3   OH239969   4.313   4.369  14.528 -0.3407  0.3355 -0.4422
 6185TIP3    H139970   4.306   4.282  14.566 -0.8110 -0.4426 -2.2121
 6185TIP3    H239971   4.224   4.392  14.503 -0.0987  0.9512 -0.7713
 6186TIP3   OH239972   4.083   2.501  12.034  0.4173 -0.3807  0.3153
 6186TIP3    H139973   4.132   2.581  12.054  0.9064  0.3425 -3.0565
 6186TIP3    H239974   4.142   2.450  11.978 -0.9315 -1.7710  0.0747
 6187TIP3   OH239975   3.400   6.420  14.292  0.2040 -0.3968  0.2084
 6187TIP3    H139976   3.348   6.343  14.316 -2.1220  1.1785  0.6096
 6187TIP3    H239977   3.422   6.461  14.376 -1.1452  0.9058 -0.0342
 6188TIP3   OH239978   0.456   2.377   5.071 -0.0593  0.5842  0.2089
 6188TIP3    H139979   0.387   2.417   5.017 -1.0838  0.9628  1.7271
 6188TIP3    H239980   0.504   2.452   5.106 -1.2570  0.5215  2.1348
 6189TIP3   OH239981   5.550   3.259   1.612  0.0878 -0.0891 -0.8906
 6189TIP3    H139982   5.605   3.331   1.643  1.3241 -1.1028 -0.6631
 6189TIP3    H239983   5.509   3.224   1.692 -2.1080  1.5497 -1.1833
 6190TIP3   OH239984   6.438   4.133   5.837  0.6042  0.3517  0.0399
 6190TIP3    H139985   6.392   4.214   5.813  1.2379  1.0049  0.9546
 6190TIP3    H239986   6.499   4.118   5.765 -0.4027 -0.0310 -0.7535
 6191TIP3   OH239987   5.462   0.463   3.734 -0.2295  0.1361 -0.3927
 6191TIP3    H139988   5.517   0.529   3.692 -0.7421  0.9798  0.2138
 6191TIP3    H239989   5.482   0.472   3.828 -0.1414 -0.7290 -0.3206
 6192TIP3   OH239990   5.344   3.623   3.033 -0.1431 -0.5004  0.1256
 6192TIP3    H139991   5.413   3.585   2.977 -1.1824 -1.1253 -0.7674
 6192TIP3    H239992   5.270   3.563   3.023 -0.8188  0.1552  1.0873
 6193TIP3   OH239993   4.994   2.811  11.832 -0.3467 -0.2037  0.4360
 6193TIP3    H139994   4.999   2.857  11.748  0.5231  0.6696  0.9411
 6193TIP3    H239995   4.902   2.785  11.839 -0.0608 -2.1122 -1.7007
 6194TIP3   OH239996   3.018   2.949  12.706 -0.2553  1.0403  0.1314
 6194TIP3    H139997   2.965   2.884  12.661 -0.3577  1.5716 -0.5299
 6194TIP3    H239998   3.021   2.919  12.797 -1.6734  0.9947  0.1882
 6195TIP3   OH239999   2.593   2.584   5.550  0.7335  0.4306 -0.3516
 6195TIP3    H140000   2.644   2.557   5.473 -0.8974  1.0337 -1.7082
 6195TIP3    H240001   2.528   2.515   5.561  1.3284  0.0454  0.8960
 6196TIP3   OH240002   1.657   4.740  11.371 -1.0189 -0.5951 -0.4310
 6196TIP3    H140003   1.698   4.825  11.354 -1.7207 -0.0952  0.2774
 6196TIP3    H240004   1.600   4.724  11.296 -3.0619  0.9453  0.6667
 6197TIP3   OH240005   0.380   3.789   5.192  0.0038  0.1848  0.6305
 6197TIP3    H140006   0.469   3.758   5.175  0.1121  1.4090 -1.3210
 6197TIP3    H240007   0.324   3.728   5.144  0.1524  2.1172 -2.2418
 6198TIP3   OH240008   2.180   0.174   3.915  0.1392  0.2138  0.1045
 6198TIP3    H140009   2.206   0.085   3.936 -1.2940  0.0705  1.4244
 6198TIP3    H240010   2.262   0.224   3.918  0.8112 -0.8798  0.3238
 6199TIP3   OH240011   5.027   3.702  14.849  0.3860 -0.2339  0.3627
 6199TIP3    H140012   4.956   3.658  14.803  0.6495 -1.3452  0.9791
 6199TIP3    H240013   4.993   3.788  14.870 -0.5385 -0.5176  0.0565
 6200TIP3   OH240014   0.462   5.271   1.630  0.7811 -0.2203  0.4712
 6200TIP3    H140015   0.431   5.284   1.720  0.0604 -0.1804  0.2274
 6200TIP3    H240016   0.397   5.212   1.591  1.1400 -0.3086  0.0052
 6201TIP3   OH240017   6.106   4.148   4.956  0.0661  0.2028 -0.7339
 6201TIP3    H140018   6.128   4.210   5.026 -1.7456  0.1722 -0.0928
 6201TIP3    H240019   6.138   4.190   4.876  1.4543  0.6029 -0.0123
 6202TIP3   OH240020   1.777   3.993  13.095 -0.1675 -0.1217  0.4399
 6202TIP3    H140021   1.835   4.025  13.025 -1.9574  0.5994 -0.8064
 6202TIP3    H240022   1.823   4.014  13.176  0.2916  2.6465 -0.4209
 6203TIP3   OH240023   3.794   4.801   0.693  0.1875 -0.2432  0.0537
 6203TIP3    H140024   3.704   4.768   0.699 -0.0411  0.5053  0.8730
 6203TIP3    H240025   3.792   4.861   0.618 -0.9067  2.4471  2.0980
 6204TIP3   OH240026   2.211   4.622  13.236  0.3799 -0.6089 -0.0300
 6204TIP3    H140027   2.148   4.591  13.171  0.5891 -0.7906 -0.1460
 6204TIP3    H240028   2.156   4.656  13.308  0.1501 -1.0570  0.0097
 6205TIP3   OH240029   3.631   1.100  14.647  0.1168 -0.3128  0.1027
 6205TIP3    H140030   3.545   1.066  14.621  0.6629 -1.3198 -0.4576
 6205TIP3    H240031   3.641   1.181  14.598  0.7311 -1.7135 -2.2296
 6206TIP3   OH240032   6.485   6.613  12.873 -0.5483 -0.3109  0.4012
 6206TIP3    H140033   6.438   6.569  12.944 -0.5817 -0.8982  0.0234
 6206TIP3    H240034   6.446   6.577  12.793 -1.1498  1.0225  0.0755
 6207TIP3   OH240035   6.023   1.186   4.945 -0.1940 -0.0495 -0.3326
 6207TIP3    H140036   5.960   1.256   4.964 -0.3037  0.1471 -1.3914
 6207TIP3    H240037   6.099   1.231   4.910 -0.4295 -0.4920 -1.4384
 6208TIP3   OH240038   3.060   1.360  12.644  0.0334  0.1633  0.3708
 6208TIP3    H140039   3.027   1.400  12.724  1.8503  0.4000  1.0347
 6208TIP3    H240040   3.113   1.286  12.673  0.0737 -0.2363 -0.6560
 6209TIP3   OH240041   2.064   4.668  15.763 -0.1221  0.5639  0.9310
 6209TIP3    H140042   2.094   4.757  15.747 -0.7610  0.5404 -0.5516
 6209TIP3    H240043   1.968   4.675  15.762 -0.2117 -0.3553 -0.7571
 6210TIP3   OH240044   1.732   6.167  13.193  0.1559  0.1972  0.3582
 6210TIP3    H140045   1.756   6.245  13.141  0.4136  0.7449  1.2842
 6210TIP3    H240046   1.645   6.187  13.226  0.1589  0.0244  0.4710
 6211TIP3   OH240047   5.545   0.256   2.414  0.3800 -0.7664  0.1707
 6211TIP3    H140048   5.587   0.224   2.334  3.7597  1.0604  1.0246
 6211TIP3    H240049   5.570   0.193   2.481 -0.2005 -0.8711  0.2941
 6212TIP3   OH240050   6.606   3.157   4.040  0.1078  0.0879  0.1057
 6212TIP3    H140051   6.553   3.190   3.968 -1.5576 -0.9278  0.8082
 6212TIP3    H240052   6.694   3.191   4.023 -1.0044  2.9016 -0.4158
 6213TIP3   OH240053   5.342   5.815  12.635  0.4373  0.1558 -0.1856
 6213TIP3    H140054   5.313   5.737  12.587  0.2453  0.1775 -0.1091
 6213TIP3    H240055   5.388   5.780  12.711  0.1532  0.1138 -0.0321
 6214TIP3   OH240056   5.322   4.501  15.462  0.1094 -0.6061  0.2086
 6214TIP3    H140057   5.252   4.437  15.445 -0.4192 -0.5634  2.0484
 6214TIP3    H240058   5.402   4.449  15.464  0.3024 -0.5726 -2.5783
 6215TIP3   OH240059   1.677   5.195  15.022 -0.3227 -0.1035  0.3478
 6215TIP3    H140060   1.591   5.181  15.062  0.5253 -2.7720  1.4681
 6215TIP3    H240061   1.704   5.281  15.053 -1.3780 -0.4354  2.3624
 6216TIP3   OH240062   4.109   6.131   6.263  0.1434 -0.0158 -0.2526
 6216TIP3    H140063   4.065   6.216   6.267 -0.7529 -0.4631 -0.3050
 6216TIP3    H240064   4.191   6.144   6.310  0.2583  1.0151 -0.7075
 6217TIP3   OH240065   1.482   3.799  15.539  0.1472  0.4211 -0.0975
 6217TIP3    H140066   1.523   3.736  15.598 -0.7506  0.1800  0.2844
 6217TIP3    H240067   1.537   3.797  15.460  0.9744  0.2619  0.4657
 6218TIP3   OH240068   0.860   5.298  12.464 -0.4075 -0.4374  0.2089
 6218TIP3    H140069   0.801   5.365  12.499  0.1395 -0.4470  1.1866
 6218TIP3    H240070   0.943   5.312  12.510 -0.0196 -1.2241 -0.2244
 6219TIP3   OH240071   2.544   4.294  16.632 -0.3755  0.3492 -0.3315
 6219TIP3    H140072   2.556   4.322  16.541 -1.2620  0.3555 -0.4528
 6219TIP3    H240073   2.466   4.239  16.630 -0.4215  0.3818  0.4330
 6220TIP3   OH240074   4.094   2.599   2.743  0.0972  0.4426 -0.2427
 6220TIP3    H140075   4.187   2.581   2.753  0.2367  1.7291  1.1114
 6220TIP3    H240076   4.054   2.512   2.733  1.1757 -0.3560  1.7708
 6221TIP3   OH240077   2.227   6.417   4.361  0.0859  0.6445 -0.4938
 6221TIP3    H140078   2.205   6.331   4.396  0.0393  0.8857  0.0716
 6221TIP3    H240079   2.302   6.446   4.412 -1.0973  1.7824  0.6752
 6222TIP3   OH240080   3.748   4.955   0.444 -0.3412 -0.2928 -0.3656
 6222TIP3    H140081   3.740   5.051   0.449 -1.2791 -0.4280  1.3762
 6222TIP3    H240082   3.823   4.941   0.387 -1.5275  1.4391 -2.5704
 6223TIP3   OH240083   6.061   6.620  12.723  0.4061 -0.0739 -0.0944
 6223TIP3    H140084   5.998   6.590  12.657  0.0064  0.4350  0.0459
 6223TIP3    H240085   6.047   6.714  12.728  2.2714  0.2943 -1.1863
 6224TIP3   OH240086   5.334   5.939   3.658 -1.1614 -0.5771  0.5216
 6224TIP3    H140087   5.269   5.882   3.698 -2.1912 -0.8379 -1.4055
 6224TIP3    H240088   5.284   6.015   3.627 -0.0747  0.5914  1.5359
 6225TIP3   OH240089   6.012   0.098  12.766 -0.0377 -0.4718  0.5481
 6225TIP3    H140090   6.058   0.176  12.734 -0.1350 -0.3428  0.7151
 6225TIP3    H240091   5.925   0.104  12.727  0.3513 -1.1704 -0.4596
 6226TIP3   OH240092   0.215   2.349   3.306  0.2872 -0.2901 -0.4108
 6226TIP3    H140093   0.183   2.379   3.391  0.2767 -3.2743  0.7724
 6226TIP3    H240094   0.290   2.405   3.287 -1.5730  2.5307 -0.0568
 6227TIP3   OH240095   3.313   0.082  14.122 -0.0071 -0.7047 -0.1921
 6227TIP3    H140096   3.321   0.155  14.060 -0.5285  0.9640  1.6259
 6227TIP3    H240097   3.398   0.078  14.166 -0.4838 -0.1714  0.7913
 6228TIP3   OH240098   6.186   4.850  16.566  0.4944 -0.7010  0.3148
 6228TIP3    H140099   6.248   4.901  16.514 -0.4608 -1.1131 -1.3388
 6228TIP3    H240100   6.127   4.812  16.500 -0.2453 -1.9861  1.6687
 6229TIP3   OH240101   0.336   6.457   4.956 -0.2248  0.4478 -0.2358
 6229TIP3    H140102   0.346   6.470   5.051 -0.0168 -2.1129  0.1798
 6229TIP3    H240103   0.241   6.459   4.942 -0.2763  0.4743  0.1067
 6230TIP3   OH240104   4.038   6.018  16.367 -0.0742  0.4815  0.5377
 6230TIP3    H140105   4.029   6.099  16.417 -0.2744  1.1732 -0.5877
 6230TIP3    H240106   4.128   6.018  16.336 -0.5621  1.2196 -0.9916
 6231TIP3   OH240107   6.771   2.672   3.967 -0.3186 -1.0947 -0.9561
 6231TIP3    H140108   6.705   2.741   3.972 -0.0453 -0.9484  1.4111
 6231TIP3    H240109   6.720   2.592   3.952 -1.5555 -1.4822  3.8443
 6232TIP3   OH240110   4.222   4.815  14.871 -0.0488  0.0678 -0.7324
 6232TIP3    H140111   4.246   4.844  14.783  1.1632 -3.7444 -1.8603
 6232TIP3    H240112   4.127   4.805  14.868 -0.1728  1.2276 -1.1294
 6233TIP3   OH240113   6.439   0.106   2.198 -0.3836 -0.2574 -0.4865
 6233TIP3    H140114   6.504   0.073   2.136 -1.3720 -0.8307 -1.2697
 6233TIP3    H240115   6.459   0.198   2.209  1.8528 -0.8467  0.9668
 6234TIP3   OH240116   1.556   6.343   2.053  0.6533  0.2559  0.7516
 6234TIP3    H140117   1.486   6.405   2.035 -0.4233 -0.8840  0.8556
 6234TIP3    H240118   1.636   6.394   2.044 -0.1870  1.6555  0.8736
 6235TIP3   OH240119   1.760   1.841  13.799 -0.4198  0.3353  0.0922
 6235TIP3    H140120   1.772   1.905  13.730  0.2472 -1.1397 -1.2197
 6235TIP3    H240121   1.832   1.858  13.860  0.7469 -0.2014 -1.0995
 6236TIP3   OH240122   1.251   6.418  10.917  0.4527  0.0242  0.4522
 6236TIP3    H140123   1.223   6.502  10.882  0.2763 -0.1021  0.2882
 6236TIP3    H240124   1.347   6.419  10.908  0.6769  1.1187  2.4891
 6237TIP3   OH240125   0.376   0.849  12.112  0.2200 -0.4034  0.3470
 6237TIP3    H140126   0.361   0.782  12.045 -0.3009 -0.1247  0.1788
 6237TIP3    H240127   0.438   0.809  12.172  1.6941 -0.2189 -0.9729
 6238TIP3   OH240128   3.538   5.289   0.303  0.5383 -0.4573 -0.6286
 6238TIP3    H140129   3.578   5.336   0.230 -2.9592 -0.7110 -2.9055
 6238TIP3    H240130   3.463   5.342   0.328  1.7184 -0.2398  3.1335
 6239TIP3   OH240131   1.222   5.144  15.822  0.5970  1.0730  0.0629
 6239TIP3    H140132   1.286   5.116  15.888 -0.1785 -0.3011  0.2592
 6239TIP3    H240133   1.143   5.166  15.873  0.3934  1.2152 -0.3111
 6240TIP3   OH240134   5.990   2.416  12.235  0.4585 -0.6596  0.0270
 6240TIP3    H140135   6.082   2.397  12.250  0.9622  0.4978 -1.3779
 6240TIP3    H240136   5.974   2.389  12.145  0.8242  3.6417 -1.5624
 6241TIP3   OH240137   2.827   0.415  13.578 -0.0044  0.1318 -0.3511
 6241TIP3    H140138   2.881   0.488  13.547  1.4387 -0.2023  1.2253
 6241TIP3    H240139   2.796   0.373  13.497  1.4679  0.8074 -1.3187
 6242TIP3   OH240140   4.959   5.035   3.159 -0.1035  0.0473  0.0564
 6242TIP3    H140141   5.038   4.983   3.171 -1.0581 -2.1328 -2.1608
 6242TIP3    H240142   4.890   4.984   3.200 -0.3919  2.2580  2.5859
 6243TIP3   OH240143   0.345   0.796  13.689 -0.2859  0.5463  0.2459
 6243TIP3    H140144   0.324   0.707  13.661  1.6684 -0.4092  1.6164
 6243TIP3    H240145   0.438   0.805  13.671  0.1741  1.2832  2.6636
 6244TIP3   OH240146   4.337   1.519   4.085  0.2100 -0.4812  0.4765
 6244TIP3    H140147   4.418   1.510   4.036  0.1297  0.4198  0.1544
 6244TIP3    H240148   4.365   1.529   4.176  0.6798  2.4173  0.1206
 6245TIP3   OH240149   1.774   2.630  16.120  0.3279  0.0424 -0.2542
 6245TIP3    H140150   1.813   2.695  16.179  0.9502  0.6905 -1.3497
 6245TIP3    H240151   1.776   2.671  16.034 -2.7737  0.0909 -0.4076
 6246TIP3   OH240152   6.626   6.014  12.389  0.2328  0.1454 -0.0718
 6246TIP3    H140153   6.669   6.002  12.304 -2.0947 -0.8272 -1.2355
 6246TIP3    H240154   6.582   6.099  12.382 -0.6687 -0.3155 -0.2272
 6247TIP3   OH240155   3.851   3.566  11.471  0.4296 -0.4980  0.3562
 6247TIP3    H140156   3.778   3.533  11.523 -1.7331  1.1533 -1.4262
 6247TIP3    H240157   3.869   3.653  11.507  0.3438 -0.2136 -0.2606
 6248TIP3   OH240158   5.167   5.959   3.057 -0.3306 -0.0585  0.0605
 6248TIP3    H140159   5.182   6.052   3.073  0.0140 -0.1534  0.3153
 6248TIP3    H240160   5.237   5.933   2.997 -0.2421 -0.2183  0.2285
 6249TIP3   OH240161   3.410   5.533  13.526  0.5583 -0.6814 -0.8057
 6249TIP3    H140162   3.432   5.517  13.434  0.4725 -2.1790 -0.5906
 6249TIP3    H240163   3.337   5.475  13.543  0.0252  0.2030  0.0010
 6250TIP3   OH240164   4.740   0.253   0.875  0.0624  0.2995  0.1333
 6250TIP3    H140165   4.822   0.242   0.826 -1.1863 -1.6162 -1.6708
 6250TIP3    H240166   4.707   0.339   0.847 -0.9530 -1.0138 -3.1107
 6251TIP3   OH240167   1.633   4.863   4.122 -0.2884 -0.5972  0.1920
 6251TIP3    H140168   1.616   4.947   4.081  0.7613 -1.0906 -1.3450
 6251TIP3    H240169   1.726   4.848   4.109 -0.1479 -1.3215  1.7880
 6252TIP3   OH240170   6.732   5.850  17.229  0.1676  0.2973  0.5190
 6252TIP3    H140171   6.671   5.857  17.302 -1.9613 -1.0047 -1.0021
 6252TIP3    H240172   6.706   5.921  17.170  0.2012 -0.1814 -0.0784
 6253TIP3   OH240173   3.636   0.822  12.660  0.1687 -0.3454 -0.5620
 6253TIP3    H140174   3.553   0.854  12.626 -2.0361 -2.5189  2.2454
 6253TIP3    H240175   3.636   0.729  12.640  2.0747 -0.3501 -0.7046
 6254TIP3   OH240176   3.663   0.271  14.010  0.6155  0.1746 -0.0292
 6254TIP3    H140177   3.753   0.298  14.030  0.4596  0.3502  0.4536
 6254TIP3    H240178   3.669   0.177  13.994  0.8148  0.0905  0.4936
 6255TIP3   OH240179   1.190   2.333  15.000  0.1239  0.1873 -0.1477
 6255TIP3    H140180   1.283   2.314  14.994  0.1265 -0.0609  0.5426
 6255TIP3    H240181   1.162   2.290  15.081 -0.0768  2.2241  0.9269
 6256TIP3   OH240182   5.806   5.112  15.947  0.2896 -0.7520 -0.3325
 6256TIP3    H140183   5.879   5.055  15.923  0.7584  0.0748 -0.9395
 6256TIP3    H240184   5.820   5.132  16.039  1.5096  0.3362 -0.7289
 6257TIP3   OH240185   1.695   2.994   2.656  0.7776  0.4205  0.1110
 6257TIP3    H140186   1.743   3.074   2.677  0.9674  0.0967  0.9545
 6257TIP3    H240187   1.759   2.924   2.668  0.1834  0.0093  0.9794
 6258TIP3   OH240188   3.659   2.084  13.777  0.0325 -0.6517 -0.7820
 6258TIP3    H140189   3.626   2.112  13.692 -1.3840 -1.6830 -0.6240
 6258TIP3    H240190   3.683   1.992  13.765  0.0242 -0.7503 -0.1252
 6259TIP3   OH240191   2.870   4.825  14.310 -0.1885 -0.2781 -0.3491
 6259TIP3    H140192   2.906   4.907  14.275  0.8489 -0.5429  0.0849
 6259TIP3    H240193   2.946   4.772  14.330 -0.8168 -0.7990  0.7334
 6260TIP3   OH240194   0.100   3.868   0.838 -0.5185 -0.0733 -0.5900
 6260TIP3    H140195   0.043   3.867   0.761 -1.5605  1.1440  0.1287
 6260TIP3    H240196   0.138   3.955   0.839 -0.1464 -0.2353  0.0293
 6261TIP3   OH240197   3.707   3.389  12.337  0.1687 -0.7584  0.0153
 6261TIP3    H140198   3.754   3.378  12.255  0.0935 -1.1817  0.0265
 6261TIP3    H240199   3.671   3.478  12.333  0.2147 -0.7579 -0.3811
 6262TIP3   OH240200   2.424   1.434  15.110 -0.0742 -0.2671  1.0088
 6262TIP3    H140201   2.441   1.388  15.028 -1.9283  0.0602  0.3891
 6262TIP3    H240202   2.500   1.415  15.165  1.5955  0.1209 -1.0354
 6263TIP3   OH240203   1.830   4.112   4.049 -0.0255 -0.2693 -0.6581
 6263TIP3    H140204   1.736   4.098   4.039 -0.1877 -0.7584  1.1968
 6263TIP3    H240205   1.838   4.195   4.095  0.3895 -0.7826  0.2192
 6264TIP3   OH240206   6.120   5.157   1.113 -0.8189 -0.1593 -0.2001
 6264TIP3    H140207   6.062   5.232   1.128 -0.4833  0.0785 -0.0710
 6264TIP3    H240208   6.061   5.083   1.102 -1.1421  0.0304  0.2229
 6265TIP3   OH240209   0.505   0.646   0.808  0.5371  0.2198 -0.3694
 6265TIP3    H140210   0.545   0.603   0.733 -0.4055  1.6409 -1.7533
 6265TIP3    H240211   0.575   0.698   0.846  0.7797  0.2882 -0.8986
 6266TIP3   OH240212   5.106   3.084   5.325  0.6484 -0.0329  0.1611
 6266TIP3    H140213   5.093   3.179   5.329 -4.5366 -0.3606 -0.8806
 6266TIP3    H240214   5.118   3.058   5.416  0.4953  1.5073  0.6564
 6267TIP3   OH240215   1.826   5.470  11.807 -0.1319  0.0329  0.6427
 6267TIP3    H140216   1.784   5.534  11.750 -0.4705 -1.3488 -0.7326
 6267TIP3    H240217   1.757   5.442  11.867 -0.7905 -1.0352 -0.5592
 6268TIP3   OH240218   3.384   5.782  12.707 -0.2113 -0.0271  0.3177
 6268TIP3    H140219   3.409   5.697  12.742 -0.7706  0.3801  1.7986
 6268TIP3    H240220   3.445   5.797  12.634 -0.3448 -1.8284 -0.2057
 6269TIP3   OH240221   0.746   4.365   2.978 -0.0437  0.3867 -0.4339
 6269TIP3    H140222   0.804   4.441   2.981  1.8282 -0.9875  2.3541
 6269TIP3    H240223   0.666   4.393   3.024  0.4984  0.7862  0.2773
 6270TIP3   OH240224   5.012   0.300  12.281 -0.2420  0.0134  0.4189
 6270TIP3    H140225   5.063   0.300  12.201 -0.1651  0.5086  0.4604
 6270TIP3    H240226   4.968   0.215  12.283 -0.5597  0.1505 -0.3528
 6271TIP3   OH240227   3.550   3.250   1.639 -0.1949  0.5833  0.2839
 6271TIP3    H140228   3.466   3.259   1.594 -0.4566 -0.4894  0.5279
 6271TIP3    H240229   3.533   3.187   1.709  0.6732  0.7975  0.7012
 6272TIP3   OH240230   6.420   4.063   4.728 -0.2480 -0.2476 -0.4669
 6272TIP3    H140231   6.504   4.041   4.687 -1.0321 -3.6418 -0.5460
 6272TIP3    H240232   6.356   4.051   4.658 -0.9397  1.0568 -0.0739
 6273TIP3   OH240233   1.410   0.189   3.373  0.1201 -0.6192 -0.3186
 6273TIP3    H140234   1.395   0.275   3.336 -1.7182 -0.9974 -0.5768
 6273TIP3    H240235   1.400   0.128   3.299 -0.4128 -1.1587  0.1808
 6274TIP3   OH240236   4.725   0.144   5.718  0.7012 -0.0447  0.4542
 6274TIP3    H140237   4.777   0.076   5.761 -1.0139 -2.1054 -0.5343
 6274TIP3    H240238   4.641   0.102   5.699 -0.6165  2.5134  0.1585
 6275TIP3   OH240239   1.638   0.371  13.157  0.5445 -0.0744 -0.3735
 6275TIP3    H140240   1.719   0.376  13.105  0.6927  0.7975 -0.0706
 6275TIP3    H240241   1.667   0.359  13.247  0.4011  1.4092 -0.0970
 6276TIP3   OH240242   3.722   1.705  10.427  0.0561  0.3335 -0.1641
 6276TIP3    H140243   3.633   1.713  10.394  0.0628 -0.4044 -0.3741
 6276TIP3    H240244   3.726   1.767  10.500 -0.4578  0.7694 -0.5035
 6277TIP3   OH240245   1.985   5.414   5.558  0.4841 -0.7647  0.1385
 6277TIP3    H140246   2.060   5.438   5.505 -0.3061  0.8158 -0.3299
 6277TIP3    H240247   1.912   5.463   5.520 -0.4565 -0.9595  1.5950
 6278TIP3   OH240248   6.651   1.950   1.687 -0.0608  0.2191  0.0516
 6278TIP3    H140249   6.743   1.923   1.679 -0.4407 -1.0679 -0.1608
 6278TIP3    H240250   6.637   1.961   1.781  0.9976  3.0590 -0.0129
 6279TIP3   OH240251   0.413   4.291  16.841  0.1117  0.2322 -0.1792
 6279TIP3    H140252   0.377   4.375  16.812 -0.6759 -0.3915 -1.0508
 6279TIP3    H240253   0.363   4.270  16.920 -1.6055 -0.6994 -1.4627
 6280TIP3   OH240254   2.299   5.785  15.769 -0.1362 -0.4242  0.0636
 6280TIP3    H140255   2.234   5.739  15.822  0.6336 -0.1537  1.2683
 6280TIP3    H240256   2.382   5.773  15.816  0.1721  1.7785  0.2030
 6281TIP3   OH240257   3.278   3.977  12.339  0.0277 -0.3168  0.8172
 6281TIP3    H140258   3.187   3.964  12.312  0.5678 -1.0615 -0.7309
 6281TIP3    H240259   3.329   3.964  12.260  1.5173 -0.1821  1.7175
 6282TIP3   OH240260   3.625   5.225   0.852 -0.3415 -0.1012  0.2707
 6282TIP3    H140261   3.586   5.307   0.825  0.1826  0.0984  0.1145
 6282TIP3    H240262   3.606   5.164   0.781  0.7867  0.3459 -0.4391
 6283TIP3   OH240263   0.739   3.149   2.167  0.5645 -0.2458  0.6838
 6283TIP3    H140264   0.665   3.148   2.106 -1.3298  0.8524  2.8067
 6283TIP3    H240265   0.718   3.082   2.232  1.1369  0.4436  1.6095
 6284TIP3   OH240266   3.925   0.143   2.744 -0.3439 -0.2332 -0.2808
 6284TIP3    H140267   3.990   0.201   2.705 -0.1752 -2.5413 -3.8900
 6284TIP3    H240268   3.970   0.101   2.817  0.7541  1.2057 -0.0747
 6285TIP3   OH240269   0.431   4.500   0.910  0.1478 -0.0543  0.2735
 6285TIP3    H140270   0.388   4.544   0.983  1.5414  1.7810  0.0505
 6285TIP3    H240271   0.482   4.430   0.950 -2.7820 -2.2108  0.5613
 6286TIP3   OH240272   4.469   2.779  14.330 -0.4675  0.2246 -0.1130
 6286TIP3    H140273   4.540   2.716  14.343 -0.6747  0.0587  0.2283
 6286TIP3    H240274   4.499   2.835  14.259 -0.4113 -0.4489 -0.6222
 6287TIP3   OH240275   3.528   5.184   4.655 -0.4391 -0.3231  0.0478
 6287TIP3    H140276   3.505   5.239   4.730 -1.1703  0.1804 -0.5412
 6287TIP3    H240277   3.610   5.142   4.681 -1.1622 -0.8950  1.5283
 6288TIP3   OH240278   3.880   3.537  15.717  0.4468 -0.0175 -0.3767
 6288TIP3    H140279   3.858   3.493  15.635  1.1923  0.4299 -0.8337
 6288TIP3    H240280   3.855   3.475  15.786  0.2960 -0.6107 -0.9577
 6289TIP3   OH240281   0.995   2.032   1.940 -0.9185  0.1964 -0.0844
 6289TIP3    H140282   1.044   1.962   1.897 -0.1222 -0.2664  1.4667
 6289TIP3    H240283   1.063   2.094   1.969 -1.3394  0.2007  0.9550
 6290TIP3   OH240284   1.760   0.346  13.396  0.5983 -0.6082 -0.8594
 6290TIP3    H140285   1.809   0.294  13.333 -0.1785 -0.4256 -1.6373
 6290TIP3    H240286   1.824   0.369  13.463  1.4558 -0.7946 -1.5885
 6291TIP3   OH240287   6.204   2.961  13.681  0.1218 -0.1579 -0.6035
 6291TIP3    H140288   6.224   2.949  13.774 -1.4489 -2.5122 -0.4707
 6291TIP3    H240289   6.258   3.035  13.654  2.5172 -0.9710  1.5596
 6292TIP3   OH240290   2.103   5.540   3.940 -0.2343 -0.5973  0.1362
 6292TIP3    H140291   2.023   5.589   3.919  0.4726  0.0088 -1.3019
 6292TIP3    H240292   2.140   5.518   3.854  0.9039 -1.2755  0.7781
 6293TIP3   OH240293   4.377   1.771   3.206 -0.3233 -0.6814 -0.1598
 6293TIP3    H140294   4.445   1.787   3.141 -0.5718 -0.6218 -0.4047
 6293TIP3    H240295   4.398   1.685   3.242 -0.5496 -0.9970 -0.7722
 6294TIP3   OH240296   3.819   0.837  15.238 -0.2925  0.0298 -0.4197
 6294TIP3    H140297   3.909   0.869  15.237 -0.1476 -0.3767 -0.6100
 6294TIP3    H240298   3.766   0.910  15.205  0.0032  0.1473 -0.6272
 6295TIP3   OH240299   3.047   3.910  12.999  0.4229 -0.3094 -0.1579
 6295TIP3    H140300   3.046   3.815  12.998  0.8350 -0.3176  0.0491
 6295TIP3    H240301   3.139   3.934  12.990  0.3436  0.0646 -0.0144
 6296TIP3   OH240302   5.992   6.551  13.071 -0.2390 -0.7148  0.1228
 6296TIP3    H140303   5.985   6.484  13.138 -1.9012 -0.2701  0.4212
 6296TIP3    H240304   6.075   6.532  13.027 -0.5267 -2.7983  0.3774
 6297TIP3   OH240305   0.896   2.572   3.461 -0.1923  0.3495  0.4629
 6297TIP3    H140306   0.892   2.657   3.416 -0.5991  0.6859  1.1225
 6297TIP3    H240307   0.946   2.516   3.401 -1.5451  0.5079 -0.8862
 6298TIP3   OH240308   0.336   0.463  12.502  0.0895 -0.0249 -0.2046
 6298TIP3    H140309   0.253   0.463  12.549  0.1642 -1.0362 -0.0535
 6298TIP3    H240310   0.402   0.469  12.571  0.1671 -0.2796 -0.2556
 6299TIP3   OH240311   5.535   5.760  15.977 -0.3350 -0.2465 -0.4023
 6299TIP3    H140312   5.517   5.815  15.900  0.1286 -0.6748 -0.8233
 6299TIP3    H240313   5.570   5.679  15.941  1.6158  0.2177  0.3222
 6300TIP3   OH240314   5.356   3.839  15.940  0.1178  0.3264  0.1061
 6300TIP3    H140315   5.425   3.901  15.916  0.3266 -0.0985 -0.4025
 6300TIP3    H240316   5.373   3.818  16.032 -0.0387  1.1309  0.3240
 6301TIP3   OH240317   4.337   2.683  17.120  0.4206  0.4099 -0.0655
 6301TIP3    H140318   4.410   2.706  17.177  0.4866  0.3743 -0.1346
 6301TIP3    H240319   4.379   2.653  17.039  0.3540 -0.4939  0.2251
 6302TIP3   OH240320   3.953   4.053  13.538  0.2047 -0.2743 -0.4087
 6302TIP3    H140321   3.878   4.058  13.479  0.4741 -0.7020 -0.7942
 6302TIP3    H240322   4.029   4.069  13.482  0.5201 -1.4409 -0.3334
 6303TIP3   OH240323   4.156   6.430  11.751 -0.4456 -0.3839 -0.2524
 6303TIP3    H140324   4.086   6.487  11.782  0.6940  0.6472  0.4888
 6303TIP3    H240325   4.123   6.395  11.668 -2.5412 -1.2955  0.8906
 6304TIP3   OH240326   4.153   0.509  11.790 -0.5261  0.4791 -0.0328
 6304TIP3    H140327   4.247   0.494  11.781 -0.5769 -1.0740  1.5083
 6304TIP3    H240328   4.115   0.461  11.716 -0.1351  0.8989 -0.5153
 6305TIP3   OH240329   3.148   1.598  10.698  0.0725  0.4617 -0.3218
 6305TIP3    H140330   3.204   1.664  10.739  0.3828 -1.2030  2.1631
 6305TIP3    H240331   3.060   1.619  10.730 -0.0961  0.6157 -0.8708
 6306TIP3   OH240332   1.676   0.176   2.842  0.9722 -0.5562  0.1009
 6306TIP3    H140333   1.642   0.219   2.764  1.0329  0.3895  0.5908
 6306TIP3    H240334   1.713   0.094   2.809 -1.6943 -1.6230 -0.4431
 6307TIP3   OH240335   5.285   3.661  14.804  0.3392 -0.1747 -0.2561
 6307TIP3    H140336   5.262   3.572  14.775 -0.4788 -0.0023 -0.1570
 6307TIP3    H240337   5.202   3.709  14.802  0.8305  0.6863 -0.6371
 6308TIP3   OH240338   4.209   3.036   4.459  0.0189  0.5069 -0.2582
 6308TIP3    H140339   4.238   2.963   4.514  0.1163  0.1429 -0.7870
 6308TIP3    H240340   4.120   3.012   4.434  0.2794  0.2553 -0.9582
 6309TIP3   OH240341   4.985   6.519   3.508 -0.0487  0.1305 -0.3329
 6309TIP3    H140342   4.979   6.566   3.425 -1.4789  0.0270 -0.3116
 6309TIP3    H240343   5.000   6.588   3.573  1.3245  0.1876 -0.6743
 6310TIP3   OH240344   0.004   5.950  12.151 -0.2595 -0.0483 -0.2814
 6310TIP3    H140345  -0.026   6.019  12.093  0.8229  0.0605 -0.7342
 6310TIP3    H240346  -0.008   5.869  12.102  0.7195  0.0498 -0.7093
 6311TIP3   OH240347   0.196   0.455  11.384 -0.3298 -0.2263  0.1212
 6311TIP3    H140348   0.178   0.438  11.291  0.6211  0.1014 -0.1349
 6311TIP3    H240349   0.124   0.412  11.431  0.1572 -1.9941 -0.6740
 6312TIP3   OH240350   2.841   2.773   0.774 -0.3448  0.3940 -0.7581
 6312TIP3    H140351   2.919   2.719   0.775  0.3257  1.3350 -0.5211
 6312TIP3    H240352   2.867   2.852   0.726 -0.8691  1.0984  0.0819
 6313TIP3   OH240353   1.093   4.503   5.450  0.5003 -0.1049  0.1003
 6313TIP3    H140354   1.156   4.515   5.521 -0.4367 -0.0639  0.9361
 6313TIP3    H240355   1.007   4.515   5.491 -0.1191 -1.4414 -0.7426
 6314TIP3   OH240356   1.853   6.408  12.265  0.1785 -0.3431  0.3452
 6314TIP3    H140357   1.940   6.391  12.301 -0.3801 -1.4879  1.2357
 6314TIP3    H240358   1.843   6.343  12.195 -1.3340 -2.8276  2.6808
 6315TIP3   OH240359   1.402   1.884  17.103 -0.3138  0.0692  0.0052
 6315TIP3    H140360   1.401   1.958  17.163 -2.8197  0.1190 -0.0013
 6315TIP3    H240361   1.311   1.856  17.098  0.0719 -0.9667 -2.5203
 6316TIP3   OH240362   5.951   1.456   4.546  0.0220 -0.4060  0.1997
 6316TIP3    H140363   5.981   1.491   4.461  1.0153 -0.3875  0.5458
 6316TIP3    H240364   5.886   1.520   4.576  1.2501  0.7766  0.4583
 6317TIP3   OH240365   2.094   2.781  11.381 -0.2747  0.0999 -0.4688
 6317TIP3    H140366   2.138   2.716  11.326 -0.1527  0.2850 -0.5909
 6317TIP3    H240367   2.002   2.777  11.352  0.0495  1.2855 -1.7916
 6318TIP3   OH240368   1.319   3.437  13.253  0.4350 -0.1781  0.1758
 6318TIP3    H140369   1.413   3.456  13.262  0.5121 -0.3040 -0.2801
 6318TIP3    H240370   1.315   3.341  13.256  0.3774 -0.1914 -0.2498
 6319TIP3   OH240371   3.777   0.431   4.859 -0.1713 -0.4958  0.1974
 6319TIP3    H140372   3.735   0.516   4.850  0.6434  0.1120  1.7125
 6319TIP3    H240373   3.862   0.441   4.815  0.8716  0.2491  2.2370
 6320TIP3   OH240374   2.148   1.764  12.639  0.4425 -0.6017 -0.2176
 6320TIP3    H140375   2.211   1.836  12.649  0.4117 -0.3092 -1.8764
 6320TIP3    H240376   2.165   1.729  12.551 -1.3866 -0.8230 -0.5155
 6321TIP3   OH240377   3.901   3.869   3.796 -0.0600  0.0290  0.0069
 6321TIP3    H140378   3.863   3.900   3.878 -2.2822 -0.4271 -0.7835
 6321TIP3    H240379   3.863   3.782   3.783 -0.7156  0.5637 -2.0549
 6322TIP3   OH240380   1.383   6.622   2.585  0.3556 -0.1549  0.8286
 6322TIP3    H140381   1.468   6.651   2.553 -0.0314  1.3746  1.1362
 6322TIP3    H240382   1.403   6.567   2.661  1.1869 -2.3904 -0.8757
 6323TIP3   OH240383   6.224   6.211   6.307  0.0437  0.1702  0.2399
 6323TIP3    H140384   6.307   6.212   6.354 -0.0361 -0.9748  0.4483
 6323TIP3    H240385   6.159   6.237   6.372  0.3612  2.4951 -0.2825
 6324TIP3   OH240386   2.373   4.017   2.715  0.2162  0.3529  0.1699
 6324TIP3    H140387   2.320   3.953   2.669  0.7160 -1.4865  2.0174
 6324TIP3    H240388   2.445   4.037   2.656 -0.6968  0.3212 -0.9870
 6325TIP3   OH240389   0.756   6.105  15.244 -0.3987  0.2509  0.9614
 6325TIP3    H140390   0.736   6.047  15.317  0.9186 -2.4941 -0.7164
 6325TIP3    H240391   0.841   6.143  15.267  0.0922 -0.7293  0.8294
 6326TIP3   OH240392   3.231   4.427  15.249 -0.8802  0.3923  0.2394
 6326TIP3    H140393   3.263   4.354  15.195 -1.3549  0.6984 -0.4737
 6326TIP3    H240394   3.140   4.405  15.267 -1.1860  1.0492 -0.4349
 6327TIP3   OH240395   6.664   1.250  16.633  0.0938 -0.2693  0.2852
 6327TIP3    H140396   6.749   1.293  16.624  0.4774 -1.1525 -0.4344
 6327TIP3    H240397   6.610   1.314  16.680  0.5088  1.1895 -1.1237
 6328TIP3   OH240398   1.370   4.492  15.053 -0.4750  0.7549 -0.2880
 6328TIP3    H140399   1.443   4.439  15.022 -0.1531  2.1731 -2.1629
 6328TIP3    H240400   1.292   4.451  15.017 -0.7258 -0.9386  1.9678
 6329TIP3   OH240401   2.160   0.934   5.253  0.0988 -0.0115 -0.2280
 6329TIP3    H140402   2.141   1.026   5.269  0.2560  0.2010 -1.1975
 6329TIP3    H240403   2.199   0.932   5.166  1.1782 -0.8690  0.2542
 6330TIP3   OH240404   3.044   3.946   5.085 -0.3783  0.7306  0.0908
 6330TIP3    H140405   3.034   3.857   5.051 -0.1792  0.6490  0.2517
 6330TIP3    H240406   3.019   3.940   5.177 -0.2272  0.8147  0.1371
 6331TIP3   OH240407   1.864   4.537   4.930 -0.1874 -0.2966 -0.0989
 6331TIP3    H140408   1.796   4.572   4.987 -1.2467 -0.1979 -1.3880
 6331TIP3    H240409   1.941   4.528   4.987 -1.3998 -0.9024  1.4971
 6332TIP3   OH240410   3.835   1.303  17.044 -0.3218 -0.1315  0.0507
 6332TIP3    H140411   3.828   1.309  16.949 -1.8594  0.8538  0.1990
 6332TIP3    H240412   3.917   1.256  17.059  0.3009  0.3205 -1.7358
 6333TIP3   OH240413   4.668   5.792  16.604 -0.4687 -0.3820 -0.5542
 6333TIP3    H140414   4.737   5.848  16.569  1.2770 -1.6915  0.6774
 6333TIP3    H240415   4.663   5.815  16.697 -2.0528  0.0202 -0.7058
 6334TIP3   OH240416   3.557   5.465  16.191  1.0119 -0.6847 -0.1222
 6334TIP3    H140417   3.511   5.504  16.265  2.2173 -0.4626  0.5277
 6334TIP3    H240418   3.497   5.477  16.117  0.7527  1.1387  0.3461
 6335TIP3   OH240419   4.549   3.673  10.961  0.3695  0.4131 -0.2778
 6335TIP3    H140420   4.510   3.758  10.944  1.0957  0.6426 -0.8272
 6335TIP3    H240421   4.506   3.613  10.900 -2.1074 -0.2016  1.9199
 6336TIP3   OH240422   2.077   3.893  14.432 -0.1550 -0.2220 -0.1175
 6336TIP3    H140423   2.076   3.875  14.526  0.1342  0.2282 -0.0254
 6336TIP3    H240424   2.062   3.808  14.391  0.3732 -0.5290  0.3203
 6337TIP3   OH240425   4.184   4.889   1.023  0.6717 -0.4425 -0.3918
 6337TIP3    H140426   4.101   4.854   0.991  1.0386 -0.2370 -1.6371
 6337TIP3    H240427   4.246   4.870   0.953  1.2450  1.1691 -0.3554
 6338TIP3   OH240428   0.292   0.268  15.198  0.0813  0.3334  0.6267
 6338TIP3    H140429   0.239   0.188  15.208 -0.8687  0.9545  0.6463
 6338TIP3    H240430   0.379   0.236  15.172 -0.3132 -0.7023  0.5365
 6339TIP3   OH240431   0.466   1.846  15.381  0.0067  0.1948 -0.4220
 6339TIP3    H140432   0.459   1.756  15.350 -0.3989 -0.7017  2.0829
 6339TIP3    H240433   0.377   1.880  15.379  0.1008  0.4184 -0.9817
 6340TIP3   OH240434   6.173   5.685  11.669  0.3595  0.8057  0.2303
 6340TIP3    H140435   6.185   5.673  11.574 -0.0439 -0.4895  0.3185
 6340TIP3    H240436   6.185   5.779  11.683 -1.1207  1.2908 -1.3439
 6341TIP3   OH240437   0.284   0.826   5.227 -0.2926 -0.3027  0.2120
 6341TIP3    H140438   0.283   0.732   5.241 -2.1367 -0.6104 -1.4338
 6341TIP3    H240439   0.293   0.836   5.132 -2.8162  1.0376  0.0250
 6342TIP3   OH240440   4.816   5.245  14.076  0.0485 -0.1822  0.0469
 6342TIP3    H140441   4.726   5.278  14.076 -0.7831 -2.2864 -0.3700
 6342TIP3    H240442   4.825   5.200  13.992  1.3111 -0.5200  0.3484
 6343TIP3   OH240443   1.187   6.766   6.003 -0.1361  0.0316  0.1860
 6343TIP3    H140444   1.119   6.795   5.942  0.5782  0.3877 -0.4484
 6343TIP3    H240445   1.152   6.685   6.041 -0.2876 -0.6054 -1.2390
 6344TIP3   OH240446   1.800   1.879   3.455 -0.4931  0.1943  0.6296
 6344TIP3    H140447   1.730   1.881   3.521 -0.6747 -1.1624  0.5188
 6344TIP3    H240448   1.854   1.804   3.480 -1.8653 -1.8375 -2.0001
 6345TIP3   OH240449   0.481   4.843  15.820 -0.2377  0.2049  0.3872
 6345TIP3    H140450   0.552   4.832  15.883 -0.0163 -1.5779 -0.1283
 6345TIP3    H240451   0.525   4.864  15.738 -0.3503  0.0139  0.2762
 6346TIP3   OH240452   5.056   2.357  11.446  0.3087  0.1218 -0.2315
 6346TIP3    H140453   5.064   2.368  11.541 -0.7115  0.8581 -0.2131
 6346TIP3    H240454   5.146   2.347  11.416  0.5494 -1.9550  1.0016
 6347TIP3   OH240455   0.518   0.154  14.077  0.6005  0.1817  0.6387
 6347TIP3    H140456   0.581   0.226  14.080 -0.1421  0.8969 -0.1621
 6347TIP3    H240457   0.555   0.087  14.134  1.3201  1.1928  1.3927
 6348TIP3   OH240458   1.618   4.709  13.243 -0.6315 -0.0780  0.2833
 6348TIP3    H140459   1.558   4.637  13.226  0.3735 -0.6799 -0.8146
 6348TIP3    H240460   1.619   4.759  13.162 -1.4653  1.3157  1.0918
 6349TIP3   OH240461   0.756   1.867   4.185 -0.3124  0.1792 -0.0426
 6349TIP3    H140462   0.784   1.924   4.113 -2.7239 -0.3563 -1.5449
 6349TIP3    H240463   0.671   1.902   4.211  0.2465 -0.0051  2.2181
 6350TIP3   OH240464   1.851   3.434  14.189 -0.1013 -0.5890 -0.4210
 6350TIP3    H140465   1.800   3.362  14.226  0.2708 -0.4662  0.3338
 6350TIP3    H240466   1.942   3.412  14.210  0.0058  0.1471 -0.1021
 6351TIP3   OH240467   0.458   1.192  12.400 -0.5188  0.5317 -0.0932
 6351TIP3    H140468   0.410   1.116  12.432  0.1821  1.2261  2.9943
 6351TIP3    H240469   0.549   1.174  12.424 -0.0679  1.5817 -0.9337
 6352TIP3   OH240470   0.704   4.690  13.440 -0.4020  0.3738  0.3086
 6352TIP3    H140471   0.665   4.606  13.462  0.7788 -0.3993 -0.4532
 6352TIP3    H240472   0.791   4.669  13.406 -1.1927  1.6092 -2.8293
 6353TIP3   OH240473   2.324   3.219  17.097 -0.2124  0.1413  0.0683
 6353TIP3    H140474   2.342   3.238  17.189  1.6845 -2.0910  0.2538
 6353TIP3    H240475   2.374   3.285  17.049 -2.0670  2.0061  0.5288
 6354TIP3   OH240476   0.833   0.291   0.328  0.2511  0.9311 -0.1225
 6354TIP3    H140477   0.816   0.199   0.352 -1.4832  0.9636 -1.0986
 6354TIP3    H240478   0.870   0.329   0.407 -0.0966 -0.3294  0.6828
 6355TIP3   OH240479   1.031   5.746  14.780 -0.7217 -0.0888 -0.1535
 6355TIP3    H140480   0.947   5.785  14.802 -2.0256 -0.6242 -3.5995
 6355TIP3    H240481   1.077   5.738  14.864 -3.4301  1.6709  1.6353
 6356TIP3   OH240482   2.715   4.671   1.196  0.1395 -0.8715  0.7146
 6356TIP3    H140483   2.704   4.755   1.151 -4.1247 -1.7086 -0.2447
 6356TIP3    H240484   2.757   4.614   1.132 -2.2029 -0.9385 -0.8692
 6357TIP3   OH240485   3.973   0.077  16.423 -0.1105  0.1258  0.5973
 6357TIP3    H140486   4.051   0.128  16.443  2.1137 -2.9838  0.4539
 6357TIP3    H240487   3.989   0.040  16.337 -2.5775  0.7598 -0.2078
 6358TIP3   OH240488   1.949   0.970  13.639 -0.2374  0.1080  0.6355
 6358TIP3    H140489   1.885   1.006  13.577  0.4398  0.5724  0.1871
 6358TIP3    H240490   1.978   1.045  13.690  1.1849  0.2422 -0.3060
 6359TIP3   OH240491   0.901   3.593   5.205  0.3779  0.2683  0.3460
 6359TIP3    H140492   0.992   3.571   5.187  0.4072  0.2434  0.5296
 6359TIP3    H240493   0.851   3.542   5.141  0.6055  2.0802 -1.4028
 6360TIP3   OH240494   3.565   4.802   5.479  0.1612 -0.5753 -0.3272
 6360TIP3    H140495   3.586   4.889   5.512 -2.0361 -0.7632  1.9012
 6360TIP3    H240496   3.500   4.818   5.410 -2.6817 -0.3811  2.1710
 6361TIP3   OH240497   3.461   2.365  14.844 -0.5702 -0.5136  0.1066
 6361TIP3    H140498   3.551   2.354  14.874 -0.0128 -0.7415 -1.5440
 6361TIP3    H240499   3.437   2.453  14.871  0.4505 -0.1465 -0.1490
 6362TIP3   OH240500   2.800   3.905   2.032 -0.4614 -0.2917  0.5391
 6362TIP3    H140501   2.857   3.960   2.086  0.2328  0.8195 -1.2510
 6362TIP3    H240502   2.858   3.868   1.966 -1.4141 -0.9901  0.0790
 6363TIP3   OH240503   4.647   3.422  11.166 -0.1925 -0.3382 -0.4441
 6363TIP3    H140504   4.560   3.391  11.140 -0.9037 -0.3812  1.7924
 6363TIP3    H240505   4.632   3.470  11.247  1.9068 -0.5038  0.0970
 6364TIP3   OH240506   3.423   3.933   5.928 -0.3094 -0.1054  0.1489
 6364TIP3    H140507   3.504   3.976   5.957 -1.6974  1.6017  1.7420
 6364TIP3    H240508   3.353   3.989   5.961 -2.1770 -1.0857 -1.8595
 6365TIP3   OH240509   1.797   5.847  14.985 -0.1212 -0.2832 -0.6865
 6365TIP3    H140510   1.743   5.799  15.048 -0.4002  0.0396 -0.6759
 6365TIP3    H240511   1.823   5.781  14.921 -1.0545 -0.3276 -1.0430
 6366TIP3   OH240512   3.150   3.348   1.098  0.5464  0.6151 -0.1937
 6366TIP3    H140513   3.208   3.272   1.094  1.0196  1.0058 -1.4418
 6366TIP3    H240514   3.080   3.322   1.157  1.7926 -0.0147  1.0620
 6367TIP3   OH240515   1.218   1.132  14.217  0.3377 -0.4046  0.1316
 6367TIP3    H140516   1.229   1.192  14.143 -0.7532  1.1693  1.1617
 6367TIP3    H240517   1.283   1.063  14.202  0.7031  0.2821 -1.8410
 6368TIP3   OH240518   0.318   1.045   4.269  0.1639 -0.4460  0.3888
 6368TIP3    H140519   0.264   1.118   4.240  0.1464 -0.5612  0.1345
 6368TIP3    H240520   0.382   1.033   4.199 -0.4929 -1.3665 -0.0775
 6369TIP3   OH240521   5.931   1.727   4.898 -0.4008 -0.0833 -0.0208
 6369TIP3    H140522   5.952   1.818   4.878 -0.4879 -0.4495 -2.0390
 6369TIP3    H240523   5.959   1.714   4.989  0.5856  1.6504 -0.0473
 6370TIP3   OH240524   0.104   3.609   5.890 -0.4628  0.6527 -0.2557
 6370TIP3    H140525   0.090   3.514   5.887 -1.6576  0.7647  0.9233
 6370TIP3    H240526   0.063   3.636   5.972  1.5306  1.9370  0.3754
 6371TIP3   OH240527   4.794   1.776  15.866 -0.3413 -0.6118 -0.7986
 6371TIP3    H140528   4.775   1.693  15.821  2.8475 -2.0596  0.2041
 6371TIP3    H240529   4.855   1.820  15.807  2.4390 -1.6991  1.0690
 6372TIP3   OH240530   5.745   3.964  14.006  0.4417  0.5602 -0.1117
 6372TIP3    H140531   5.707   3.883  14.040 -0.4167  0.4575 -1.2540
 6372TIP3    H240532   5.687   4.033  14.038  0.1091  0.5415 -0.6684
 6373TIP3   OH240533   1.065   2.031   2.285 -0.0489 -0.1734 -0.3094
 6373TIP3    H140534   1.098   2.073   2.206  2.9016  0.0775  0.9143
 6373TIP3    H240535   1.001   2.092   2.321  0.2057  0.7375 -1.3609
 6374TIP3   OH240536   3.703   2.986   2.260 -0.4741 -0.4675  0.0115
 6374TIP3    H140537   3.718   3.036   2.340 -1.1698  1.0677 -0.7889
 6374TIP3    H240538   3.637   2.921   2.285 -1.9507  1.0777  0.2936
 6375TIP3   OH240539   0.213   1.659   4.187 -0.2884 -0.3065 -0.4827
 6375TIP3    H140540   0.285   1.611   4.148  1.7534  0.6051  1.8597
 6375TIP3    H240541   0.218   1.746   4.147 -1.0798 -0.6851 -1.4215
 6376TIP3   OH240542   5.576   3.750   2.267  0.3929 -0.1090 -0.3884
 6376TIP3    H140543   5.490   3.726   2.302  0.6990 -1.0494 -0.2540
 6376TIP3    H240544   5.609   3.815   2.329  0.8520 -1.6239  1.0206
 6377TIP3   OH240545   3.587   0.987   4.908 -0.1887 -0.0077 -0.2771
 6377TIP3    H140546   3.545   1.055   4.856 -2.3187 -1.4757 -0.6104
 6377TIP3    H240547   3.680   1.009   4.905 -0.7396  2.6709 -0.6225
 6378TIP3   OH240548   5.008   1.562  16.748  0.3283 -0.0860  0.5614
 6378TIP3    H140549   4.933   1.585  16.802  0.3532 -0.4207  0.7445
 6378TIP3    H240550   5.081   1.553  16.810  1.1483  2.7427  0.1430
 6379TIP3   OH240551   1.645   3.904  12.429  0.1188 -0.3390 -0.3375
 6379TIP3    H140552   1.729   3.876  12.394  0.4420  0.0902  0.0725
 6379TIP3    H240553   1.661   3.994  12.459 -1.0501  0.5557 -2.2226
 6380TIP3   OH240554   2.672   4.666   2.500 -0.3693  0.5395  0.2980
 6380TIP3    H140555   2.624   4.626   2.429 -0.3664  4.2569 -2.0924
 6380TIP3    H240556   2.605   4.702   2.559 -0.7689  3.7030 -1.8223
 6381TIP3   OH240557   3.978   5.979   2.079  0.4659  0.0345  0.2553
 6381TIP3    H140558   3.963   5.886   2.062  0.5034 -0.4386  2.5113
 6381TIP3    H240559   4.036   5.981   2.155  2.9289  1.9218 -1.5007
 6382TIP3   OH240560   0.704   4.465   5.288  0.1959  0.4550 -0.7491
 6382TIP3    H140561   0.772   4.501   5.230  1.9813  1.0340  1.5330
 6382TIP3    H240562   0.665   4.542   5.330  0.0244  0.0052 -0.0583
 6383TIP3   OH240563   5.944   5.618  13.496  0.2740  0.3391  0.0170
 6383TIP3    H140564   5.866   5.672  13.482 -1.1159 -1.6176 -0.1951
 6383TIP3    H240565   6.011   5.680  13.525 -0.8796  2.3360 -1.3185
 6384TIP3   OH240566   3.905   4.382  16.578  0.2013  0.7348  0.0014
 6384TIP3    H140567   3.943   4.366  16.492 -0.6947  1.1472 -0.4819
 6384TIP3    H240568   3.977   4.420  16.629  0.9419 -0.1738 -0.3340
 6385TIP3   OH240569   3.779   3.221   6.354  0.0565 -0.4128 -0.1394
 6385TIP3    H140570   3.768   3.239   6.447  0.6271  2.5651 -0.5479
 6385TIP3    H240571   3.874   3.210   6.343  0.0613 -0.0455 -0.4770
 6386TIP3   OH240572   3.669   0.312   3.782  0.4961  0.4818 -0.0487
 6386TIP3    H140573   3.667   0.306   3.686 -0.8664  0.2045 -0.0293
 6386TIP3    H240574   3.617   0.237   3.811 -1.9952  2.3716  0.7780
 6387TIP3   OH240575   0.718   6.779   1.754  0.1850  0.1971 -0.2773
 6387TIP3    H140576   0.719   6.858   1.700 -0.4370  0.3066 -0.1395
 6387TIP3    H240577   0.810   6.755   1.765  0.3599  0.7552 -0.5358
 6388TIP3   OH240578   5.408   3.158  16.983 -0.1053  0.5877  0.1045
 6388TIP3    H140579   5.450   3.232  17.026  0.5784  0.5689 -0.5233
 6388TIP3    H240580   5.314   3.177  16.988 -0.0827  0.3442  2.0433
 6389TIP3   OH240581   5.821   5.967  16.905 -0.1941 -0.0466  0.2933
 6389TIP3    H140582   5.839   6.032  16.837  1.4155 -0.8730 -0.1236
 6389TIP3    H240583   5.830   5.883  16.860 -0.4024 -0.5927  1.2455
 6390TIP3   OH240584   3.672   3.656   4.816 -0.0986  0.2347  0.8989
 6390TIP3    H140585   3.605   3.597   4.848 -0.7315 -0.4546 -1.4820
 6390TIP3    H240586   3.640   3.744   4.838 -1.8819 -0.0720 -0.2914
 6391TIP3   OH240587   3.516   3.973  12.727  0.5541 -0.6241  0.0379
 6391TIP3    H140588   3.474   3.916  12.663 -3.0595  0.0719  1.5585
 6391TIP3    H240589   3.543   4.050  12.677 -0.4417 -0.9076 -0.9630
 6392TIP3   OH240590   0.364   4.555   1.906 -0.1901 -0.2217  0.7654
 6392TIP3    H140591   0.440   4.580   1.958 -0.3635 -0.6184  1.2173
 6392TIP3    H240592   0.386   4.469   1.870  1.2142  1.2944 -2.3829
 6393TIP3   OH240593   0.053   0.634   3.998 -0.1406 -0.7891  0.3033
 6393TIP3    H140594   0.084   0.715   4.039 -0.8403  0.2068 -1.0466
 6393TIP3    H240595   0.128   0.575   4.001  0.6504  0.2076  0.5594
 6394TIP3   OH240596   3.773   5.625  13.182 -0.2384  0.1967 -0.3084
 6394TIP3    H140597   3.766   5.538  13.220  2.0639  0.2799  0.4413
 6394TIP3    H240598   3.718   5.680  13.238  2.2901  0.1279  2.4828
 6395TIP3   OH240599   0.386   1.565   0.309 -0.0483 -0.1063  0.2530
 6395TIP3    H140600   0.456   1.560   0.374 -0.7829  3.1116  1.4753
 6395TIP3    H240601   0.309   1.595   0.359 -0.5248  2.9782 -2.0550
 6396TIP3   OH240602   4.833   6.497  13.685 -0.0690 -0.4169  0.0721
 6396TIP3    H140603   4.738   6.490  13.689 -0.1160  0.3076  0.5763
 6396TIP3    H240604   4.865   6.410  13.709 -0.6032 -0.3610  1.0671
 6397TIP3   OH240605   5.994   1.281  11.997 -0.4624 -0.6550 -0.2993
 6397TIP3    H140606   6.074   1.298  12.047  0.2327  3.2667 -2.3169
 6397TIP3    H240607   5.923   1.295  12.060  0.4176 -0.4197  0.6808
 6398TIP3   OH240608   5.399   3.116   0.949 -0.1457  0.5741  0.4810
 6398TIP3    H140609   5.477   3.061   0.948  0.3916  1.2559 -1.8004
 6398TIP3    H240610   5.380   3.132   0.856 -2.5444  1.0708  1.0033
 6399TIP3   OH240611   3.767   1.249  12.060  0.4334 -0.1258 -0.3706
 6399TIP3    H140612   3.765   1.183  12.130 -1.5413 -0.1624 -0.4017
 6399TIP3    H240613   3.733   1.329  12.102  1.4350  0.5042 -0.7154
 6400TIP3   OH240614   1.459   0.893   5.332 -0.4517 -0.0688 -0.1619
 6400TIP3    H140615   1.429   0.978   5.299 -0.9057 -0.6508 -1.3080
 6400TIP3    H240616   1.507   0.855   5.259 -2.1705 -1.7503 -0.4954
 6401TIP3   OH240617   4.305   4.846   6.649  0.1327 -0.3583  0.3054
 6401TIP3    H140618   4.394   4.881   6.635 -0.3334  1.2084  1.0544
 6401TIP3    H240619   4.317   4.751   6.649  1.5578 -0.2409 -1.2204
 6402TIP3   OH240620   0.685   4.766   1.115 -0.2139 -0.6838 -0.2317
 6402TIP3    H140621   0.748   4.751   1.186 -0.4190 -1.6106 -0.2344
 6402TIP3    H240622   0.719   4.716   1.041 -1.9490 -2.9139  0.3558
 6403TIP3   OH240623   4.638   0.594  16.647  0.0708  0.3446  0.6112
 6403TIP3    H140624   4.718   0.546  16.669 -0.7955 -1.7803 -0.5197
 6403TIP3    H240625   4.668   0.668  16.594  1.2496 -1.4064 -1.3301
 6404TIP3   OH240626   4.564   2.273   1.920 -0.0115 -0.2507  0.2585
 6404TIP3    H140627   4.646   2.223   1.919  0.9124  1.1866 -0.1400
 6404TIP3    H240628   4.586   2.354   1.967 -1.2005  0.1796  0.1095
 6405TIP3   OH240629   4.225   3.664   2.265 -0.5613  0.0341 -0.1015
 6405TIP3    H140630   4.276   3.645   2.344 -0.3567 -0.9318 -0.4475
 6405TIP3    H240631   4.148   3.711   2.296 -0.6422 -0.6240  0.7256
 6406TIP3   OH240632   6.619   4.719   6.064  0.2529  0.1645 -0.1712
 6406TIP3    H140633   6.562   4.643   6.076  0.6098 -0.1124 -0.2105
 6406TIP3    H240634   6.674   4.720   6.143  0.8112 -0.1098 -0.5464
 6407TIP3   OH240635   1.830   3.030  15.746 -0.5071 -0.7472 -0.4919
 6407TIP3    H140636   1.844   3.117  15.708 -1.7807 -0.3823 -0.1912
 6407TIP3    H240637   1.842   3.043  15.840  0.6740 -1.2103 -0.5726
 6408TIP3   OH240638   1.854   3.600  15.296 -0.6166  0.5159 -0.2188
 6408TIP3    H140639   1.859   3.677  15.240 -3.3579 -0.3796 -1.9261
 6408TIP3    H240640   1.818   3.532  15.239  0.9446 -1.8510  1.4150
 6409TIP3   OH240641   6.592   6.660   3.151  0.2747  0.8179  0.2167
 6409TIP3    H140642   6.657   6.686   3.085 -0.7410  1.9925 -0.3613
 6409TIP3    H240643   6.634   6.588   3.198  1.0899 -0.0020 -1.6333
 6410TIP3   OH240644   0.786   1.296   6.696 -0.3117  0.2020 -0.2098
 6410TIP3    H140645   0.740   1.215   6.673 -0.5551  0.4164 -0.4928
 6410TIP3    H240646   0.722   1.366   6.679 -0.9771  0.3164  2.3883
 6411TIP3   OH240647   6.468   3.683  12.642  0.5737  0.3083 -0.4841
 6411TIP3    H140648   6.428   3.687  12.729 -0.2708 -1.6117 -0.7437
 6411TIP3    H240649   6.404   3.724  12.584 -0.0815 -0.8041 -0.5710
 6412TIP3   OH240650   5.036   2.531   3.526  0.1004  0.6517 -0.4793
 6412TIP3    H140651   5.057   2.454   3.472  0.4721  0.2770  0.1862
 6412TIP3    H240652   5.121   2.564   3.554 -0.1162 -0.1956  1.2943
 6413TIP3   OH240653   3.364   0.151   1.016 -0.0279  0.1535  0.3020
 6413TIP3    H140654   3.280   0.106   1.006 -0.2818  0.5938  0.4002
 6413TIP3    H240655   3.360   0.224   0.954 -0.9344  1.9038  2.2785
 6414TIP3   OH240656   1.895   0.161   5.066  0.2273 -0.1274 -0.0992
 6414TIP3    H140657   1.839   0.231   5.032  0.1761 -0.0129  0.2113
 6414TIP3    H240658   1.934   0.198   5.145  0.2368 -0.4316  0.0427
 6415TIP3   OH240659   1.149   1.744   4.688 -0.0018  0.5361 -0.6388
 6415TIP3    H140660   1.146   1.726   4.782  1.8403  1.5723 -0.3395
 6415TIP3    H240661   1.089   1.680   4.650 -0.9011  0.1902  1.2396
 6416TIP3   OH240662   0.245   3.649  15.571  0.4576  0.3332  0.1552
 6416TIP3    H140663   0.280   3.737  15.575 -0.4103  0.6957  0.0884
 6416TIP3    H240664   0.191   3.648  15.492  0.3177 -0.2009  0.2523
 6417TIP3   OH240665   4.245   3.438  15.987  0.2146 -0.4540 -0.8893
 6417TIP3    H140666   4.168   3.490  15.963 -0.1060 -0.5871 -0.1698
 6417TIP3    H240667   4.273   3.475  16.070  0.3495 -1.0335 -0.6726
 6418TIP3   OH240668   4.041   6.028   4.256  0.1044  0.6553 -0.0875
 6418TIP3    H140669   3.972   6.029   4.189 -0.0200  1.7412  0.0473
 6418TIP3    H240670   4.118   6.061   4.211  0.0631  1.2246  0.2560
 6419TIP3   OH240671   4.504   0.919  16.837  0.4307  1.3054  0.5504
 6419TIP3    H140672   4.576   0.967  16.877  3.0938 -1.4693 -0.4869
 6419TIP3    H240673   4.510   0.938  16.744  2.5138 -1.8510 -0.1220
 6420TIP3   OH240674   5.176   3.353   0.869  0.1453  0.1613 -0.6113
 6420TIP3    H140675   5.256   3.329   0.917 -0.0942 -0.7040 -0.6170
 6420TIP3    H240676   5.168   3.447   0.881  0.0352 -0.0300  1.1713
 6421TIP3   OH240677   3.497   3.933   2.877  0.0626  0.0284  0.3570
 6421TIP3    H140678   3.461   3.856   2.921  2.7438 -1.6844 -0.2089
 6421TIP3    H240679   3.572   3.958   2.930  0.2358  1.2073 -0.4186
 6422TIP3   OH240680   4.202   0.160  13.493 -0.3991 -0.4428 -0.5610
 6422TIP3    H140681   4.275   0.172  13.552 -0.6730  1.2301 -0.5203
 6422TIP3    H240682   4.233   0.193  13.409 -0.2496 -2.1510 -1.2285
 6423TIP3   OH240683   4.448   5.519  17.199  0.6886  0.6482  0.3389
 6423TIP3    H140684   4.392   5.485  17.269  1.4946  0.3569  0.8536
 6423TIP3    H240685   4.460   5.611  17.221  0.8866  0.5725  0.5528
 6424TIP3   OH240686   4.608   3.843  15.188  0.4719  0.2289 -0.1614
 6424TIP3    H140687   4.661   3.774  15.148 -0.7445 -1.1388  0.4882
 6424TIP3    H240688   4.589   3.810  15.276 -3.5454 -0.6261 -1.1627
 6425TIP3   OH240689   4.791   6.045  14.161  0.7093  0.3566  0.0401
 6425TIP3    H140690   4.734   6.075  14.090  0.6993  0.1996 -0.0192
 6425TIP3    H240691   4.744   6.069  14.241 -0.4931 -1.6880  0.0169
 6426TIP3   OH240692   3.945   4.061  15.355 -0.3973  0.6465  0.7905
 6426TIP3    H140693   4.028   4.014  15.369 -0.2058  0.3215 -1.1144
 6426TIP3    H240694   3.885   3.993  15.323 -0.4294  1.4320 -0.9586
 6427TIP3   OH240695   3.425   3.908   3.651 -0.2571  0.1166  0.1540
 6427TIP3    H140696   3.406   3.832   3.706  0.6888 -1.0038 -0.9909
 6427TIP3    H240697   3.502   3.947   3.690  1.2422 -1.4671 -1.0347
 6428TIP3   OH240698   1.963   0.818   6.386 -0.5476  0.4880  0.1312
 6428TIP3    H140699   2.027   0.855   6.325  0.3784  0.8916  1.2920
 6428TIP3    H240700   1.994   0.729   6.402 -1.0813  0.2075 -0.3741
 6429TIP3   OH240701   2.946   2.561  13.060  0.1782  0.5700 -0.5283
 6429TIP3    H140702   2.871   2.591  13.111  0.0799  0.8553 -0.8366
 6429TIP3    H240703   2.962   2.471  13.090  0.1032  0.7258 -0.0238
 6430TIP3   OH240704   0.514   4.479  13.513 -0.2063 -0.1044 -0.6280
 6430TIP3    H140705   0.423   4.508  13.519 -0.4049 -0.9383  0.9887
 6430TIP3    H240706   0.507   4.385  13.494  0.2938 -0.2710 -0.0193
 6431TIP3   OH240707   2.818   6.533   1.451  0.1319  0.5617  0.2647
 6431TIP3    H140708   2.728   6.498   1.449 -0.7935  2.7687  0.8315
 6431TIP3    H240709   2.873   6.457   1.429 -1.9679 -0.4871 -1.8808
 6432TIP3   OH240710   2.880   2.738   4.232  0.0032  0.1042 -0.4726
 6432TIP3    H140711   2.968   2.715   4.260 -0.1353 -2.4163 -1.7818
 6432TIP3    H240712   2.892   2.810   4.170  1.1049  0.0231 -0.3630
 6433TIP3   OH240713   2.447   5.136  16.427  0.0842 -0.2297 -0.2707
 6433TIP3    H140714   2.454   5.210  16.366  0.2033 -1.5744 -1.9507
 6433TIP3    H240715   2.439   5.059  16.371  0.0905 -1.5273  1.4314
 6434TIP3   OH240716   3.604   1.563   0.119  0.4554  0.1711  0.0752
 6434TIP3    H140717   3.561   1.511   0.188 -0.7998  0.4079 -0.4924
 6434TIP3    H240718   3.668   1.617   0.166 -0.7458  0.7242  1.1543
 6435TIP3   OH240719   5.555   2.585   3.006 -0.3452 -0.8844  0.3218
 6435TIP3    H140720   5.634   2.536   2.984  0.9489  1.3761 -0.4368
 6435TIP3    H240721   5.579   2.677   2.994 -3.1315 -0.0902 -0.0177
 6436TIP3   OH240722   0.955   4.781   4.266  0.7951 -0.4992 -0.3498
 6436TIP3    H140723   1.047   4.790   4.241  0.7534 -1.2992 -0.8299
 6436TIP3    H240724   0.952   4.810   4.357  1.4645 -0.1486 -0.4348
 6437TIP3   OH240725   0.588   5.471  16.542  0.2422  0.2525 -0.6462
 6437TIP3    H140726   0.628   5.396  16.498 -1.0874  0.6359 -2.6640
 6437TIP3    H240727   0.505   5.438  16.577 -0.1777  0.6623 -1.2249
 6438TIP3   OH240728   3.886   0.637  11.756 -0.4511 -0.1566  0.5308
 6438TIP3    H140729   3.827   0.570  11.721  0.4995 -0.0970 -1.3611
 6438TIP3    H240730   3.971   0.592  11.763  0.9359  1.3378 -3.4653
 6439TIP3   OH240731   0.376   1.056  14.471  0.6877 -0.1832 -0.1821
 6439TIP3    H140732   0.361   1.132  14.414  0.4861  0.6064  0.8786
 6439TIP3    H240733   0.320   0.988  14.435  0.6864  0.2385 -1.0160
 6440TIP3   OH240734   2.736   5.252  17.003  0.7860  0.0167 -0.1847
 6440TIP3    H140735   2.796   5.190  16.962 -0.5831  0.1591 -2.6078
 6440TIP3    H240736   2.774   5.338  16.985  0.0950  0.0893 -1.4318
 6441TIP3   OH240737   5.131   1.487  12.988  0.4314  0.0684 -0.2410
 6441TIP3    H140738   5.111   1.578  12.966  0.0228  0.1991  0.5985
 6441TIP3    H240739   5.121   1.483  13.084  1.9706 -0.4841 -0.0798
 6442TIP3   OH240740   6.483   0.935  15.855  0.0196  0.0933 -0.8035
 6442TIP3    H140741   6.506   0.854  15.900  0.2195 -0.2046 -1.4342
 6442TIP3    H240742   6.561   0.990  15.863  0.2131 -0.1253 -1.1499
 6443TIP3   OH240743   5.019   3.856   0.317 -0.1599  0.2045 -0.4048
 6443TIP3    H140744   4.938   3.905   0.302 -0.0923  1.5527  2.8422
 6443TIP3    H240745   5.088   3.922   0.317  0.5478 -0.5218 -0.1830
 6444TIP3   OH240746   0.710   0.806  11.174 -0.3253  0.1674 -0.1298
 6444TIP3    H140747   0.761   0.869  11.125  0.6443 -0.4534  0.0612
 6444TIP3    H240748   0.748   0.807  11.262 -0.7547 -0.1718  0.0654
 6445TIP3   OH240749   1.591   2.738  14.437 -0.1710 -0.2619 -0.4694
 6445TIP3    H140750   1.594   2.666  14.500  1.5559  1.0071  1.0057
 6445TIP3    H240751   1.604   2.696  14.352 -0.6094 -1.8199  0.1892
 6446TIP3   OH240752   3.799   4.025   2.401 -0.0682 -0.5611  0.0322
 6446TIP3    H140753   3.749   4.105   2.388 -1.7478 -1.5850 -0.1164
 6446TIP3    H240754   3.881   4.039   2.352 -0.9966  0.4609 -1.2845
 6447TIP3   OH240755   5.358   5.256   0.472 -0.1319  0.1518  0.5994
 6447TIP3    H140756   5.404   5.334   0.504 -1.6634  0.5509  1.9543
 6447TIP3    H240757   5.283   5.247   0.531 -3.0987  0.8127 -2.7541
 6448TIP3   OH240758   6.479   6.562   0.014 -0.4138 -0.8658  0.6021
 6448TIP3    H140759   6.476   6.611  -0.067 -2.5620 -0.6597  0.7709
 6448TIP3    H240760   6.433   6.480  -0.004  2.1248 -2.4564  0.6490
 6449TIP3   OH240761   3.442   5.369   2.097  0.0807 -0.1949 -0.1078
 6449TIP3    H140762   3.511   5.414   2.146 -0.3605  1.7698 -1.1737
 6449TIP3    H240763   3.364   5.422   2.114 -0.3823 -0.3049 -1.7454
 6450TIP3   OH240764   1.585   2.386   2.181 -0.1335 -0.1586 -0.1944
 6450TIP3    H140765   1.492   2.370   2.161 -0.2855 -0.0276  0.3932
 6450TIP3    H240766   1.626   2.300   2.174 -0.2252 -0.1595 -0.8235
 6451TIP3   OH240767   4.367   2.526  14.495 -0.2280 -0.4892 -0.2554
 6451TIP3    H140768   4.372   2.607  14.445  0.6084  0.9364  1.9779
 6451TIP3    H240769   4.457   2.494  14.498 -0.3747 -0.9027 -0.1697
 6452TIP3   OH240770   4.677   0.034   4.919 -0.5340 -0.1463 -0.2153
 6452TIP3    H140771   4.696  -0.000   5.007  1.6117 -0.5173 -0.7901
 6452TIP3    H240772   4.631  -0.038   4.875 -2.1657  0.2478  0.7253
 6453TIP3   OH240773   2.461   3.981   6.004  0.0687  0.1911 -0.1265
 6453TIP3    H140774   2.470   3.959   6.097  0.1887  0.4947 -0.0680
 6453TIP3    H240775   2.427   3.900   5.965 -2.0606  0.7073  0.5291
 6454TIP3   OH240776   6.415   1.349   1.149 -0.1709  0.1919 -0.0879
 6454TIP3    H140777   6.392   1.394   1.230  0.2903 -0.2067  0.2742
 6454TIP3    H240778   6.487   1.290   1.174 -0.4426 -0.3875 -0.6516
 6455TIP3   OH240779   1.691   5.382  16.655 -0.6906  0.2250 -0.3696
 6455TIP3    H140780   1.760   5.364  16.592 -0.4480 -2.8124  0.6030
 6455TIP3    H240781   1.731   5.442  16.718  0.7189 -0.6704 -0.3820
 6456TIP3   OH240782   0.740   1.833   6.016  0.0966  0.2027  0.3074
 6456TIP3    H140783   0.684   1.788   5.953  1.2164 -1.1713  0.2387
 6456TIP3    H240784   0.682   1.896   6.059 -1.3492 -0.7496 -0.1664
 6457TIP3   OH240785   2.375   2.841  10.969 -0.2958  0.1690  0.2473
 6457TIP3    H140786   2.341   2.763  10.925  1.2030 -0.0828 -0.5173
 6457TIP3    H240787   2.379   2.908  10.901 -1.1596  0.8166  0.8003
 6458TIP3   OH240788   3.433   5.246   3.837 -0.3635 -0.2562  0.5869
 6458TIP3    H140789   3.468   5.205   3.758 -0.2536 -1.7709  1.3979
 6458TIP3    H240790   3.346   5.276   3.811  0.6394  1.6754 -0.8427
 6459TIP3   OH240791   6.723   5.374  11.451 -0.2160  0.8161  0.0474
 6459TIP3    H140792   6.740   5.445  11.390  0.0090 -0.1398 -1.0331
 6459TIP3    H240793   6.631   5.351  11.438 -0.1054  0.4523 -0.1143
 6460TIP3   OH240794   4.119   5.931  16.692  0.3105  0.7072  0.0056
 6460TIP3    H140795   4.203   5.954  16.653  0.9419 -1.3855  0.0326
 6460TIP3    H240796   4.141   5.882  16.771 -0.8089 -2.1844 -1.3290
 6461TIP3   OH240797   1.618   4.114  15.505 -0.2070 -0.1640 -0.1979
 6461TIP3    H140798   1.586   4.160  15.582  0.1166  0.1137 -0.2249
 6461TIP3    H240799   1.694   4.064  15.537 -0.6065 -0.7540 -0.1485
 6462TIP3   OH240800   4.680   1.623   4.998  0.3785  0.0138  0.0708
 6462TIP3    H140801   4.652   1.614   5.088 -1.6107  3.5028 -0.0209
 6462TIP3    H240802   4.768   1.661   5.004  0.5200 -0.3881  0.5324
 6463TIP3   OH240803   2.694   3.791   4.645 -0.9853 -0.5368  0.4186
 6463TIP3    H140804   2.782   3.811   4.675 -0.7606  1.3895 -1.2698
 6463TIP3    H240805   2.638   3.807   4.721 -0.0334 -0.3472  1.0915
 6464TIP3   OH240806   0.604   0.394   4.418 -0.1832  0.2073  0.2475
 6464TIP3    H140807   0.620   0.432   4.505  2.5940 -0.3225  0.0745
 6464TIP3    H240808   0.598   0.470   4.360  1.3086  0.5383  0.4733
 6465TIP3   OH240809   5.687   1.023  17.036  0.0229  0.1670  0.2684
 6465TIP3    H140810   5.707   0.975  16.956 -0.8216 -0.2116  0.2666
 6465TIP3    H240811   5.597   1.055  17.023 -0.5576 -0.8616  1.5122
 6466TIP3   OH240812   6.023   3.080   2.488  0.4887 -0.3201 -0.0792
 6466TIP3    H140813   5.946   3.072   2.544  0.4801 -0.7140 -0.1438
 6466TIP3    H240814   5.987   3.087   2.399  0.5492 -1.3614 -0.1921
 6467TIP3   OH240815   4.967   2.485  12.150 -0.1535 -0.3014 -0.4684
 6467TIP3    H140816   4.882   2.527  12.133  0.2818 -0.1545 -2.4284
 6467TIP3    H240817   5.026   2.524  12.086  1.6082  0.1136  1.3112
 6468TIP3   OH240818   0.667   5.094  16.031  0.3306 -0.0603  0.2334
 6468TIP3    H140819   0.599   5.029  16.015  0.5482 -0.5424  1.1896
 6468TIP3    H240820   0.729   5.050  16.088  0.6879  0.8610  0.5683
 6469TIP3   OH240821   4.089   5.345  16.203 -0.5640  0.0426  1.2801
 6469TIP3    H140822   4.136   5.305  16.277 -0.6197  1.0886  1.9018
 6469TIP3    H240823   4.004   5.301  16.203 -0.8663  0.5884  2.3645
 6470TIP3   OH240824   1.523   5.013  13.060  0.4843 -0.1049 -0.1338
 6470TIP3    H140825   1.428   4.998  13.065  0.5663 -0.7754 -0.3858
 6470TIP3    H240826   1.535   5.056  12.976  0.4018 -0.0160 -0.1005
 6471TIP3   OH240827   0.587   1.874   0.358  0.2854 -0.3374 -0.3196
 6471TIP3    H140828   0.588   1.787   0.396 -0.5973 -0.5419 -0.7192
 6471TIP3    H240829   0.536   1.864   0.277 -1.0114  0.7968  0.2993
 6472TIP3   OH240830   1.217   4.021   2.231  0.4574  0.5384  0.3536
 6472TIP3    H140831   1.250   4.070   2.156 -1.5038  3.1518  1.0432
 6472TIP3    H240832   1.295   3.997   2.281  1.5811  2.3751 -0.4234
 6473TIP3   OH240833   1.761   4.064  13.446 -0.4187  0.1832 -0.1055
 6473TIP3    H140834   1.845   4.034  13.412 -0.3071 -0.1112  0.4345
 6473TIP3    H240835   1.697   4.001  13.412 -0.6154  1.1378 -1.6130
 6474TIP3   OH240836   3.778   2.232   3.344  0.3402  0.2502  1.0153
 6474TIP3    H140837   3.688   2.265   3.344  0.5624  0.8677  1.1055
 6474TIP3    H240838   3.833   2.310   3.349  0.9123 -0.0611 -0.0213
 6475TIP3   OH240839   4.492   3.141  16.248 -0.1912 -0.4644  0.4261
 6475TIP3    H140840   4.504   3.191  16.328 -0.1844 -2.6807  1.8874
 6475TIP3    H240841   4.442   3.064  16.274 -1.3001 -0.6644 -1.9599
 6476TIP3   OH240842   6.355   1.285  16.946 -0.1632 -0.5576  0.1972
 6476TIP3    H140843   6.276   1.236  16.971  0.1103 -2.1465 -1.8171
 6476TIP3    H240844   6.424   1.219  16.945  1.0281  0.6344  0.9807
 6477TIP3   OH240845   5.932   1.245   4.295 -0.5381  0.2209 -0.3211
 6477TIP3    H140846   5.989   1.229   4.371  0.9047  1.8549 -0.9880
 6477TIP3    H240847   5.964   1.327   4.258 -0.6460 -0.9220 -3.1907
 6478TIP3   OH240848   6.028   6.564  11.067 -0.7107  0.2975  0.5490
 6478TIP3    H140849   6.095   6.613  11.020 -1.4507  2.1704  1.3705
 6478TIP3    H240850   6.077   6.491  11.108  0.6415  1.0212  0.2945
 6479TIP3   OH240851   1.936   3.214  16.778  0.1676 -0.4770  0.2556
 6479TIP3    H140852   1.916   3.142  16.838 -0.1598 -0.8739 -0.3348
 6479TIP3    H240853   1.960   3.286  16.836  0.7905 -1.1381  0.8516
 6480TIP3   OH240854   0.607   6.122   2.833 -0.6910 -0.7033  0.1944
 6480TIP3    H140855   0.647   6.156   2.753  0.8811 -1.3078  0.6827
 6480TIP3    H240856   0.513   6.126   2.816 -0.4252  0.0815 -1.3009
 6481TIP3   OH240857   4.598   4.554   0.583 -0.2897 -0.6730 -0.3426
 6481TIP3    H140858   4.648   4.631   0.612  0.0355  0.2593 -3.1094
 6481TIP3    H240859   4.507   4.579   0.596 -0.1526 -0.4783  0.2792
 6482TIP3   OH240860   0.880   2.186  13.021  0.3297  0.6135 -0.1214
 6482TIP3    H140861   0.831   2.104  13.016 -0.1421  0.7997  1.1621
 6482TIP3    H240862   0.823   2.246  13.069  1.7224  0.8791  1.2993
 6483TIP3   OH240863   0.982   3.290   5.067 -0.5902  0.1551  0.0016
 6483TIP3    H140864   0.988   3.277   5.162 -0.2034 -1.0164 -0.1701
 6483TIP3    H240865   0.910   3.352   5.056  0.3825  1.5675  1.1484
 6484TIP3   OH240866   5.526   4.082  11.755  0.1016  0.4074 -0.2927
 6484TIP3    H140867   5.544   4.063  11.847 -0.0586 -1.3107 -0.5851
 6484TIP3    H240868   5.610   4.108  11.719  0.6919 -1.1906 -0.1560
 6485TIP3   OH240869   5.802   6.079   3.527  0.1074  0.2736  0.4165
 6485TIP3    H140870   5.877   6.138   3.523  1.0457 -0.7630  1.7329
 6485TIP3    H240871   5.815   6.018   3.454 -0.2561  0.9818 -0.2488
 6486TIP3   OH240872   2.127   2.803  16.234  0.3124  0.3244 -0.1981
 6486TIP3    H140873   2.134   2.796  16.139  1.2669 -1.5625 -0.0276
 6486TIP3    H240874   2.128   2.712  16.265 -2.7609  0.7068  1.4592
 6487TIP3   OH240875   6.025   1.887  16.206 -0.2974 -0.1055  0.1078
 6487TIP3    H140876   6.046   1.855  16.294 -2.0582  1.0468  1.0122
 6487TIP3    H240877   6.086   1.841  16.149  0.8046 -1.0119  1.9059
 6488TIP3   OH240878   2.805   3.581  14.885 -0.7565 -0.0225  0.2835
 6488TIP3    H140879   2.801   3.637  14.807 -0.1532 -0.9584 -0.4342
 6488TIP3    H240880   2.898   3.569  14.901 -0.8621 -1.7153 -0.2336
 6489TIP3   OH240881   0.880   3.546  13.383 -0.5430  0.1889 -0.1075
 6489TIP3    H140882   0.820   3.620  13.393 -0.5865  0.2985 -1.1039
 6489TIP3    H240883   0.961   3.584  13.349 -0.7165 -0.2598 -1.0737
 6490TIP3   OH240884   0.919   6.051   0.064  0.5133  0.8157 -0.0558
 6490TIP3    H140885   0.921   5.960   0.095  0.4086  0.7241 -0.3135
 6490TIP3    H240886   0.927   6.043  -0.031 -3.2418  0.8536 -0.5215
 6491TIP3   OH240887   0.435   2.900   3.313  0.9264  0.0141 -0.3245
 6491TIP3    H140888   0.355   2.952   3.306  1.0223  0.0873 -0.9595
 6491TIP3    H240889   0.496   2.957   3.361  1.2093  0.7237 -1.4797
 6492TIP3   OH240890   4.316   6.273   4.664  0.3382 -0.2953 -0.4496
 6492TIP3    H140891   4.320   6.206   4.595 -0.2231  1.4687 -2.2868
 6492TIP3    H240892   4.222   6.282   4.681  0.4988 -1.0855  0.9770
 6493TIP3   OH240893   6.530   4.521   5.758 -0.0427  0.0682 -0.5133
 6493TIP3    H140894   6.459   4.465   5.788 -0.2819 -0.6882 -2.3522
 6493TIP3    H240895   6.491   4.608   5.753 -0.4199 -0.0727 -0.1201
 6494TIP3   OH240896   4.403   3.590   5.524  0.2733 -0.1112 -0.8934
 6494TIP3    H140897   4.389   3.630   5.610 -0.5378 -2.0526 -0.0583
 6494TIP3    H240898   4.498   3.580   5.518  0.2951 -0.6203  0.1135
 6495TIP3   OH240899   4.072   2.462   1.722 -0.1984 -0.0048 -0.2407
 6495TIP3    H140900   4.065   2.522   1.796  0.3744 -0.8570  0.5231
 6495TIP3    H240901   4.100   2.517   1.649 -1.5555  1.0003 -0.0494
 6496TIP3   OH240902   4.467   5.721  13.130  0.0010 -0.4007  0.3625
 6496TIP3    H140903   4.454   5.761  13.044 -0.9259 -1.8774 -0.2285
 6496TIP3    H240904   4.517   5.642  13.112 -1.3068 -1.4053  0.9718
 6497TIP3   OH240905   6.426   3.333  12.409  0.7893 -0.0353 -0.4917
 6497TIP3    H140906   6.450   3.241  12.409 -0.4508 -0.3641 -0.3589
 6497TIP3    H240907   6.395   3.350  12.320 -1.1062 -0.3234  0.0895
 6498TIP3   OH240908   5.631   6.110  12.343  0.1944  0.3254 -0.1877
 6498TIP3    H140909   5.582   6.157  12.276 -0.3353  0.9807  0.6467
 6498TIP3    H240910   5.567   6.049  12.381 -0.2359  1.7401  1.4517
 6499TIP3   OH240911   5.426   0.347   5.462  0.1426 -0.2921  0.2302
 6499TIP3    H140912   5.333   0.358   5.443 -0.0721 -0.2634  1.2599
 6499TIP3    H240913   5.466   0.428   5.432  0.0909 -0.9177 -1.6658
 6500TIP3   OH240914   1.789   0.031   2.130  0.6968  0.0090  0.2277
 6500TIP3    H140915   1.826   0.085   2.200  0.4120  1.2468 -0.5387
 6500TIP3    H240916   1.861  -0.025   2.102  1.4792  1.0867  0.0146
 6501TIP3   OH240917   0.262   5.192   1.224  0.4091 -0.0098  0.3491
 6501TIP3    H140918   0.319   5.266   1.244  0.4352  0.0758 -0.0471
 6501TIP3    H240919   0.239   5.156   1.310  2.3522 -1.0326  0.4887
 6502TIP3   OH240920   3.233   6.003   4.154  0.8690  0.5175  0.0521
 6502TIP3    H140921   3.191   5.953   4.084  0.3400  2.0127 -0.7423
 6502TIP3    H240922   3.306   5.948   4.182 -1.0593 -1.7913  0.9087
 6503TIP3   OH240923   2.465   5.256  16.917  0.3422  0.1209 -0.0780
 6503TIP3    H140924   2.412   5.311  16.975 -0.9023 -0.9291 -0.1733
 6503TIP3    H240925   2.541   5.232  16.970 -0.5999 -0.5335  1.0338
 6504TIP3   OH240926   2.832   0.165  16.924  0.0167  0.9102  0.0476
 6504TIP3    H140927   2.743   0.164  16.959  0.0455  0.6621  0.1144
 6504TIP3    H240928   2.888   0.166  17.002  0.0675  1.7866  0.0088
 6505TIP3   OH240929   3.198   1.981  14.434  0.1056  0.2519  0.0420
 6505TIP3    H140930   3.246   1.954  14.356  1.7161 -0.0838  1.1114
 6505TIP3    H240931   3.112   2.007  14.400  0.7486  0.1424 -1.8361
 6506TIP3   OH240932   5.052   3.614   4.717 -0.2414 -0.3818 -0.3071
 6506TIP3    H140933   5.092   3.528   4.724 -1.8858 -1.3066 -1.3703
 6506TIP3    H240934   4.991   3.619   4.790  3.2990  2.0506  2.8817
 6507TIP3   OH240935   5.387   6.010   3.288  0.2443  0.2634  0.0667
 6507TIP3    H140936   5.399   6.089   3.341 -1.4560  0.1349  0.6865
 6507TIP3    H240937   5.389   6.041   3.197  0.1124  0.9416  0.2940
 6508TIP3   OH240938   6.708   6.782  14.275  0.0430  0.1132  0.0067
 6508TIP3    H140939   6.781   6.726  14.248 -0.1616  0.9074 -2.5372
 6508TIP3    H240940   6.638   6.721  14.297  0.2476 -0.6879 -1.4075
 6509TIP3   OH240941   4.887   5.068   5.101 -0.3846 -0.4157  0.5440
 6509TIP3    H140942   4.826   5.139   5.125 -1.3545 -0.8393 -0.5367
 6509TIP3    H240943   4.958   5.074   5.165 -1.2637  0.4905  1.4745
 6510TIP3   OH240944   0.276   5.133  13.502 -0.0889  0.3015  0.2938
 6510TIP3    H140945   0.183   5.143  13.518 -0.1199  1.7408 -0.5815
 6510TIP3    H240946   0.287   5.156  13.409  1.0147 -0.7084  0.1455
 6511TIP3   OH240947   2.090   5.702  14.189  0.0223  0.1470  0.2151
 6511TIP3    H140948   2.172   5.706  14.238  0.7692 -1.1522 -0.9002
 6511TIP3    H240949   2.098   5.769  14.122 -0.2365  0.6449  0.6651
 6512TIP3   OH240950   6.359   1.632  11.916 -0.6203  0.0055  0.3032
 6512TIP3    H140951   6.278   1.678  11.894 -1.7698 -1.1343  1.9302
 6512TIP3    H240952   6.349   1.546  11.874  1.2684  0.9339 -2.2674
 6513TIP3   OH240953   5.594   0.487  13.048  0.7518 -0.3166 -0.0926
 6513TIP3    H140954   5.646   0.409  13.065  0.5418 -0.2804  0.7464
 6513TIP3    H240955   5.532   0.461  12.980 -0.7708 -1.5476  1.6811
 6514TIP3   OH240956   1.851   2.213  12.400 -0.1791  0.0479 -0.1852
 6514TIP3    H140957   1.880   2.192  12.311 -0.1023 -0.7937  0.0329
 6514TIP3    H240958   1.812   2.132  12.432 -2.0385  0.8877 -0.1612
 6515TIP3   OH240959   1.505   0.083  11.874  0.1084  0.6216  0.6667
 6515TIP3    H140960   1.550   0.029  11.809 -0.5746  0.5331  0.2517
 6515TIP3    H240961   1.454   0.145  11.822 -0.0010  0.9242  1.1315
 6516TIP3   OH240962   1.861   1.369  14.264 -0.2038 -0.4031 -0.3399
 6516TIP3    H140963   1.879   1.417  14.345  1.9069  0.4699 -1.2355
 6516TIP3    H240964   1.935   1.391  14.207 -2.2276  0.0246 -2.9827
 6517TIP3   OH240965   6.196   4.333  13.107 -0.1299  0.0471 -0.6064
 6517TIP3    H140966   6.166   4.376  13.186 -0.1367 -0.3020 -0.4160
 6517TIP3    H240967   6.140   4.256  13.098 -0.7696  0.5953 -1.4789
 6518TIP3   OH240968   4.309   4.071  13.161  0.2547  0.5910  0.2147
 6518TIP3    H140969   4.215   4.050  13.157  0.2674  0.6501 -0.4597
 6518TIP3    H240970   4.312   4.165  13.143  0.7254 -0.0433 -3.9126
 6519TIP3   OH240971   1.839   6.476   2.276  0.0131 -0.0678  0.0349
 6519TIP3    H140972   1.841   6.566   2.308 -0.1220  0.3499 -1.0867
 6519TIP3    H240973   1.896   6.477   2.199 -0.8068 -0.6876 -0.5907
 6520TIP3   OH240974   4.053   4.532  15.415  0.2868  0.4042  0.1152
 6520TIP3    H140975   4.054   4.463  15.349  1.4444  1.0758 -0.6142
 6520TIP3    H240976   4.144   4.557  15.425  0.0002  1.0955  1.1538
 6521TIP3   OH240977   3.660   0.034   2.789 -0.0163 -0.3075 -0.4964
 6521TIP3    H140978   3.752   0.015   2.770 -0.4699 -1.4819 -1.5898
 6521TIP3    H240979   3.652   0.019   2.883  0.6921 -1.1068 -0.5528
 6522TIP3   OH240980   1.645   1.218   1.219 -0.2965  0.3093 -0.0353
 6522TIP3    H140981   1.618   1.303   1.254  1.4149  0.5663  0.7711
 6522TIP3    H240982   1.587   1.155   1.262 -1.7718  1.0526 -0.8502
 6523TIP3   OH240983   5.773   4.275  17.195 -0.1995  0.1896  0.3383
 6523TIP3    H140984   5.830   4.199  17.183 -0.5938 -0.0236 -0.2174
 6523TIP3    H240985   5.832   4.350  17.195  0.1913 -0.1161  0.8729
 6524TIP3   OH240986   1.962   3.095  11.364 -0.2665 -0.6976  0.3359
 6524TIP3    H140987   1.979   3.081  11.271 -0.8860  0.6127  0.0081
 6524TIP3    H240988   2.010   3.025  11.408 -1.1855 -2.2645 -1.0485
 6525TIP3   OH240989   6.343   5.641   0.093 -0.3916 -0.6052 -0.2546
 6525TIP3    H140990   6.432   5.665   0.118  0.1338 -2.2456 -0.4519
 6525TIP3    H240991   6.288   5.712   0.128  0.9274  0.1553  0.3288
 6526TIP3   OH240992   4.787   0.739  14.240 -0.2085 -0.4797  0.1958
 6526TIP3    H140993   4.845   0.666  14.260  1.4514  0.9710  0.9721
 6526TIP3    H240994   4.739   0.754  14.322 -1.5999 -1.5243 -0.3740
 6527TIP3   OH240995   1.439   0.994   2.735  0.1230  0.5500 -0.5160
 6527TIP3    H140996   1.419   0.920   2.679 -3.0222 -1.2500  2.5629
 6527TIP3    H240997   1.355   1.038   2.747  0.8152  1.3544  1.9672
 6528TIP3   OH240998   5.120   5.619   2.148 -0.2233 -0.1574  0.2626
 6528TIP3    H140999   5.092   5.536   2.110 -1.4013  0.6092 -0.6043
 6528TIP3    H241000   5.079   5.686   2.093 -1.0218  1.0031  2.1681
 6529TIP3   OH241001   0.998   2.459  11.599 -0.0828 -0.3447 -0.0795
 6529TIP3    H141002   0.971   2.480  11.509  1.1412  0.0247 -0.3775
 6529TIP3    H241003   1.068   2.395  11.589 -0.0859 -0.4634  0.6178
 6530TIP3   OH241004   4.988   2.415  12.418 -0.0016  0.4631  0.3813
 6530TIP3    H141005   5.002   2.476  12.345  0.3259 -1.4873 -1.2850
 6530TIP3    H241006   4.908   2.445  12.460 -0.7755  1.0708 -1.4387
 6531TIP3   OH241007   2.491   3.116   1.469 -0.6317 -0.6283  0.5696
 6531TIP3    H141008   2.462   3.171   1.541 -0.9889  1.6319 -1.1741
 6531TIP3    H241009   2.445   3.033   1.482 -1.1775 -0.0760  2.5352
 6532TIP3   OH241010   0.521   3.411  16.672 -0.5582  0.5147  0.1247
 6532TIP3    H141011   0.513   3.502  16.703  1.6917  0.8443 -0.0684
 6532TIP3    H241012   0.527   3.359  16.752  0.6772  0.8495  0.2680
 6533TIP3   OH241013   3.254   0.797  11.785 -0.1269  0.1402  0.5006
 6533TIP3    H141014   3.251   0.704  11.809  0.1709 -0.1551 -0.5666
 6533TIP3    H241015   3.313   0.836  11.849  1.3477 -0.7967 -0.2155
 6534TIP3   OH241016   5.741   5.329   3.229 -0.1374  0.1586  0.1575
 6534TIP3    H141017   5.766   5.317   3.321  1.6223 -0.9352 -0.4150
 6534TIP3    H241018   5.659   5.378   3.233 -1.1451 -1.5427  2.3735
 6535TIP3   OH241019   5.837   5.081   5.240  0.0753 -0.3371 -0.3176
 6535TIP3    H141020   5.840   5.175   5.222  3.0824 -0.3217 -0.1642
 6535TIP3    H241021   5.865   5.073   5.331 -0.1993 -1.4040 -0.3151
 6536TIP3   OH241022   2.425   0.667   4.961 -0.1921 -0.4298  0.1300
 6536TIP3    H141023   2.441   0.576   4.983  0.0858 -0.5158 -0.4152
 6536TIP3    H241024   2.498   0.715   5.002 -0.5432 -0.4021  0.7371
 6537TIP3   OH241025   2.927   5.843   3.014 -0.2786  0.4357  0.4600
 6537TIP3    H141026   2.898   5.843   2.923 -0.9635  0.1326  0.6803
 6537TIP3    H241027   2.888   5.765   3.053  1.0849 -0.1686  0.6816
 6538TIP3   OH241028   3.674   1.409  10.849 -0.0500  0.1198 -0.2645
 6538TIP3    H141029   3.651   1.352  10.776  0.3159  0.2215 -0.4596
 6538TIP3    H241030   3.599   1.468  10.858  0.0526  0.3301 -0.7756
 6539TIP3   OH241031   3.735   0.839   3.029 -0.2088  0.4048  0.2172
 6539TIP3    H141032   3.779   0.909   3.076 -1.1540  0.4435  1.0990
 6539TIP3    H241033   3.644   0.868   3.022 -0.6618 -0.7952  0.7705
 6540TIP3   OH241034   2.658   2.380   0.801  0.4987 -0.1870  0.3793
 6540TIP3    H141035   2.730   2.380   0.864  0.6424 -2.6532  0.3169
 6540TIP3    H241036   2.594   2.319   0.838 -1.6113  1.8979  0.4032
 6541TIP3   OH241037   0.031   0.683  10.185  0.1270  0.1210 -0.5431
 6541TIP3    H141038  -0.064   0.686  10.176 -0.2707  0.8647  2.5459
 6541TIP3    H241039   0.048   0.599  10.227  0.0217  2.1334  4.1219
 6542TIP3   OH241040   1.940   5.573  15.301 -0.3079  0.4924  0.1080
 6542TIP3    H141041   1.902   5.516  15.234  2.2727 -0.6903 -0.4438
 6542TIP3    H241042   1.875   5.573  15.372 -0.9282 -2.1761 -0.3667
 6543TIP3   OH241043   3.209   1.959  12.047  0.1616  0.4157  0.0964
 6543TIP3    H141044   3.278   2.024  12.041 -0.1759  0.7990  0.3189
 6543TIP3    H241045   3.252   1.880  12.080  0.4408  0.7269  0.4775
 6544TIP3   OH241046   1.808   2.232   1.793 -0.3677  0.2818 -0.1289
 6544TIP3    H141047   1.849   2.158   1.749  0.1925 -0.5962  1.7589
 6544TIP3    H241048   1.875   2.265   1.853 -1.4974  0.5776  1.0247
 6545TIP3   OH241049   6.271   6.728  13.723 -0.8652  0.5586  0.1597
 6545TIP3    H141050   6.202   6.786  13.757  0.2628  1.3878  1.1531
 6545TIP3    H241051   6.345   6.744  13.781  0.2078 -0.2154 -0.9541
 6546TIP3   OH241052   1.076   1.304  12.699  0.4419 -0.0203 -0.4775
 6546TIP3    H141053   1.148   1.246  12.720 -0.1693 -1.1723 -1.3992
 6546TIP3    H241054   1.091   1.329  12.607  0.0985  0.3636 -0.4348
 6547TIP3   OH241055   4.650   3.958   5.660 -0.1041 -0.1770  0.1249
 6547TIP3    H141056   4.649   4.040   5.709  0.5234 -0.9914  1.5625
 6547TIP3    H241057   4.744   3.940   5.646 -0.0992 -1.7981  1.8873
 6548TIP3   OH241058   3.517   6.168   4.709 -0.4336 -0.0310 -0.3414
 6548TIP3    H141059   3.599   6.130   4.676 -0.6727  0.0317 -1.0261
 6548TIP3    H241060   3.477   6.209   4.632  0.4556  2.8343  0.5976
 6549TIP3   OH241061   5.507   2.482  15.716 -0.5693 -0.3861  0.1760
 6549TIP3    H141062   5.566   2.418  15.675 -1.2497 -1.4496  0.8293
 6549TIP3    H241063   5.454   2.431  15.777  0.6521  1.1789  2.7176
 6550TIP3   OH241064   0.698   5.632   3.598  0.2585  0.1995 -0.2219
 6550TIP3    H141065   0.719   5.670   3.683 -0.6766  0.4805 -0.1032
 6550TIP3    H241066   0.736   5.544   3.601 -2.3341 -0.9811  1.7202
 6551TIP3   OH241067   3.063   5.971  11.929  0.1801 -0.4373 -0.3869
 6551TIP3    H141068   3.027   5.915  11.860  0.4038 -0.2515 -0.6550
 6551TIP3    H241069   3.076   5.912  12.003 -3.3135 -0.0452  0.7340
 6552TIP3   OH241070   1.014   1.219   0.765  0.9217 -0.5110 -0.6282
 6552TIP3    H141071   1.030   1.247   0.675  0.9368  0.3853 -0.3524
 6552TIP3    H241072   1.090   1.167   0.788  1.4198  0.1420 -0.7772
 6553TIP3   OH241073   4.361   1.528   0.102 -0.5062  0.0005 -0.0832
 6553TIP3    H141074   4.432   1.563   0.048 -1.4578  1.0663 -0.6800
 6553TIP3    H241075   4.319   1.462   0.047  1.1400 -2.0458  0.9565
 6554TIP3   OH241076   3.800   3.319   3.765 -0.3016 -0.1003 -0.3136
 6554TIP3    H141077   3.723   3.264   3.780 -0.2033 -0.4864 -1.1540
 6554TIP3    H241078   3.868   3.280   3.820 -1.5192  2.2741  3.1957
 6555TIP3   OH241079   6.427   1.928  15.438 -0.3467  0.2925 -0.6676
 6555TIP3    H141080   6.388   1.967  15.516  0.4221  0.5006 -0.3756
 6555TIP3    H241081   6.492   1.993  15.409  3.5789 -2.0567  1.8544
 6556TIP3   OH241082   4.188   4.527   5.597  0.8018 -0.0807 -0.1916
 6556TIP3    H141083   4.272   4.498   5.632  1.8246  1.5131 -1.2031
 6556TIP3    H241084   4.145   4.570   5.671  1.5894  0.5167 -0.0665
 6557TIP3   OH241085   4.632   4.869  15.402  0.9337  0.3247  0.4479
 6557TIP3    H141086   4.669   4.821  15.327  0.0322  0.4844 -0.1097
 6557TIP3    H241087   4.538   4.857  15.395  0.3780  4.0704 -1.1262
 6558TIP3   OH241088   4.322   2.673   1.731  0.3078 -0.1020  0.0490
 6558TIP3    H141089   4.379   2.601   1.704  0.1471 -0.1626 -0.1277
 6558TIP3    H241090   4.322   2.668   1.826  1.2587  0.4082  0.0895
 6559TIP3   OH241091   4.311   4.362   0.053 -0.0098 -0.4838  0.2843
 6559TIP3    H141092   4.355   4.395   0.131 -2.8575 -1.1034  2.3008
 6559TIP3    H241093   4.340   4.271   0.046 -1.2077 -1.0220  1.8483
 6560TIP3   OH241094   0.198   5.905  13.090  0.1456 -0.3770 -0.5619
 6560TIP3    H141095   0.167   5.995  13.084 -0.1581 -0.5645 -1.9472
 6560TIP3    H241096   0.215   5.893  13.184  0.9357  1.3513 -0.4375
 6561TIP3   OH241097   1.374   0.411   3.237 -0.2875  0.4088 -0.1342
 6561TIP3    H141098   1.363   0.461   3.155 -0.2964  0.9780  0.2086
 6561TIP3    H241099   1.320   0.458   3.301 -3.0142 -1.9104 -0.5378
 6562TIP3   OH241100   2.965   3.090  16.480  0.5979  0.1637  0.3064
 6562TIP3    H141101   2.890   3.031  16.488 -0.0632  0.5796 -2.0316
 6562TIP3    H241102   2.946   3.161  16.542 -0.9411  0.2472 -0.2119
 6563TIP3   OH241103   6.625   2.312  10.223 -0.1434  0.2561 -0.0744
 6563TIP3    H141104   6.601   2.230  10.181  1.1258 -0.0086 -0.3509
 6563TIP3    H241105   6.661   2.286  10.308 -2.0115  0.7320  0.9144
 6564TIP3   OH241106   1.563   6.532  12.155  0.0086  0.3862  0.0186
 6564TIP3    H141107   1.526   6.449  12.183 -1.8379  1.5026  1.0358
 6564TIP3    H241108   1.523   6.549  12.069  1.4724 -0.3989 -0.8672
 6565TIP3   OH241109   0.158   2.105  11.465  0.2270  0.4247  0.0626
 6565TIP3    H141110   0.124   2.137  11.549  1.1073  1.6582 -0.0184
 6565TIP3    H241111   0.184   2.014  11.483 -1.8161 -0.1195  0.4569
 6566TIP3   OH241112   4.387   1.870  15.774 -0.8536 -0.3287 -0.0875
 6566TIP3    H141113   4.297   1.877  15.744 -0.6231 -0.8305 -0.9332
 6566TIP3    H241114   4.438   1.851  15.695 -0.2420 -1.8526  0.6312
 6567TIP3   OH241115   2.939   0.153  12.667  0.1965 -0.1495 -0.0491
 6567TIP3    H141116   2.943   0.237  12.620 -1.8652 -0.3795 -0.7678
 6567TIP3    H241117   3.022   0.148  12.714  0.9166  1.6957 -0.9936
 6568TIP3   OH241118   0.240   4.174  12.911  0.2673  0.3891  0.0534
 6568TIP3    H141119   0.240   4.198  12.819  1.0094 -0.3365 -0.1547
 6568TIP3    H241120   0.163   4.119  12.922  1.0428 -0.8561 -0.5247
 6569TIP3   OH241121   0.534   5.005  11.801 -0.2340  0.5143 -0.4972
 6569TIP3    H141122   0.629   5.010  11.810 -0.0755  0.4044 -1.9213
 6569TIP3    H241123   0.519   4.963  11.716 -1.5826 -3.3128  1.4007
 6570TIP3   OH241124   6.738   0.522   1.535 -0.1168  0.6556 -0.2874
 6570TIP3    H141125   6.703   0.575   1.607  4.3100  1.7074  1.4351
 6570TIP3    H241126   6.738   0.582   1.459 -0.8157  1.0093 -0.0159
 6571TIP3   OH241127   6.036   5.940  14.820  0.6624 -0.1073  0.0518
 6571TIP3    H141128   6.087   5.943  14.901  0.7932 -0.7431 -0.0052
 6571TIP3    H241129   5.948   5.918  14.848 -0.0851  2.8954  0.3691
 6572TIP3   OH241130   0.993   6.562   1.190 -0.9305 -0.2835  0.1223
 6572TIP3    H141131   1.035   6.643   1.160  2.0376 -2.4361 -2.3136
 6572TIP3    H241132   1.046   6.535   1.265 -0.9927 -0.6295  0.0418
 6573TIP3   OH241133   0.158   3.920   1.228 -0.6427  0.3738  0.2687
 6573TIP3    H141134   0.236   3.915   1.172 -0.2646 -4.1683  0.8245
 6573TIP3    H241135   0.191   3.909   1.317 -1.7707 -2.4987  0.4634
 6574TIP3   OH241136   0.885   5.144   2.743 -0.4364 -0.5859  0.0793
 6574TIP3    H141137   0.950   5.177   2.682 -0.1836 -2.5096 -0.7611
 6574TIP3    H241138   0.862   5.057   2.710  0.8100 -2.4043  3.4697
 6575TIP3   OH241139   5.982   1.607  11.247  0.1185  0.3871  0.4552
 6575TIP3    H141140   5.993   1.610  11.342  0.0986 -1.1573  0.5347
 6575TIP3    H241141   5.949   1.518  11.230 -2.6689  1.5379 -0.7152
 6576TIP3   OH241142   2.167   6.607   2.559  0.5426 -0.0912  0.5570
 6576TIP3    H141143   2.193   6.635   2.646  1.5570 -0.6846  0.4499
 6576TIP3    H241144   2.242   6.627   2.503 -0.7500  1.9997 -0.5675
 6577TIP3   OH241145   0.999   4.843   2.460 -0.0683  0.3713  0.3940
 6577TIP3    H141146   1.083   4.890   2.459 -0.2370  0.7982  2.4545
 6577TIP3    H241147   0.946   4.889   2.395  1.1413  0.3295 -0.6752
 6578TIP3   OH241148   6.759   4.447   0.092  0.5512 -0.2125 -0.1523
 6578TIP3    H141149   6.803   4.400   0.163 -2.0623 -1.1484  0.9776
 6578TIP3    H241150   6.681   4.394   0.072 -0.8793  2.0392 -0.9834
 6579TIP3   OH241151   4.912   4.457  11.616  0.1449 -0.3363  0.0867
 6579TIP3    H141152   4.825   4.418  11.616 -0.9746  1.9404 -0.8608
 6579TIP3    H241153   4.970   4.387  11.589 -1.2257 -2.1704  1.6556
 6580TIP3   OH241154   1.504   1.728   5.549 -0.3340  0.8782  0.6221
 6580TIP3    H141155   1.419   1.764   5.572 -1.0525 -0.8416  0.8566
 6580TIP3    H241156   1.540   1.695   5.632 -2.5278 -4.5189 -0.1335
 6581TIP3   OH241157   2.531   0.617  12.648  0.0305 -0.1242  0.2455
 6581TIP3    H141158   2.577   0.553  12.593  3.2297  0.5093  1.9493
 6581TIP3    H241159   2.506   0.687  12.587 -0.3868 -1.3629 -1.0621
 6582TIP3   OH241160   4.111   1.161   4.992 -0.2243 -0.2961  0.1729
 6582TIP3    H141161   4.050   1.193   4.926  0.0922  1.6709  0.7648
 6582TIP3    H241162   4.196   1.161   4.948 -0.2181 -0.2563  0.1848
 6583TIP3   OH241163   5.980   5.526   4.858 -0.4589 -0.2821  0.1279
 6583TIP3    H141164   5.886   5.512   4.866 -0.2615 -2.0203 -0.2591
 6583TIP3    H241165   5.997   5.523   4.764  0.0964 -0.8420  0.2412
 6584TIP3   OH241166   5.278   2.675   3.955 -0.3502 -0.7043  0.5910
 6584TIP3    H141167   5.320   2.590   3.941 -1.1076 -1.2907  1.7495
 6584TIP3    H241168   5.188   2.663   3.924  0.3646  0.7258 -2.4593
 6585TIP3   OH241169   0.226   2.048  15.315  0.2175  0.0579 -0.6423
 6585TIP3    H141170   0.240   2.099  15.236 -0.5888  1.0582 -0.1636
 6585TIP3    H241171   0.244   2.109  15.387 -1.6055 -0.0221 -0.0553
 6586TIP3   OH241172   4.570   1.264  12.986 -0.0600 -0.2147 -0.5052
 6586TIP3    H141173   4.484   1.264  13.030  0.7705  2.2389  1.3959
 6586TIP3    H241174   4.560   1.328  12.916 -0.3066 -1.3947 -1.5758
 6587TIP3   OH241175   4.401   5.782  15.445  0.9442  0.2080 -0.3722
 6587TIP3    H141176   4.306   5.780  15.438  0.9315 -1.2332  0.0152
 6587TIP3    H241177   4.423   5.875  15.436 -0.6853  0.9030  1.9668
 6588TIP3   OH241178   6.676   5.480  15.112 -0.0826 -0.1524  0.2966
 6588TIP3    H141179   6.770   5.493  15.098 -0.2791 -0.3022 -1.2971
 6588TIP3    H241180   6.650   5.418  15.044 -1.0915 -1.1946  1.5836
 6589TIP3   OH241181   1.802   0.635   4.083  0.2408 -0.0512  0.3083
 6589TIP3    H141182   1.793   0.677   3.997  1.9536 -0.5656 -0.1724
 6589TIP3    H241183   1.792   0.706   4.146 -0.6887  0.3954 -0.3267
 6590TIP3   OH241184   2.341   5.211  11.084  0.4275  0.2741 -0.5553
 6590TIP3    H141185   2.381   5.167  11.159  0.8339 -1.3042 -1.6423
 6590TIP3    H241186   2.340   5.145  11.015 -2.6636  0.6967 -1.0873
 6591TIP3   OH241187   1.871   1.164   5.794  0.2992  0.0367  0.0249
 6591TIP3    H141188   1.882   1.243   5.741 -2.1045  0.0092 -0.6491
 6591TIP3    H241189   1.904   1.093   5.739  0.7930  0.3654 -0.1071
 6592TIP3   OH241190   1.534   0.113   6.530  0.2622  0.5140  0.3043
 6592TIP3    H141191   1.510   0.067   6.611  0.8434 -0.8171 -0.2605
 6592TIP3    H241192   1.467   0.086   6.467  0.4558  0.6671  0.0347
 6593TIP3   OH241193   0.911   5.877   1.462  0.4596 -0.3098  0.1370
 6593TIP3    H141194   0.884   5.944   1.525  0.7773  1.0729 -1.1328
 6593TIP3    H241195   0.919   5.797   1.514 -1.4649  0.2531  1.4363
 6594TIP3   OH241196   5.125   3.224  12.282 -0.0604  0.1899  0.0255
 6594TIP3    H141197   5.170   3.289  12.228  0.4618 -0.6809 -0.5931
 6594TIP3    H241198   5.147   3.249  12.372  1.5458 -0.1257 -0.2528
 6595TIP3   OH241199   0.187   0.381   1.901  0.2281  0.1819 -0.7744
 6595TIP3    H141200   0.231   0.313   1.850  0.1348 -0.0049 -0.6103
 6595TIP3    H241201   0.257   0.433   1.939  0.2989  0.3757 -1.1609
 6596TIP3   OH241202   5.130   0.489  11.463 -0.8182 -0.1907 -0.1105
 6596TIP3    H141203   5.071   0.560  11.438 -1.8364 -1.1000 -0.3623
 6596TIP3    H241204   5.106   0.417  11.405  0.1102 -0.7913  0.2301
 6597TIP3   OH241205   6.082   2.809   2.854  0.0613 -0.0771 -0.2498
 6597TIP3    H141206   6.171   2.846   2.850 -0.4462  1.1306 -1.1477
 6597TIP3    H241207   6.065   2.795   2.947  0.6397  1.0924  0.0455
 6598TIP3   OH241208   3.164   0.881   3.651  0.2416 -0.2968 -0.4881
 6598TIP3    H141209   3.118   0.803   3.682  0.2409 -0.0137  0.2400
 6598TIP3    H241210   3.227   0.900   3.721 -0.5486  1.0279 -0.1067
 6599TIP3   OH241211   1.575   0.870  10.263 -0.0468  0.5298 -0.0733
 6599TIP3    H141212   1.580   0.782  10.226  0.8615 -0.7821  2.8500
 6599TIP3    H241213   1.636   0.868  10.337 -1.5913  2.9350  1.3989
 6600TIP3   OH241214   4.771   1.485  12.574 -0.5370  0.0659 -0.6173
 6600TIP3    H141215   4.753   1.534  12.655  3.7601 -1.1790  1.3872
 6600TIP3    H241216   4.784   1.395  12.604  2.3398 -0.2218 -2.4247
 6601TIP3   OH241217   3.446   1.397  13.342 -0.6925  0.5353 -0.1603
 6601TIP3    H141218   3.366   1.346  13.356 -0.5457  0.2589 -0.3135
 6601TIP3    H241219   3.434   1.476  13.394 -1.3028  0.7455 -0.6073
 6602TIP3   OH241220   5.712   0.488  13.985 -0.4293 -0.6453 -0.0319
 6602TIP3    H141221   5.660   0.508  13.907 -2.2603 -2.8158  0.5425
 6602TIP3    H241222   5.760   0.408  13.962  0.4162 -0.2971  0.4761
 6603TIP3   OH241223   2.325   6.705  11.876 -0.0795  0.2894  0.2472
 6603TIP3    H141224   2.264   6.775  11.898  1.7947  1.9958  0.3422
 6603TIP3    H241225   2.276   6.624  11.891 -2.3446  1.5473  0.0883
 6604TIP3   OH241226   3.796   6.175  15.234 -0.0110  0.1093 -0.7832
 6604TIP3    H141227   3.790   6.093  15.185 -0.7988 -0.8772  0.8865
 6604TIP3    H241228   3.734   6.233  15.190 -0.9122 -0.8443 -0.8230
 6605TIP3   OH241229   2.187   5.989   0.972  0.4328  0.1120  0.2749
 6605TIP3    H141230   2.226   5.905   0.998  1.8337  0.5562 -0.2652
 6605TIP3    H241231   2.112   6.000   1.030 -0.1703 -1.8104 -0.0724
 6606TIP3   OH241232   2.241   5.070   5.374 -0.3120 -0.7398 -0.2800
 6606TIP3    H141233   2.242   5.115   5.458  0.5136 -1.5044  0.1410
 6606TIP3    H241234   2.153   5.084   5.339 -0.4118  0.2317  0.3530
 6607TIP3   OH241235   2.945   0.505  17.241  0.4033  0.3468 -0.2309
 6607TIP3    H141236   2.878   0.561  17.281 -0.9693 -0.7046 -0.9292
 6607TIP3    H241237   2.977   0.557  17.167  0.6768  1.0333  0.3550
 6608TIP3   OH241238   0.625   4.727  15.253 -0.5465  0.2938 -0.2858
 6608TIP3    H141239   0.693   4.660  15.259  1.1340  1.8692 -1.0174
 6608TIP3    H241240   0.638   4.767  15.167 -0.7980  2.2942  0.5615
 6609TIP3   OH241241   6.521   6.095   1.728  0.3401 -0.0385 -0.1359
 6609TIP3    H141242   6.516   6.191   1.730 -1.8185 -0.0946 -0.6347
 6609TIP3    H241243   6.529   6.074   1.635 -1.4678 -0.3723 -0.2484
 6610TIP3   OH241244   3.269   4.232  11.809  0.6455  0.0973  0.2729
 6610TIP3    H141245   3.309   4.148  11.829 -0.6287 -0.9081 -1.2011
 6610TIP3    H241246   3.190   4.211  11.759  0.2150  2.1611 -0.0393
 6611TIP3   OH241247   1.088   4.104   1.686  0.1018 -0.1006 -0.1179
 6611TIP3    H141248   1.127   4.020   1.663  0.2802 -0.3416  1.0089
 6611TIP3    H241249   1.141   4.169   1.640  0.7618 -0.5312  0.0227
 6612TIP3   OH241250   6.454   4.535   6.177 -0.2760 -0.4003 -0.1901
 6612TIP3    H141251   6.362   4.543   6.203 -0.1703 -0.4384  0.1992
 6612TIP3    H241252   6.498   4.500   6.255  0.0538 -0.4640 -0.4032
 6613TIP3   OH241253   3.596   1.719   0.559 -0.4895  0.2369 -0.4434
 6613TIP3    H141254   3.655   1.644   0.566 -1.8540 -0.7373  1.7289
 6613TIP3    H241255   3.653   1.796   0.566  0.7990 -0.5942 -1.4328
 6614TIP3   OH241256   1.343   2.659   4.480 -0.3366 -0.6473 -0.5027
 6614TIP3    H141257   1.340   2.604   4.401 -1.3808  1.0563 -1.7263
 6614TIP3    H241258   1.300   2.740   4.454 -0.2171  0.1855  1.6957
 6615TIP3   OH241259   1.323   2.898   3.073  0.6391 -0.2297  0.0650
 6615TIP3    H141260   1.344   2.884   3.165 -2.0338 -0.2397  0.7581
 6615TIP3    H241261   1.287   2.987   3.069  1.4259  0.0622 -1.1314
 6616TIP3   OH241262   5.613   0.312   6.043  0.0554 -0.2236 -0.6084
 6616TIP3    H141263   5.591   0.221   6.023 -1.1470 -0.6010  2.0395
 6616TIP3    H241264   5.636   0.350   5.958 -2.0568 -2.2549 -2.2238
 6617TIP3   OH241265   0.344   6.304  12.857 -0.1560  0.5668  0.3754
 6617TIP3    H141266   0.276   6.239  12.875 -0.3153  0.7217  0.3321
 6617TIP3    H241267   0.349   6.356  12.938  0.0012  0.4748  0.4253
 6618TIP3   OH241268   5.129   1.328  14.506  0.6530 -0.3307  0.0426
 6618TIP3    H141269   5.159   1.252  14.555  2.3590  0.2806 -0.0201
 6618TIP3    H241270   5.174   1.402  14.545 -0.6220  0.6219 -0.2166
 6619TIP3   OH241271   0.563   1.952   5.279  0.0197 -0.2137 -0.0009
 6619TIP3    H141272   0.601   2.040   5.277 -0.2100 -0.1262 -0.5396
 6619TIP3    H241273   0.639   1.893   5.279  0.1785 -0.0182  0.6214
 6620TIP3   OH241274   4.782   4.612   1.557 -0.1666  0.2697  0.3438
 6620TIP3    H141275   4.827   4.531   1.580  0.6415  0.5140 -0.2904
 6620TIP3    H241276   4.689   4.590   1.558  0.0955 -1.1938 -1.7035
 6621TIP3   OH241277   1.096   4.297  14.450 -0.4944  0.6826 -0.4150
 6621TIP3    H141278   1.064   4.214  14.416 -0.8543  0.8676 -0.5278
 6621TIP3    H241279   1.163   4.325  14.388 -0.0106  0.2303 -0.1060
 6622TIP3   OH241280   5.856   6.786  15.900  0.2591  0.4302 -0.0628
 6622TIP3    H141281   5.899   6.706  15.872 -0.7598  0.0131 -0.4630
 6622TIP3    H241282   5.862   6.844  15.824  1.1418  0.8214  0.2794
 6623TIP3   OH241283   5.120   1.435   0.791  0.1912  0.8760 -0.7970
 6623TIP3    H141284   5.180   1.363   0.808 -0.0370  0.8275 -0.1971
 6623TIP3    H241285   5.033   1.394   0.788  0.0806  1.1009 -0.6461
 6624TIP3   OH241286   1.761   1.550  15.609  0.0984  0.2489  0.3779
 6624TIP3    H141287   1.736   1.640  15.627 -0.1406  0.1345  0.6099
 6624TIP3    H241288   1.694   1.518  15.548  0.7339  0.5400 -0.4994
 6625TIP3   OH241289   5.283   4.729   2.396  0.1286 -0.2075 -0.8697
 6625TIP3    H141290   5.343   4.764   2.330  0.3524  0.5217 -0.2972
 6625TIP3    H241291   5.290   4.790   2.470  1.6110 -2.1788  0.7513
 6626TIP3   OH241292   6.080   2.274   2.693 -0.1868 -0.0495 -0.4480
 6626TIP3    H141293   6.014   2.224   2.741  1.2093 -0.2597  1.3556
 6626TIP3    H241294   6.152   2.213   2.679  0.2308  0.5633 -1.0763
 6627TIP3   OH241295   2.305   1.473   2.815  0.6045 -0.1727  0.2908
 6627TIP3    H141296   2.344   1.525   2.885  0.2960 -0.1992  0.4836
 6627TIP3    H241297   2.217   1.509   2.804  0.9504  0.4228 -0.7010
 6628TIP3   OH241298   0.523   5.038  13.568  0.4128 -0.1907  0.2434
 6628TIP3    H141299   0.475   4.966  13.608 -1.0050  1.2000  1.1672
 6628TIP3    H241300   0.457   5.088  13.521  1.3633  0.5184 -0.3852
 6629TIP3   OH241301   6.008   1.793  12.170  0.3333  0.6570 -0.4836
 6629TIP3    H141302   5.916   1.779  12.146  0.6533  0.1532 -1.5000
 6629TIP3    H241303   6.021   1.887  12.161 -0.2272  0.8138  0.2451
 6630TIP3   OH241304   0.107   0.238  14.651  0.4787  0.0894  0.0147
 6630TIP3    H141305   0.116   0.217  14.744  0.6466  3.3775  0.8745
 6630TIP3    H241306   0.019   0.276  14.644  0.9575  1.0797 -0.8563
 6631TIP3   OH241307   3.309   2.300  14.440  0.2884  0.5416  0.7643
 6631TIP3    H141308   3.292   2.394  14.445 -0.3445  0.4753  0.0706
 6631TIP3    H241309   3.221   2.261  14.435  0.5569  0.0919 -1.6414
 6632TIP3   OH241310   3.052   4.718   6.417 -0.7316 -0.0748 -0.1858
 6632TIP3    H141311   2.981   4.669   6.458 -0.4128  0.3143  0.8383
 6632TIP3    H241312   3.129   4.663   6.426 -0.5299  0.2850  0.2944
 6633TIP3   OH241313   0.767   1.427  15.924 -0.4523 -0.3546  0.2812
 6633TIP3    H141314   0.724   1.416  15.839 -0.7600  0.2913  0.3532
 6633TIP3    H241315   0.697   1.447  15.985 -0.4413 -2.2894  1.0186
 6634TIP3   OH241316   0.805   3.830  11.355  0.4253 -0.2178  0.3305
 6634TIP3    H141317   0.764   3.868  11.277 -3.2689 -0.0732  2.1124
 6634TIP3    H241318   0.795   3.736  11.344  1.4564 -0.2988 -0.0628
 6635TIP3   OH241319   5.773   0.570   4.689  0.5776 -0.3279  0.0928
 6635TIP3    H141320   5.704   0.591   4.626  0.8870  0.8565  0.1159
 6635TIP3    H241321   5.733   0.510   4.751 -0.7868  1.2516  0.7895
 6636TIP3   OH241322   1.672   0.054   1.676  0.1093 -0.8706  0.1810
 6636TIP3    H141323   1.756   0.059   1.721 -0.4232  0.5501  1.0908
 6636TIP3    H241324   1.609   0.089   1.739 -0.8470 -0.0015 -1.2007
 6637TIP3   OH241325   0.921   5.313  14.351  0.4808 -0.4337 -0.4240
 6637TIP3    H141326   0.895   5.399  14.317  0.6858 -0.9306 -1.9118
 6637TIP3    H241327   1.010   5.326  14.384  1.1976 -0.4107 -2.2188
 6638TIP3   OH241328   3.715   4.622   1.640  0.4805  0.5557  0.1090
 6638TIP3    H141329   3.623   4.599   1.639  0.9160 -1.4110 -1.1927
 6638TIP3    H241330   3.717   4.718   1.643 -1.5779  0.6081  0.5088
 6639TIP3   OH241331   0.551   1.141   1.937 -0.2936  0.1489 -0.0438
 6639TIP3    H141332   0.463   1.174   1.916 -0.7384 -0.6053  0.5827
 6639TIP3    H241333   0.606   1.174   1.866 -1.0069  0.9574 -0.2402
 6640TIP3   OH241334   4.521   0.623  14.927  0.1923  0.3592  0.8732
 6640TIP3    H141335   4.540   0.636  14.834 -0.0614  3.0657  1.1153
 6640TIP3    H241336   4.449   0.560  14.928  1.4622 -1.2339 -0.6168
 6641TIP3   OH241337   1.106   2.069   2.816  0.5643  0.3814 -0.5031
 6641TIP3    H141338   1.096   2.156   2.855 -2.7046 -0.2606  0.3199
 6641TIP3    H241339   1.068   2.009   2.880  0.2948 -1.3670 -2.2151
 6642TIP3   OH241340   3.260   5.052  15.819  0.2918 -0.0145  0.2252
 6642TIP3    H141341   3.343   5.040  15.772 -0.3110 -1.1317 -0.6068
 6642TIP3    H241342   3.286   5.057  15.912  1.2156 -1.5115  0.0858
 6643TIP3   OH241343   2.570   5.073  13.654 -0.1682  0.1967 -0.1232
 6643TIP3    H141344   2.565   4.983  13.688  0.1362 -0.1526 -0.9777
 6643TIP3    H241345   2.541   5.066  13.564  2.4093  0.4442 -1.0595
 6644TIP3   OH241346   4.765   1.345  16.605  0.2384 -0.7460  0.4377
 6644TIP3    H141347   4.849   1.365  16.646  1.6358 -1.5678 -1.8735
 6644TIP3    H241348   4.718   1.429  16.605  1.5837  0.0341  0.5887
 6645TIP3   OH241349   5.904   3.310  14.014 -0.4584 -0.0238 -0.0267
 6645TIP3    H141350   5.876   3.276  13.929 -1.5794 -1.3499  0.8222
 6645TIP3    H241351   5.831   3.365  14.043 -0.3325 -0.0468  0.3344
 6646TIP3   OH241352   3.815   3.178  12.916  0.0028 -0.3139 -0.0176
 6646TIP3    H141353   3.832   3.260  12.962  0.3962 -0.8284  0.7811
 6646TIP3    H241354   3.777   3.121  12.983 -0.2553 -0.7872 -0.5632
 6647TIP3   OH241355   6.133   0.534   1.553  0.0244 -0.5975  0.6756
 6647TIP3    H141356   6.151   0.447   1.591  1.9938 -0.8196 -0.5879
 6647TIP3    H241357   6.206   0.588   1.585 -1.2822  0.6820  1.5874
 6648TIP3   OH241358   3.091   0.329   2.637 -0.4504 -0.0907  0.7989
 6648TIP3    H141359   3.060   0.251   2.591 -0.0353  0.5406 -0.5964
 6648TIP3    H241360   3.063   0.402   2.582  2.6078  0.5547 -0.0518
 6649TIP3   OH241361   2.697   5.135  17.240 -0.2027 -0.1008  0.2837
 6649TIP3    H141362   2.755   5.164  17.310  1.1883 -2.9982  0.5161
 6649TIP3    H241363   2.730   5.178  17.161 -0.4121  1.4906  1.0253
 6650TIP3   OH241364   2.791   3.702   0.869  0.1008 -0.5611  0.1383
 6650TIP3    H141365   2.836   3.639   0.924  2.1155  1.0097  0.4097
 6650TIP3    H241366   2.855   3.727   0.802 -1.3871 -0.4253 -1.3026
 6651TIP3   OH241367   4.818   0.993  14.572 -0.1799  0.2106 -0.4806
 6651TIP3    H141368   4.849   1.058  14.508  2.7893  0.7821  1.3515
 6651TIP3    H241369   4.896   0.942  14.594 -1.3776 -0.7571  1.7923
 6652TIP3   OH241370   5.751   3.813   6.507  0.2633 -0.4104 -0.0252
 6652TIP3    H141371   5.679   3.750   6.510  0.5173 -0.7369  3.7524
 6652TIP3    H241372   5.830   3.760   6.515  0.8587  0.1198 -1.8775
 6653TIP3   OH241373   4.463   6.689  14.724  0.1814 -0.6949 -0.3151
 6653TIP3    H141374   4.547   6.644  14.734  0.4336 -0.2119 -0.2043
 6653TIP3    H241375   4.477   6.775  14.766 -0.5341 -0.8097  0.1836
 6654TIP3   OH241376   5.551   1.797   3.088 -0.2080 -0.2455  0.1993
 6654TIP3    H141377   5.521   1.888   3.100  3.8310  1.3853 -0.6008
 6654TIP3    H241378   5.506   1.768   3.009 -1.7439  0.9131  0.5861
 6655TIP3   OH241379   1.697   1.903   5.456  0.4492 -0.3952  0.1604
 6655TIP3    H141380   1.724   1.923   5.366 -1.6182  0.9770 -0.2317
 6655TIP3    H241381   1.641   1.826   5.448  0.4196 -0.3877  0.2916
 6656TIP3   OH241382   6.584   5.467  12.090 -0.9276  0.1893 -0.2928
 6656TIP3    H141383   6.600   5.496  12.179 -1.7053  0.2751 -0.1739
 6656TIP3    H241384   6.494   5.435  12.090 -1.0341  0.4514 -1.1134
 6657TIP3   OH241385   2.908   5.542   2.458  0.1432  0.1789 -0.4112
 6657TIP3    H141386   2.836   5.539   2.396  0.0523  0.6641 -0.3304
 6657TIP3    H241387   2.868   5.571   2.540  0.1945 -0.7765 -0.0259
 6658TIP3   OH241388   2.974   1.320  12.089 -0.1700 -0.3472  0.1060
 6658TIP3    H141389   2.967   1.225  12.088  0.1777 -0.3977  1.0269
 6658TIP3    H241390   2.884   1.351  12.095 -0.4488 -0.5335 -2.3337
 6659TIP3   OH241391   1.193   0.850  14.001  0.2714  0.6358  0.3380
 6659TIP3    H141392   1.265   0.882  13.946  0.9313 -0.4610  0.5206
 6659TIP3    H241393   1.127   0.820  13.939 -1.1535  3.8552  0.1286
 6660TIP3   OH241394   5.253   0.724  13.523  0.0388  0.0246  0.3286
 6660TIP3    H141395   5.239   0.656  13.589  0.0559 -0.0655  0.2388
 6660TIP3    H241396   5.201   0.697  13.448  0.4934 -0.1865  0.0837
 6661TIP3   OH241397   0.830   0.993  15.157 -0.5116  0.8803  0.3623
 6661TIP3    H141398   0.835   1.031  15.070 -2.9165 -0.7746 -0.5915
 6661TIP3    H241399   0.892   0.920  15.156 -0.5750  0.8331  0.0258
 6662TIP3   OH241400   1.417   2.008  15.253  0.5682 -0.5458  0.2535
 6662TIP3    H141401   1.365   1.930  15.235  1.0712 -0.9369  0.4609
 6662TIP3    H241402   1.503   1.974  15.277  1.0761  0.0995 -0.5793
 6663TIP3   OH241403   2.067   2.639   2.659 -0.2841  0.0124 -0.5648
 6663TIP3    H141404   2.040   2.567   2.717 -0.2569 -0.6817 -1.3923
 6663TIP3    H241405   2.006   2.710   2.680  1.0172  0.5650  1.8027
 6664TIP3   OH241406   0.370   4.129  16.617 -0.4572 -0.1483  0.3931
 6664TIP3    H141407   0.293   4.096  16.572 -0.3516 -0.0720  0.1530
 6664TIP3    H241408   0.336   4.194  16.679 -0.7505 -1.3042  1.4727
 6665TIP3   OH241409   3.357   5.945   3.296 -0.0573 -0.6497  0.2825
 6665TIP3    H141410   3.303   5.976   3.223 -0.0147  0.0967  0.5576
 6665TIP3    H241411   3.345   6.012   3.364  1.7996 -0.0443  0.0807
 6666TIP3   OH241412   1.318   5.395  15.857 -0.3216  0.0086 -0.0579
 6666TIP3    H141413   1.396   5.341  15.847 -0.8036 -0.9545  1.1879
 6666TIP3    H241414   1.245   5.336  15.839 -0.8032  0.6495 -0.2432
 6667TIP3   OH241415   2.052   4.989   2.604 -0.3641  0.4086  0.1553
 6667TIP3    H141416   1.974   4.947   2.568 -0.9076  2.0909 -0.7255
 6667TIP3    H241417   2.119   4.979   2.536  0.5770 -1.8745  1.2820
 6668TIP3   OH241418   5.075   0.872   2.940 -0.4667 -0.1116 -0.4795
 6668TIP3    H141419   5.007   0.850   3.005 -0.0674 -0.1090 -0.0578
 6668TIP3    H241420   5.069   0.802   2.875 -0.2277 -0.6457  0.0651
 6669TIP3   OH241421   0.837   2.972   4.015  0.0648  0.1547 -0.1151
 6669TIP3    H141422   0.749   2.936   4.017  0.1171  0.0626  0.5131
 6669TIP3    H241423   0.880   2.938   4.093  0.4915  0.6270 -0.1356
 6670TIP3   OH241424   5.640   1.616   3.800 -0.0325  0.3380 -0.2061
 6670TIP3    H141425   5.606   1.581   3.883 -0.1457 -1.3207 -0.9081
 6670TIP3    H241426   5.618   1.709   3.803  0.3032  0.4012  1.7793
 6671TIP3   OH241427   0.465   0.019   3.090  0.0885  0.4958  0.5542
 6671TIP3    H141428   0.415   0.082   3.142  0.1487  0.8849  0.1472
 6671TIP3    H241429   0.426  -0.066   3.111  0.3273  0.6084  1.4781
 6672TIP3   OH241430   5.303   2.634   0.920  0.0752 -0.6495  0.4109
 6672TIP3    H141431   5.303   2.713   0.867  0.3245 -0.6420  0.4201
 6672TIP3    H241432   5.372   2.579   0.883  1.5770  0.1485  1.8754
 6673TIP3   OH241433   6.126   3.860   0.827 -0.4644 -0.2597  0.4036
 6673TIP3    H141434   6.164   3.782   0.869 -1.0559 -0.5085  0.4921
 6673TIP3    H241435   6.201   3.914   0.804 -0.1125 -0.1966  1.6427
 6674TIP3   OH241436   0.940   2.998   2.041 -0.2628 -0.2667 -0.5082
 6674TIP3    H141437   1.013   3.058   2.052 -0.0258 -0.9200  2.4098
 6674TIP3    H241438   0.865   3.046   2.076 -1.2455  0.2674 -3.1580
 6675TIP3   OH241439   3.367   1.923   5.870  0.2827  0.1446  0.3318
 6675TIP3    H141440   3.298   1.904   5.933 -0.9098 -0.0353 -1.0013
 6675TIP3    H241441   3.446   1.888   5.911 -0.9240 -2.6968  0.4179
 6676TIP3   OH241442   0.209   0.110   2.513 -0.1395 -0.2820 -0.2090
 6676TIP3    H141443   0.174   0.133   2.599 -0.9552 -0.6682 -0.4239
 6676TIP3    H241444   0.140   0.057   2.473  0.9082 -1.5198 -0.4434
 6677TIP3   OH241445   1.933   0.667  12.221  0.0526  1.3455  0.1370
 6677TIP3    H141446   1.945   0.611  12.297 -0.6534  0.3326 -0.4637
 6677TIP3    H241447   2.014   0.659  12.171 -0.2708  0.3327 -0.2564
 6678TIP3   OH241448   5.591   4.941   5.174 -0.1673  0.7650 -0.0257
 6678TIP3    H141449   5.625   4.860   5.135  0.0712  2.1876 -3.1126
 6678TIP3    H241450   5.669   4.996   5.184 -0.4361  0.9293  1.3328
 6679TIP3   OH241451   1.484   3.269   4.858 -0.2363  0.0431 -0.1672
 6679TIP3    H141452   1.493   3.239   4.949 -0.9392  0.0779 -0.0872
 6679TIP3    H241453   1.451   3.192   4.811 -1.0555  0.3832 -0.1567
 6680TIP3   OH241454   1.702   4.442  16.568  0.6137  0.3208  0.3424
 6680TIP3    H141455   1.670   4.364  16.613  1.6726  0.1922  0.9087
 6680TIP3    H241456   1.623   4.493  16.549 -0.0010 -0.4365  0.8183
 6681TIP3   OH241457   6.713   2.019   0.306  0.1184  0.0851 -0.5648
 6681TIP3    H141458   6.732   1.948   0.244  0.5146 -0.1620 -0.1624
 6681TIP3    H241459   6.689   1.973   0.387  0.2728  0.4119 -0.3355
 6682TIP3   OH241460   3.076   6.683  12.871  0.6441  0.4496 -0.4534
 6682TIP3    H141461   3.045   6.594  12.890 -0.2538  1.0455  1.0595
 6682TIP3    H241462   3.000   6.738  12.889  2.1920  1.8625  2.1718
 6683TIP3   OH241463   4.090   2.017   5.952  0.0449 -0.6187 -0.2847
 6683TIP3    H141464   4.064   2.110   5.951 -0.1069 -0.6614 -0.4768
 6683TIP3    H241465   4.045   1.980   5.876  0.5577 -0.7242 -0.5400
 6684TIP3   OH241466   1.708   1.030  10.943 -0.5706  0.9828 -0.0281
 6684TIP3    H141467   1.693   1.091  10.871  0.5591  1.8522  0.4540
 6684TIP3    H241468   1.798   1.000  10.932 -1.3367 -1.3161 -0.7563
 6685TIP3   OH241469   1.977   5.202  12.112  0.1909  0.1808 -0.4449
 6685TIP3    H141470   1.955   5.109  12.107  2.0115 -0.4937  2.4179
 6685TIP3    H241471   1.892   5.246  12.109 -1.0872 -1.8354  1.9959
 6686TIP3   OH241472   6.736   0.356   0.007  0.1054  0.3347 -0.2356
 6686TIP3    H141473   6.738   0.444  -0.030 -1.8205  0.7326  0.5080
 6686TIP3    H241474   6.749   0.298  -0.067 -0.5802  1.1884 -1.0377
 6687TIP3   OH241475   5.013   5.427   4.913  0.2885 -0.2819 -0.5094
 6687TIP3    H141476   5.103   5.422   4.947  1.0702  0.3893 -2.3517
 6687TIP3    H241477   5.012   5.365   4.840 -0.3478  0.6962 -1.3485
 6688TIP3   OH241478   3.932   2.756   5.133  0.1855  0.3064  0.2106
 6688TIP3    H141479   3.901   2.738   5.045  0.9470 -0.0262 -0.0007
 6688TIP3    H241480   4.017   2.713   5.138 -0.1047 -0.1780  1.3022
 6689TIP3   OH241481   4.462   4.894  13.141 -0.2644  0.2715 -0.5905
 6689TIP3    H141482   4.545   4.875  13.097 -0.4281  1.7989 -1.6646
 6689TIP3    H241483   4.410   4.941  13.075 -1.4706  0.5220  0.4852
 6690TIP3   OH241484   4.360   4.374  13.274 -0.4169 -0.4114 -0.3471
 6690TIP3    H141485   4.319   4.455  13.244 -1.4369 -0.9375 -0.4209
 6690TIP3    H241486   4.410   4.399  13.352  1.3977  0.7663 -1.8216
 6691TIP3   OH241487   2.923   3.118   2.589 -0.5019 -0.2433  0.5627
 6691TIP3    H141488   2.846   3.064   2.571 -1.3502  0.9985  0.3933
 6691TIP3    H241489   2.997   3.058   2.579 -1.4179 -1.3830  0.4356
 6692TIP3   OH241490   4.725   2.011   2.821 -0.2764  0.6463  0.6446
 6692TIP3    H141491   4.756   2.097   2.849  0.4140  0.3537  0.8146
 6692TIP3    H241492   4.790   1.982   2.757 -1.5958  1.1158 -0.9635
 6693TIP3   OH241493   2.805   5.843  14.397 -0.1064 -0.4771 -0.0154
 6693TIP3    H141494   2.897   5.834  14.375  0.1518  0.9378  0.3936
 6693TIP3    H241495   2.803   5.836  14.493 -0.0771  1.8586  0.2007
 6694TIP3   OH241496   3.315   5.067  16.152  0.1281 -0.2179 -0.1547
 6694TIP3    H141497   3.306   5.037  16.242  1.6906 -1.2837 -0.3230
 6694TIP3    H241498   3.275   4.998  16.099 -2.2352  1.1336 -0.2596
 6695TIP3   OH241499   1.195   2.051  14.256  0.4426 -0.0515 -0.1589
 6695TIP3    H141500   1.189   2.061  14.351 -1.5059  0.8847 -0.3355
 6695TIP3    H241501   1.105   2.036  14.227  0.9535 -0.0289 -1.8996
 6696TIP3   OH241502   0.097   3.311   1.863 -0.0564 -0.0942 -0.0780
 6696TIP3    H141503   0.044   3.279   1.935 -0.8879 -0.0681 -0.6654
 6696TIP3    H241504   0.121   3.232   1.813  0.2970 -0.0857  0.0739
 6697TIP3   OH241505   5.517   3.398  17.122  0.0554  0.6126  0.0833
 6697TIP3    H141506   5.523   3.411  17.217 -1.0925  1.6729  0.0390
 6697TIP3    H241507   5.525   3.486  17.086  0.0875  0.2588 -0.7826
 6698TIP3   OH241508   0.260   1.354  14.639 -0.7027  0.0277  0.1609
 6698TIP3    H141509   0.289   1.263  14.643  1.5099  0.6152 -0.9951
 6698TIP3    H241510   0.207   1.366  14.718 -1.6424 -2.4072 -0.0015
 6699TIP3   OH241511   0.435   5.205  14.639  0.7834 -0.2645 -0.0504
 6699TIP3    H141512   0.426   5.235  14.549 -0.7053 -1.4529 -0.3430
 6699TIP3    H241513   0.389   5.121  14.641  0.8001 -0.2765  1.8136
 6700TIP3   OH241514   5.678   5.795   2.381  1.0716  0.1030  0.0886
 6700TIP3    H141515   5.743   5.729   2.404 -0.2011 -1.0634  0.4532
 6700TIP3    H241516   5.634   5.760   2.303  0.3738  0.4923  0.2920
 6701TIP3   OH241517   3.800   1.279   0.257 -0.2997 -0.3089 -0.2392
 6701TIP3    H141518   3.857   1.211   0.218 -0.4587  0.0345 -1.1059
 6701TIP3    H241519   3.828   1.360   0.214 -1.3397 -0.1145 -0.5755
 6702TIP3   OH241520   6.701   0.429   1.934 -0.1327  0.5836 -0.0573
 6702TIP3    H141521   6.720   0.428   2.028  1.3736 -1.0949 -0.3263
 6702TIP3    H241522   6.786   0.423   1.891 -0.8667 -0.6142 -1.4830
 6703TIP3   OH241523   3.746   3.384   1.485 -0.3236 -0.5255 -0.3679
 6703TIP3    H141524   3.742   3.476   1.509 -1.7059 -0.5469 -0.4471
 6703TIP3    H241525   3.687   3.340   1.547  1.3837 -1.5844  0.5907
 6704TIP3   OH241526   1.762   2.051   1.227 -0.2687  0.6228 -0.2445
 6704TIP3    H141527   1.848   2.065   1.267 -0.1449  3.1528 -1.1613
 6704TIP3    H241528   1.700   2.064   1.298  0.0688 -0.3744  0.2458
 6705TIP3   OH241529   4.857   3.550   3.803 -0.7084  0.1867  0.2983
 6705TIP3    H141530   4.772   3.592   3.822  0.7174  3.3453  0.3786
 6705TIP3    H241531   4.908   3.562   3.883  0.2019 -0.5927 -0.1499
 6706TIP3   OH241532   1.917   0.100  13.433 -0.6037 -0.1151  0.4613
 6706TIP3    H141533   1.981   0.047  13.387  0.6244  1.5312  0.1545
 6706TIP3    H241534   1.833   0.060  13.414 -0.1649  0.4031 -3.2073
 6707TIP3   OH241535   4.122   1.496  12.298  0.1922 -0.0532 -0.4563
 6707TIP3    H141536   4.181   1.559  12.338  1.2301 -0.1861 -1.7184
 6707TIP3    H241537   4.140   1.502  12.204  0.7167 -2.5813 -0.5898
 6708TIP3   OH241538   5.939   4.776   4.871 -0.0407  0.6190 -0.1059
 6708TIP3    H141539   5.967   4.784   4.962 -0.5648  2.3860 -0.0547
 6708TIP3    H241540   5.924   4.866   4.843  1.5747  0.2464 -2.4348
 6709TIP3   OH241541   5.388   0.837   5.337 -0.1141  0.4373 -0.5009
 6709TIP3    H141542   5.474   0.797   5.352 -1.6168 -2.6389  0.7771
 6709TIP3    H241543   5.397   0.927   5.369  1.6574 -0.8643  3.1420
 6710TIP3   OH241544   3.809   4.814   1.358  0.5737 -0.0923  0.2742
 6710TIP3    H141545   3.848   4.752   1.296  0.3863  1.2577 -1.2656
 6710TIP3    H241546   3.876   4.826   1.425  2.3299  1.0823 -1.5535
 6711TIP3   OH241547   6.318   3.958   5.045  0.8547 -0.1367 -0.7323
 6711TIP3    H141548   6.236   3.969   4.997  0.5412 -1.4337 -0.5189
 6711TIP3    H241549   6.363   4.043   5.035 -0.4395  0.5474 -0.9470
 6712TIP3   OH241550   3.938   5.317   5.037 -0.4415 -0.4434 -0.3058
 6712TIP3    H141551   3.954   5.243   5.095 -1.0378  0.5149  1.1476
 6712TIP3    H241552   3.942   5.280   4.949  0.7758 -1.8921  0.3189
 6713TIP3   OH241553   1.435   6.186   2.227  0.3330 -0.1539 -0.0944
 6713TIP3    H141554   1.364   6.237   2.266  1.3574  0.7294  0.6801
 6713TIP3    H241555   1.495   6.253   2.192  0.8051 -0.8824 -0.7000
 6714TIP3   OH241556   5.443   6.279  14.934 -0.2972  0.3743 -0.1131
 6714TIP3    H141557   5.357   6.245  14.957 -0.2453 -0.1839 -0.7040
 6714TIP3    H241558   5.425   6.359  14.883 -0.4894 -0.0546 -0.7326
 6715TIP3   OH241559   5.324   6.342  13.379 -0.0286 -0.5940  0.5974
 6715TIP3    H141560   5.367   6.426  13.364  0.0825 -0.1877  2.7796
 6715TIP3    H241561   5.231   6.364  13.383  0.0529 -0.3754  1.9899
 6716TIP3   OH241562   6.119   5.413   2.028 -0.2419 -0.4682 -0.0940
 6716TIP3    H141563   6.130   5.319   2.012 -2.4293 -0.8608  0.3819
 6716TIP3    H241564   6.027   5.422   2.055 -0.2313  1.8923 -0.6649
 6717TIP3   OH241565   3.095   0.423   3.343  0.2951  0.1619 -0.4038
 6717TIP3    H141566   3.179   0.443   3.384 -0.8223  1.3530  1.4134
 6717TIP3    H241567   3.103   0.456   3.254  1.3319  1.3615  0.1180
 6718TIP3   OH241568   2.761   3.298  14.989  0.0932 -0.0092 -0.2420
 6718TIP3    H141569   2.787   3.236  14.921  1.2860 -1.0681  1.1158
 6718TIP3    H241570   2.781   3.384  14.952  0.8280 -0.5603 -1.1756
 6719TIP3   OH241571   0.446   1.851   2.600 -0.5276  0.2030 -0.4307
 6719TIP3    H141572   0.390   1.779   2.574 -0.5122 -0.2152  0.6783
 6719TIP3    H241573   0.534   1.814   2.601 -0.2708  0.7130 -1.6071
 6720TIP3   OH241574   5.535   5.631  13.319  0.1032 -0.1294  0.3127
 6720TIP3    H141575   5.594   5.588  13.257 -0.5485 -0.4742 -0.0766
 6720TIP3    H241576   5.472   5.564  13.343 -1.7201  0.8968 -1.2958
 6721TIP3   OH241577   0.940   2.574   3.738 -0.7480 -0.0198 -0.3974
 6721TIP3    H141578   1.008   2.635   3.766 -0.7539 -0.7329  1.2784
 6721TIP3    H241579   0.952   2.567   3.643 -0.5878  2.3448 -0.6134
 6722TIP3   OH241580   3.502   3.627   5.121  0.0588 -0.2493  0.1673
 6722TIP3    H141581   3.490   3.547   5.069 -1.2111 -0.8202  1.2700
 6722TIP3    H241582   3.465   3.697   5.067 -2.2816 -0.9982  0.6872
 6723TIP3   OH241583   4.816   1.796   5.273 -0.1128 -0.1198  0.1695
 6723TIP3    H141584   4.814   1.891   5.280  0.9749 -0.0929  0.2405
 6723TIP3    H241585   4.884   1.778   5.208  0.4888 -0.8802  0.9836
 6724TIP3   OH241586   6.294   4.484   0.496  0.1340  0.0883  0.2563
 6724TIP3    H141587   6.206   4.510   0.468 -0.1151 -0.7352  0.2407
 6724TIP3    H241588   6.344   4.479   0.415  0.3421  1.0426  0.3107
 6725TIP3   OH241589   5.992   6.328  13.590 -0.4086 -0.5409 -0.1365
 6725TIP3    H141590   5.971   6.241  13.624 -0.7668 -0.8623 -1.1500
 6725TIP3    H241591   6.046   6.369  13.659 -0.5235 -1.4283  0.4902
 6726TIP3   OH241592   0.419   5.578   0.434 -0.2791 -0.0473  0.5620
 6726TIP3    H141593   0.357   5.642   0.400 -0.1634  0.4153  1.1937
 6726TIP3    H241594   0.466   5.625   0.504  1.9869  0.2030 -1.0017
 6727TIP3   OH241595   5.756   3.856   2.010 -0.4274  0.1250  0.0735
 6727TIP3    H141596   5.778   3.779   1.957  1.2199  0.5114  0.1459
 6727TIP3    H241597   5.677   3.830   2.058  0.6837 -1.9595  0.9325
 6728TIP3   OH241598   0.958   6.072  10.708 -0.1784 -0.0114 -0.2032
 6728TIP3    H141599   1.042   6.027  10.709 -0.5279 -0.7315  1.7312
 6728TIP3    H241600   0.906   6.028  10.776 -0.2872  3.6664  2.3946
 6729TIP3   OH241601   0.670   2.763   2.794 -0.1615  0.1591 -0.2391
 6729TIP3    H141602   0.618   2.806   2.726 -1.4267 -0.0620  0.5497
 6729TIP3    H241603   0.759   2.793   2.779 -0.0175 -1.3638 -3.1680
 6730TIP3   OH241604   1.144   6.252  12.216  0.3154  0.2026 -0.0667
 6730TIP3    H141605   1.167   6.338  12.181  0.7934  0.4830  0.8969
 6730TIP3    H241606   1.184   6.250  12.303  0.2978 -0.9919 -0.0672
 6731TIP3   OH241607   0.709   3.736  16.996  0.4298  0.0155  0.2140
 6731TIP3    H141608   0.637   3.712  17.054  0.8042 -3.0825 -0.4343
 6731TIP3    H241609   0.702   3.831  16.987 -1.2461  0.2720  3.1424
 6732TIP3   OH241610   5.347   1.575  14.545 -0.3281  0.6647 -0.3721
 6732TIP3    H141611   5.375   1.650  14.492  3.6279  0.2297  0.7921
 6732TIP3    H241612   5.403   1.578  14.622  0.0364 -3.5019 -0.2748
 6733TIP3   OH241613   6.312   3.647  13.160 -0.5310 -0.4824 -0.2785
 6733TIP3    H141614   6.378   3.682  13.100  0.7876 -2.4994 -0.0915
 6733TIP3    H241615   6.335   3.686  13.245 -3.3273  3.6321 -1.1051
 6734TIP3   OH241616   0.443   5.268   3.725 -0.3822 -0.1812 -0.2995
 6734TIP3    H141617   0.492   5.288   3.646 -1.9993  0.4051 -1.2098
 6734TIP3    H241618   0.477   5.329   3.791  0.2705  0.0333 -0.8259
 6735TIP3   OH241619   0.452   6.519   2.872  0.1036  0.6671 -0.7838
 6735TIP3    H141620   0.532   6.517   2.819 -0.5766  1.5630 -1.8862
 6735TIP3    H241621   0.389   6.468   2.821 -0.2097  0.4707 -0.2080
 6736TIP3   OH241622   5.643   4.119   4.213 -0.1561  0.4295 -0.1978
 6736TIP3    H141623   5.697   4.199   4.213  3.0210 -1.5105 -0.8155
 6736TIP3    H241624   5.631   4.100   4.120 -0.8359  0.1296 -0.0502
 6737TIP3   OH241625   1.903   6.001  11.984  0.2452 -0.2815 -0.3444
 6737TIP3    H141626   1.989   5.988  11.946  0.0648  0.7286 -1.1373
 6737TIP3    H241627   1.847   5.938  11.940  0.5693 -0.9647  0.1993
 6738TIP3   OH241628   2.604   3.269  11.986 -0.2532 -0.2637 -0.0236
 6738TIP3    H141629   2.595   3.346  12.042  1.1240 -0.1494  0.0669
 6738TIP3    H241630   2.638   3.201  12.043  1.7730  0.0312 -0.8224
 6739TIP3   OH241631   3.862   6.646  15.719 -0.0551 -0.3187 -0.1703
 6739TIP3    H141632   3.858   6.551  15.724  0.8968 -0.3288  1.0325
 6739TIP3    H241633   3.927   6.664  15.651 -1.2331 -0.4759 -1.3866
 6740TIP3   OH241634   0.031   1.042   4.976 -0.6800  0.5151 -0.1241
 6740TIP3    H141635  -0.031   1.111   4.953 -0.0157  0.9974 -0.4942
 6740TIP3    H241636   0.058   1.004   4.892  1.1589  1.7628 -0.1484
 6741TIP3   OH241637   5.207   4.193  14.980 -0.1550  0.2350 -0.1811
 6741TIP3    H141638   5.285   4.229  14.936  0.3781 -0.9688 -0.2741
 6741TIP3    H241639   5.219   4.098  14.975 -0.3605  0.0384  2.0713
 6742TIP3   OH241640   3.955   3.464   2.592 -0.7133 -0.2151 -0.0280
 6742TIP3    H141641   3.900   3.436   2.665 -0.9696 -0.4902 -0.3228
 6742TIP3    H241642   4.044   3.455   2.625 -0.8023 -0.9902  0.0324
 6743TIP3   OH241643   2.433   1.518   3.971  0.2740  0.3426  0.1353
 6743TIP3    H141644   2.451   1.472   4.053  0.9927  1.3353  0.5633
 6743TIP3    H241645   2.368   1.584   3.995 -0.5233 -0.2273 -0.4057
 6744TIP3   OH241646   3.136   4.370  14.871 -0.0586 -0.3502 -0.0761
 6744TIP3    H141647   3.101   4.317  14.800 -0.6489 -4.5571  2.9957
 6744TIP3    H241648   3.230   4.356  14.867 -0.1881 -1.5612  0.5575
 6745TIP3   OH241649   1.789   6.104  11.727 -0.0275  0.5620  0.1919
 6745TIP3    H141650   1.710   6.077  11.773 -0.8090  0.4497 -1.1864
 6745TIP3    H241651   1.848   6.132  11.797 -0.2925 -1.7827  1.4710
 6746TIP3   OH241652   2.421   4.559  13.650  0.1046 -0.6288 -0.5940
 6746TIP3    H141653   2.389   4.639  13.692  2.8497  0.0991  0.2942
 6746TIP3    H241654   2.353   4.494  13.670 -1.7531  1.2029 -0.5590
 6747TIP3   OH241655   6.236   0.978   1.158  0.1683  0.1569  0.3456
 6747TIP3    H141656   6.228   0.883   1.169 -0.7308  0.1361 -0.3863
 6747TIP3    H241657   6.328   0.997   1.176  0.1375 -0.7037  1.5523
 6748TIP3   OH241658   6.246   1.972  12.577  0.4530 -0.2563  0.6169
 6748TIP3    H141659   6.204   2.013  12.501 -0.8571 -0.9187  0.9554
 6748TIP3    H241660   6.281   2.045  12.627 -0.3810  0.3446  0.3503
 6749TIP3   OH241661   6.478   2.942   4.648 -0.0852 -0.2342 -0.0926
 6749TIP3    H141662   6.414   2.907   4.586  0.7352  1.5322 -2.0460
 6749TIP3    H241663   6.507   3.025   4.609  1.4129  0.3480  2.0617
 6750TIP3   OH241664   5.463   2.700  16.145 -0.4963  0.8546  0.1358
 6750TIP3    H141665   5.455   2.657  16.060  0.0683  1.4898 -0.2487
 6750TIP3    H241666   5.404   2.775  16.140  0.1529  1.3631 -0.0104
 6751TIP3   OH241667   0.941   6.760   2.834  0.4498  0.1860  0.2285
 6751TIP3    H141668   0.890   6.701   2.889 -0.2749  1.1143  0.5879
 6751TIP3    H241669   1.016   6.784   2.887  1.6261 -1.6346 -0.5126
 6752TIP3   OH241670   3.109   3.565  13.518  0.7629 -0.0089  0.0479
 6752TIP3    H141671   3.035   3.589  13.574  1.3162 -1.3193  1.4096
 6752TIP3    H241672   3.130   3.645  13.471 -1.5789  0.3829 -0.4714
 6753TIP3   OH241673   3.532   3.864   4.251  0.0427  0.5587  0.5758
 6753TIP3    H141674   3.592   3.832   4.318  0.5175  0.8849  0.3090
 6753TIP3    H241675   3.537   3.959   4.258 -0.5232  0.5888  0.6175
 6754TIP3   OH241676   5.895   2.067   2.408 -0.1563  0.2484  0.0523
 6754TIP3    H141677   5.915   1.974   2.403 -1.3718 -0.1504  1.8241
 6754TIP3    H241678   5.980   2.110   2.408  0.6061 -1.0803  2.2296
 6755TIP3   OH241679   6.545   3.063  12.311  0.5248  0.3879 -0.1619
 6755TIP3    H141680   6.635   3.082  12.284  1.3886 -0.5434  1.8160
 6755TIP3    H241681   6.555   3.013  12.392 -1.8039  1.1418  0.6646
 6756TIP3   OH241682   3.468   5.233  12.485  0.0944  0.0591 -0.2360
 6756TIP3    H141683   3.392   5.288  12.463  1.3158  1.6558 -0.7112
 6756TIP3    H241684   3.494   5.194  12.401 -0.0386 -0.2743 -0.1233
 6757TIP3   OH241685   5.572   5.533   3.263  0.6922  0.3247 -0.2003
 6757TIP3    H141686   5.532   5.565   3.182  0.8515  0.4073 -0.2476
 6757TIP3    H241687   5.552   5.600   3.328 -0.7779 -0.4790  0.2132
 6758TIP3   OH241688   6.278   3.695  14.559  0.0918 -0.3873  0.7486
 6758TIP3    H141689   6.313   3.618  14.604  0.3046 -1.3295 -0.9589
 6758TIP3    H241690   6.187   3.701  14.590  0.3627 -0.7154  1.6514
 6759TIP3   OH241691   6.491   1.295  13.511  0.1684 -0.0929 -0.1069
 6759TIP3    H141692   6.526   1.383  13.498 -0.3225  0.0686 -0.3656
 6759TIP3    H241693   6.568   1.238  13.508  0.4666  0.3059 -0.1476
 6760TIP3   OH241694   3.867   0.336   3.204 -0.0404  0.8571 -0.1467
 6760TIP3    H141695   3.854   0.285   3.124  0.9722 -0.3372  0.4265
 6760TIP3    H241696   3.835   0.424   3.181  2.9924  1.4351 -2.8866
 6761TIP3   OH241697   3.293   1.404  15.839  0.5477 -0.2600  0.7459
 6761TIP3    H141698   3.386   1.418  15.853  0.3994  2.1621 -0.1365
 6761TIP3    H241699   3.262   1.366  15.921  2.0805  0.2495  1.5991
 6762TIP3   OH241700   1.126   2.120  10.618  0.0326  0.0917 -0.5873
 6762TIP3    H141701   1.040   2.095  10.585  0.6461 -1.1631 -1.3263
 6762TIP3    H241702   1.116   2.121  10.713 -0.8720  0.2670 -0.6779
 6763TIP3   OH241703   0.322   1.665   2.460 -0.8113 -0.1008  0.6952
 6763TIP3    H141704   0.375   1.626   2.391  0.2852  0.6007  1.1084
 6763TIP3    H241705   0.292   1.591   2.513 -0.5877 -0.5367  0.2177
 6764TIP3   OH241706   1.257   2.435  12.173  0.0595 -0.2800  0.3171
 6764TIP3    H141707   1.346   2.435  12.137 -0.0710  1.9559 -0.0952
 6764TIP3    H241708   1.264   2.485  12.254 -0.4954 -1.6854  1.2677
 6765TIP3   OH241709   5.716   4.149   3.420  0.0740  0.1486  0.0430
 6765TIP3    H141710   5.779   4.211   3.457 -0.1401 -0.7749  2.1543
 6765TIP3    H241711   5.762   4.065   3.420 -0.0853  0.0314 -1.5184
 6766TIP3   OH241712   4.559   6.261  14.264  0.2060 -0.0322 -0.4178
 6766TIP3    H141713   4.467   6.266  14.290  0.3400 -2.2972  0.7092
 6766TIP3    H241714   4.606   6.251  14.347  0.9924 -3.7777 -1.1397
 6767TIP3   OH241715   2.513   1.495  14.748 -0.3035 -0.3659  0.6854
 6767TIP3    H141716   2.458   1.524  14.674  0.6945  0.1525  0.1313
 6767TIP3    H241717   2.488   1.554  14.820 -2.5122 -1.9533  1.3177
 6768TIP3   OH241718   6.071   5.832   6.420  0.1399  0.3579  0.2833
 6768TIP3    H141719   6.026   5.790   6.492 -1.4358  0.0526 -0.8264
 6768TIP3    H241720   6.120   5.904   6.461  0.4966 -0.6952  1.8025
 6769TIP3   OH241721   3.916   0.833  12.688 -0.0974 -0.4397 -0.2555
 6769TIP3    H141722   3.824   0.852  12.667 -0.6653 -1.4390  1.1615
 6769TIP3    H241723   3.962   0.844  12.605 -1.3067  1.1842 -0.7560
 6770TIP3   OH241724   5.391   3.069  14.660  0.2550  0.6915 -0.0674
 6770TIP3    H141725   5.301   3.098  14.675 -0.0971  1.1824 -2.6048
 6770TIP3    H241726   5.445   3.146  14.675  0.0952  0.7675  0.1129
 6771TIP3   OH241727   6.103   2.697  13.834  0.4277 -0.7256  0.5603
 6771TIP3    H141728   6.112   2.628  13.768  0.9845  0.5931 -0.7921
 6771TIP3    H241729   6.192   2.717  13.861  0.3345 -0.0403  0.3904
 6772TIP3   OH241730   2.324   5.272  15.915 -0.0546  0.8846  0.0953
 6772TIP3    H141731   2.324   5.314  15.829  0.8300  1.8926  0.5717
 6772TIP3    H241732   2.239   5.228  15.919  0.5336 -0.5445 -1.9214
 6773TIP3   OH241733   1.943   5.930  13.576  0.0856  0.6566  0.1876
 6773TIP3    H141734   1.891   5.884  13.642  1.3724  0.3721  1.0254
 6773TIP3    H241735   1.882   5.943  13.503 -0.7007 -1.1905  0.4534
 6774TIP3   OH241736   5.634   4.399  15.212 -0.4448 -0.6117  0.6291
 6774TIP3    H141737   5.593   4.467  15.266  0.8169 -0.3795  1.3453
 6774TIP3    H241738   5.619   4.427  15.122  0.9115  1.1875  0.9097
 6775TIP3   OH241739   2.092   6.457   2.813 -0.1301  0.5901  0.0564
 6775TIP3    H141740   2.174   6.495   2.846  0.4987  1.2845 -2.1066
 6775TIP3    H241741   2.105   6.362   2.822  0.1238  0.7315  1.4279
 6776TIP3   OH241742   0.391   3.475  12.919  0.4128 -0.2690  0.1347
 6776TIP3    H141743   0.354   3.435  12.998  2.0420 -2.3216 -0.0752
 6776TIP3    H241744   0.315   3.489  12.862 -1.1407  3.1025  2.6529
 6777TIP3   OH241745   4.437   1.259  16.663 -0.1577 -0.2458 -0.7005
 6777TIP3    H141746   4.500   1.305  16.607  2.0159 -0.9838  0.9673
 6777TIP3    H241747   4.366   1.321  16.677  1.0972  1.3611 -1.1648
 6778TIP3   OH241748   0.144   1.165   4.740 -0.3298  0.4914 -0.3898
 6778TIP3    H141749   0.066   1.212   4.770 -1.0662 -1.5825  1.2131
 6778TIP3    H241750   0.110   1.083   4.706  1.1682 -0.9871  1.4744
 6779TIP3   OH241751   6.707   1.299   1.528 -0.3234 -0.0530 -0.0400
 6779TIP3    H141752   6.774   1.241   1.491 -0.0569  0.3029 -0.1168
 6779TIP3    H241753   6.734   1.311   1.619  0.0428  0.5606 -0.2261
 6780TIP3   OH241754   3.467   2.516   5.307 -0.4883  0.5363  0.6491
 6780TIP3    H141755   3.404   2.562   5.364 -2.7129 -1.9139  0.3656
 6780TIP3    H241756   3.415   2.448   5.265  2.0176 -0.3929 -1.1575
 6781TIP3   OH241757   4.457   4.299  16.284  0.1493 -0.7185 -0.5928
 6781TIP3    H141758   4.440   4.385  16.245 -1.0315 -0.7152 -0.0960
 6781TIP3    H241759   4.371   4.260  16.294  0.6775 -1.9557 -0.7748
 6782TIP3   OH241760   0.755   1.998   2.059 -0.7398  0.3110  0.5346
 6782TIP3    H141761   0.822   2.034   2.001 -0.6745  0.7504  0.8823
 6782TIP3    H241762   0.702   1.942   2.002 -0.8421  0.9491 -0.0171
 6783TIP3   OH241763   5.834   5.406  13.623  0.5565 -0.3413  0.0158
 6783TIP3    H141764   5.788   5.481  13.661  1.9024  0.8474 -0.5973
 6783TIP3    H241765   5.911   5.444  13.580  0.0347 -1.7872 -2.4218
 6784TIP3   OH241766   3.643   5.705   2.188  0.3255  0.2534  0.2497
 6784TIP3    H141767   3.621   5.613   2.203  2.1774 -0.4555 -1.1088
 6784TIP3    H241768   3.662   5.739   2.276 -4.5491  0.6460  1.4557
 6785TIP3   OH241769   3.985   0.669  16.630  0.0917 -0.0894  0.0285
 6785TIP3    H141770   3.927   0.728  16.679 -1.8018 -2.0385  0.2966
 6785TIP3    H241771   4.033   0.727  16.571 -2.4596  1.6605 -0.5277
 6786TIP3   OH241772   2.533   1.540   1.507 -0.1056  0.1393 -0.4787
 6786TIP3    H141773   2.451   1.550   1.555  1.0955  1.5096  1.5099
 6786TIP3    H241774   2.508   1.517   1.418 -2.5706 -0.4740  0.3137
 6787TIP3   OH241775   6.180   6.494   5.628 -0.3250 -0.2747 -0.0667
 6787TIP3    H141776   6.113   6.479   5.562  0.7717 -0.6621 -1.1169
 6787TIP3    H241777   6.230   6.412   5.632  0.1063  0.0129  0.6661
 6788TIP3   OH241778   0.208   4.471  13.525  0.0845 -0.7019  0.3342
 6788TIP3    H141779   0.152   4.536  13.568 -2.1294 -2.0043 -0.4082
 6788TIP3    H241780   0.221   4.506  13.437  4.1709  1.6973  1.6228
 6789TIP3   OH241781   5.714   4.237  10.881  0.2096 -0.2442  0.5471
 6789TIP3    H141782   5.720   4.144  10.903 -0.3006 -0.8057 -1.4880
 6789TIP3    H241783   5.773   4.248  10.805 -1.2267  0.6413 -0.4948
 6790TIP3   OH241784   1.621   3.344   2.540 -0.4600  0.1636  0.3295
 6790TIP3    H141785   1.673   3.327   2.462 -0.6443  1.3086 -0.0742
 6790TIP3    H241786   1.530   3.342   2.508 -0.7164 -2.0042  1.0598
 6791TIP3   OH241787   6.058   3.791   5.041 -0.1510  0.5786 -0.6370
 6791TIP3    H141788   6.079   3.698   5.043  1.3257  0.8763 -1.3030
 6791TIP3    H241789   5.970   3.795   5.002 -0.1544 -0.5176 -0.7616
 6792TIP3   OH241790   0.196   2.203  12.687 -0.6123  0.2190 -0.5181
 6792TIP3    H141791   0.225   2.272  12.628  0.4990  1.0368  0.9157
 6792TIP3    H241792   0.191   2.246  12.773  2.0267 -1.8394  0.8323
 6793TIP3   OH241793   0.731   4.574   2.461 -0.3637 -0.0875  0.2376
 6793TIP3    H141794   0.748   4.542   2.373  0.9892  2.0975 -0.3728
 6793TIP3    H241795   0.794   4.527   2.516 -0.0678 -0.2549 -0.2339
 6794TIP3   OH241796   6.289   0.088   5.625  0.0533 -0.0340  0.1779
 6794TIP3    H141797   6.337   0.152   5.677 -0.2674  0.5997 -0.2982
 6794TIP3    H241798   6.203   0.082   5.666  0.3190 -0.7096  0.6580
 6795TIP3   OH241799   4.672   0.914   4.633 -0.0852 -0.3159 -0.0099
 6795TIP3    H141800   4.710   0.946   4.715  0.4190 -3.6143  1.2351
 6795TIP3    H241801   4.578   0.917   4.647 -0.0616  0.6359  0.0131
 6796TIP3   OH241802   4.400   5.103  16.185 -0.0664 -0.5164 -0.2852
 6796TIP3    H141803   4.357   5.077  16.104 -0.1949 -1.7109  0.1459
 6796TIP3    H241804   4.490   5.069  16.177  0.6777  1.4906 -0.9524
 6797TIP3   OH241805   0.080   1.960  15.799 -0.3816 -0.4899 -0.0819
 6797TIP3    H141806   0.164   1.928  15.831 -0.3396  0.6516  1.0285
 6797TIP3    H241807   0.073   1.925  15.710  1.0812 -0.9160 -0.0537
 6798TIP3   OH241808   0.727   0.553   4.830  0.2255 -0.1732 -0.7326
 6798TIP3    H141809   0.687   0.631   4.791  0.3321 -1.0007 -2.5755
 6798TIP3    H241810   0.745   0.495   4.756  0.8000 -1.6671  0.5201
 6799TIP3   OH241811   1.236   6.514  12.142  0.0356  0.1207  0.4197
 6799TIP3    H141812   1.196   6.601  12.135 -0.3234 -0.1923 -2.4705
 6799TIP3    H241813   1.289   6.506  12.063 -1.1276 -2.8748 -0.1743
 6800TIP3   OH241814   2.630   0.843  13.669 -0.6904 -0.2446  0.0127
 6800TIP3    H141815   2.610   0.909  13.602 -1.3026 -0.9321 -0.4995
 6800TIP3    H241816   2.721   0.820  13.652 -1.0775 -1.0369 -1.1705
 6801TIP3   OH241817   5.504   1.418   1.249  0.1659 -0.4501 -0.2056
 6801TIP3    H141818   5.525   1.509   1.269  2.8891 -1.1099  0.4089
 6801TIP3    H241819   5.409   1.414   1.249 -0.0502  2.5368 -1.0157
 6802TIP3   OH241820   1.616   2.502   4.600 -0.0796  0.3129 -0.1365
 6802TIP3    H141821   1.571   2.419   4.619  0.9491 -0.2065  0.1523
 6802TIP3    H241822   1.566   2.568   4.649  0.0580 -0.3960  1.0180
 6803TIP3   OH241823   2.308   1.058  14.393  0.4253 -0.1361  0.3774
 6803TIP3    H141824   2.270   0.998  14.329 -1.1564 -1.7972  2.7080
 6803TIP3    H241825   2.377   1.104  14.345 -0.4547 -1.4736 -2.3882
 6804TIP3   OH241826   5.113   6.145  14.943  0.4777  0.4489 -0.3982
 6804TIP3    H141827   5.087   6.060  14.906  3.2288  0.0517 -1.6626
 6804TIP3    H241828   5.099   6.207  14.872  0.0436  0.7846 -0.0264
 6805TIP3   OH241829   0.592   5.310   2.037  0.2317 -0.3798  0.3780
 6805TIP3    H141830   0.528   5.335   1.971 -0.6562 -0.4431  1.1979
 6805TIP3    H241831   0.623   5.224   2.008  0.9689  0.2366 -0.7463
 6806TIP3   OH241832   5.174   1.649   3.135 -0.0869 -0.3794  0.2316
 6806TIP3    H141833   5.099   1.612   3.180 -0.7639  0.4600 -0.1722
 6806TIP3    H241834   5.216   1.707   3.199  1.2163 -2.0997  0.9993
 6807TIP3   OH241835   1.695   4.320   4.596  0.1574 -0.2108  0.0742
 6807TIP3    H141836   1.726   4.236   4.561 -0.4392  0.3305 -1.8940
 6807TIP3    H241837   1.722   4.384   4.530  1.4736  1.3269  1.9964
 6808TIP3   OH241838   2.656   1.324   2.164 -0.4625  0.3319 -0.2173
 6808TIP3    H141839   2.592   1.322   2.093 -1.0691 -1.2751  0.3376
 6808TIP3    H241840   2.732   1.368   2.125 -1.6834  1.7960 -1.0432
 6809TIP3   OH241841   5.545   5.959   3.972  0.0489  0.2161 -0.0520
 6809TIP3    H141842   5.536   6.011   3.893  1.2050  1.2430  0.4623
 6809TIP3    H241843   5.460   5.917   3.983 -0.9333  2.0108 -0.4803
 6810TIP3   OH241844   5.602   2.132  15.002 -0.0259  0.3852  0.1612
 6810TIP3    H141845   5.517   2.177  15.008 -1.0380 -1.3894 -0.2019
 6810TIP3    H241846   5.589   2.050  15.049  1.0649 -0.5386 -1.0756
 6811TIP3   OH241847   4.361   3.382  11.141 -0.2831 -0.3611  0.1981
 6811TIP3    H141848   4.372   3.292  11.171 -0.6826 -0.6522 -0.5094
 6811TIP3    H241849   4.283   3.379  11.085 -0.8807  0.6169  0.9561
 6812TIP3   OH241850   6.004   1.723  14.181  0.3348 -0.7816  0.2459
 6812TIP3    H141851   6.070   1.712  14.113  0.0380 -0.8168 -0.0384
 6812TIP3    H241852   6.031   1.663  14.250  0.2226 -1.2938 -0.1554
 6813TIP3   OH241853   5.234   2.433  16.041  0.2402  0.7435 -0.1265
 6813TIP3    H141854   5.147   2.416  16.077  0.5563  0.4608  0.5097
 6813TIP3    H241855   5.223   2.514  15.991 -0.0092  1.6318  1.3178
 6814TIP3   OH241856   6.004   3.800   1.834  0.3094  0.3063 -0.4018
 6814TIP3    H141857   5.968   3.888   1.845  0.7596  0.5904 -1.1348
 6814TIP3    H241858   5.933   3.751   1.792 -1.1968 -0.6285  2.9280
 6815TIP3   OH241859   4.113   3.642  16.542  0.0331  0.6359 -0.4458
 6815TIP3    H141860   4.161   3.627  16.461 -0.7349  0.6406 -0.9070
 6815TIP3    H241861   4.169   3.700  16.593  1.5562 -1.1285 -0.0102
 6816TIP3   OH241862   2.990   1.272   4.989 -0.1731  0.0152  0.3761
 6816TIP3    H141863   3.066   1.221   4.960 -0.1375 -1.4777  2.8166
 6816TIP3    H241864   3.026   1.359   5.010  0.5827 -0.2413  0.1771
 6817TIP3   OH241865   1.882   1.970  11.909 -0.5050 -0.0405 -0.3689
 6817TIP3    H141866   1.916   2.021  11.983 -0.7455  0.2057 -0.4283
 6817TIP3    H241867   1.956   1.915  11.882 -0.2962  0.1562 -0.1984
 6818TIP3   OH241868   2.584   5.959  15.010 -0.4067 -0.7293 -0.2159
 6818TIP3    H141869   2.571   5.899  15.084 -0.5424 -1.7737 -1.0669
 6818TIP3    H241870   2.674   5.944  14.982  0.7007  1.8430  1.5836
 6819TIP3   OH241871   3.769   0.548  15.897 -0.2917 -0.2244 -0.5705
 6819TIP3    H141872   3.824   0.590  15.964 -0.8431 -0.8427  0.2948
 6819TIP3    H241873   3.724   0.478  15.944 -1.8042  0.2454 -1.2724
 6820TIP3   OH241874   6.295   2.922  16.223  0.1905 -0.2908 -0.0194
 6820TIP3    H141875   6.219   2.920  16.165 -1.1300 -0.2425  1.6601
 6820TIP3    H241876   6.274   2.988  16.289  0.2890 -2.3649  2.2372
 6821TIP3   OH241877   4.917   1.479  15.406 -0.2654 -0.1191 -0.0329
 6821TIP3    H141878   4.887   1.480  15.497 -0.5230  1.9604 -0.0933
 6821TIP3    H241879   4.907   1.569  15.376  1.3581 -0.4021 -1.6281
 6822TIP3   OH241880   5.128   4.670   6.486 -0.0961 -0.1360  0.4396
 6822TIP3    H141881   5.135   4.757   6.447 -0.5614 -0.4672 -0.4247
 6822TIP3    H241882   5.218   4.642   6.498  0.1064 -0.4008 -1.3420
 6823TIP3   OH241883   2.852   0.561  13.129 -0.1575  0.0654  0.2548
 6823TIP3    H141884   2.935   0.519  13.152 -0.9704 -1.3028  0.8252
 6823TIP3    H241885   2.859   0.579  13.036  1.6062  1.9475  0.6821
 6824TIP3   OH241886   5.208   1.435   4.157  0.5555  0.5461 -0.1801
 6824TIP3    H141887   5.290   1.453   4.111  1.0245 -1.6874 -0.3228
 6824TIP3    H241888   5.155   1.514   4.143  2.6712  2.1084  0.0038
 6825TIP3   OH241889   2.017   2.829  11.016 -0.0333 -0.5719 -0.1806
 6825TIP3    H141890   1.982   2.862  10.934 -0.0683 -1.4041 -0.5046
 6825TIP3    H241891   2.092   2.776  10.991  1.1982  0.7705  0.4669
 6826TIP3   OH241892   6.633   2.349  14.478  0.4320  0.4567 -0.0991
 6826TIP3    H141893   6.664   2.439  14.465 -3.2993  1.8319 -0.9002
 6826TIP3    H241894   6.582   2.353  14.559 -1.2390 -0.4220 -1.0536
 6827TIP3   OH241895   0.925   2.902   2.928 -0.3907  0.1202 -0.5772
 6827TIP3    H141896   0.995   2.961   2.898 -1.1729  1.0239 -0.6732
 6827TIP3    H241897   0.955   2.872   3.014  0.1771  0.3931 -0.6718
 6828TIP3   OH241898   3.908   0.615   2.710 -0.1300 -0.0019  0.8147
 6828TIP3    H141899   3.826   0.641   2.668  0.6701 -0.5805 -1.2482
 6828TIP3    H241900   3.947   0.697   2.740 -0.5858  0.4842  0.1055
 6829TIP3   OH241901   4.482   4.094   1.683 -0.1172 -0.3804  0.3670
 6829TIP3    H141902   4.448   4.144   1.609  1.0442 -0.9759 -0.6263
 6829TIP3    H241903   4.405   4.049   1.719 -0.9808  1.2020  0.5943
 6830TIP3   OH241904   0.618   3.663   4.534 -0.3892  0.1799 -0.3377
 6830TIP3    H141905   0.587   3.666   4.625  2.8657  0.5618  0.9002
 6830TIP3    H241906   0.540   3.641   4.483 -2.1659 -1.0818  2.6333
 6831TIP3   OH241907   5.803   5.468  11.991 -0.5947  0.7803  0.0976
 6831TIP3    H141908   5.841   5.556  11.988  1.4685 -0.0741 -1.5977
 6831TIP3    H241909   5.874   5.412  12.021 -1.4147 -0.5143 -0.2852
 6832TIP3   OH241910   4.420   0.127   0.462 -0.3098 -0.0260  0.4043
 6832TIP3    H141911   4.336   0.169   0.444  0.3799  1.1986 -0.0837
 6832TIP3    H241912   4.469   0.193   0.512 -0.0638 -1.1730  1.7089
 6833TIP3   OH241913   6.211   1.649  17.043 -0.0535  0.1477  0.5410
 6833TIP3    H141914   6.253   1.732  17.063 -0.3829  0.5187 -0.2955
 6833TIP3    H241915   6.218   1.640  16.948 -0.5823 -0.4776  0.5523
 6834TIP3   OH241916   5.627   1.336  11.917 -0.5512  0.9458  0.6943
 6834TIP3    H141917   5.650   1.262  11.973 -2.1264 -0.9116 -0.9893
 6834TIP3    H241918   5.591   1.297  11.838 -0.4806  3.5147 -0.7203
 6835TIP3   OH241919   2.150   0.896   3.355 -0.3129 -0.7164 -0.1976
 6835TIP3    H141920   2.130   0.838   3.428 -0.3508 -1.3431 -0.6933
 6835TIP3    H241921   2.239   0.872   3.329 -0.5329 -0.9343 -0.7586
 6836TIP3   OH241922   0.253   1.448   2.640 -0.0758  0.8512  0.2414
 6836TIP3    H141923   0.277   1.497   2.719  0.1943  1.0261  0.0473
 6836TIP3    H241924   0.252   1.357   2.669  1.7725  0.7274  0.0282
 6837TIP3   OH241925   4.998   3.838  15.911 -0.3364  0.2511 -0.6706
 6837TIP3    H141926   5.009   3.851  16.006 -0.5626 -0.4315 -0.5462
 6837TIP3    H241927   4.935   3.905  15.885 -0.0361  0.6422 -0.3916
 6838TIP3   OH241928   6.356   1.137  12.892  0.0450  0.4581  0.2314
 6838TIP3    H141929   6.362   1.221  12.937  0.6671  0.8962 -0.6396
 6838TIP3    H241930   6.439   1.094  12.909  0.2738  0.6152 -0.4583
 6839TIP3   OH241931   3.218   3.053   1.542  0.1663 -0.5896 -0.0666
 6839TIP3    H141932   3.228   3.148   1.546  0.2398 -0.5064 -1.6276
 6839TIP3    H241933   3.124   3.039   1.528  0.3595 -0.6503 -1.4517
 6840TIP3   OH241934   5.567   2.634   5.966  0.4368  0.1577  0.2588
 6840TIP3    H141935   5.497   2.655   5.904 -0.3676 -1.1120  0.6777
 6840TIP3    H241936   5.543   2.682   6.046  0.5958  0.5240  0.0861
 6841TIP3   OH241937   2.920   4.153  11.111 -0.1219 -0.0456  0.3819
 6841TIP3    H141938   2.947   4.235  11.152 -0.7231  0.4265 -0.1447
 6841TIP3    H241939   2.920   4.172  11.017 -3.8868  0.5666  0.3308
 6842TIP3   OH241940   2.813   4.000   4.373  0.2890  0.2209  0.0962
 6842TIP3    H141941   2.877   3.929   4.380 -0.1947 -0.1831  0.5667
 6842TIP3    H241942   2.728   3.956   4.381 -0.0102  0.8747  0.6582
 6843TIP3   OH241943   0.237   4.899  12.529  0.1670  0.1232  0.3416
 6843TIP3    H141944   0.272   4.940  12.451  0.7708 -1.0921 -0.0536
 6843TIP3    H241945   0.142   4.896  12.515 -0.0475  2.5162  0.9660
 6844TIP3   OH241946   0.313   2.510  14.527 -0.4754  0.1345  0.0943
 6844TIP3    H141947   0.231   2.532  14.482 -0.8013 -0.0353  0.5962
 6844TIP3    H241948   0.287   2.490  14.617  0.2224  0.9318  0.4896
 6845TIP3   OH241949   1.598   0.401   4.447 -0.1066 -0.2924 -0.2799
 6845TIP3    H141950   1.504   0.399   4.464 -0.1330  1.2191 -0.0945
 6845TIP3    H241951   1.615   0.324   4.393 -1.4358 -0.6455 -0.2076
 6846TIP3   OH241952   6.616   0.040   4.457  0.2278  0.0102 -0.0043
 6846TIP3    H141953   6.530   0.005   4.433  0.6597 -1.1372  0.0721
 6846TIP3    H241954   6.651  -0.023   4.521  2.4251 -1.2746 -2.2887
 6847TIP3   OH241955   5.221   3.583   2.629  0.2164  0.0124  0.3325
 6847TIP3    H141956   5.269   3.539   2.699  0.5914  1.0397  0.7520
 6847TIP3    H241957   5.161   3.517   2.595 -0.2061 -0.4325  1.8479
 6848TIP3   OH241958   0.085   2.259  11.927 -0.3087 -0.2842 -0.6490
 6848TIP3    H141959   0.038   2.179  11.949 -0.7610  0.0473 -0.4039
 6848TIP3    H241960   0.032   2.299  11.858 -2.6275  2.0921  2.2480
 6849TIP3   OH241961   2.156   5.458   1.091  0.0479  0.1343 -0.0007
 6849TIP3    H141962   2.084   5.471   1.029 -0.4675 -0.0367  0.5494
 6849TIP3    H241963   2.184   5.547   1.114 -1.0298  0.2517  0.9597
 6850TIP3   OH241964   3.051   4.465  12.410  0.8109  0.1294 -0.5238
 6850TIP3    H141965   3.002   4.467  12.493 -0.7615 -1.8023 -1.3566
 6850TIP3    H241966   3.138   4.436  12.435 -0.0814 -1.9924  0.3197
 6851TIP3   OH241967   5.192   4.894   1.718 -0.1538 -0.5894  0.3824
 6851TIP3    H141968   5.264   4.955   1.707  0.7260 -1.8275 -1.2508
 6851TIP3    H241969   5.230   4.808   1.698 -1.9238 -1.3483  0.0304
 6852TIP3   OH241970   1.663   3.539   4.563 -0.4294 -0.3785  0.2791
 6852TIP3    H141971   1.645   3.449   4.536 -0.5493 -0.2947  0.0710
 6852TIP3    H241972   1.629   3.546   4.652  0.3607 -0.7882  0.6313
 6853TIP3   OH241973   5.932   2.344  11.661  0.1018 -0.4420  0.3403
 6853TIP3    H141974   5.905   2.344  11.569  2.0206  0.9493 -0.2740
 6853TIP3    H241975   5.883   2.417  11.700  0.0078 -0.4286  0.1975
 6854TIP3   OH241976   0.680   1.626  16.912  0.4110 -0.0426  0.3279
 6854TIP3    H141977   0.593   1.635  16.872  0.5028  0.8647  0.2996
 6854TIP3    H241978   0.668   1.559  16.980 -0.1536 -0.3780 -0.0913
 6855TIP3   OH241979   2.027   4.510  14.941 -0.6688  0.5080 -0.4764
 6855TIP3    H141980   1.965   4.459  14.994  0.1766  2.2240  2.3480
 6855TIP3    H241981   2.077   4.443  14.893 -1.1125 -1.2269  1.3233
 6856TIP3   OH241982   3.332   4.138   1.233 -0.2141  0.5847 -0.5202
 6856TIP3    H141983   3.322   4.186   1.315 -0.9817 -1.8785  0.9361
 6856TIP3    H241984   3.427   4.132   1.220  0.0801 -1.4915  1.8705
 6857TIP3   OH241985   0.587   5.894   2.995  0.0135 -0.3542  0.1449
 6857TIP3    H141986   0.672   5.853   3.009 -0.0910 -1.3608 -1.8286
 6857TIP3    H241987   0.603   5.961   2.928 -0.7098 -0.4443 -0.1298
 6858TIP3   OH241988   3.353   5.880   5.608 -0.4157 -0.2916  0.7226
 6858TIP3    H141989   3.280   5.940   5.623  0.4785  0.8366  0.6925
 6858TIP3    H241990   3.355   5.868   5.513 -1.2626 -1.2610  0.8057
 6859TIP3   OH241991   0.223   4.922   4.654  0.5439  0.2995 -0.1752
 6859TIP3    H141992   0.238   4.972   4.573  0.3440 -1.3449 -1.2865
 6859TIP3    H241993   0.171   4.981   4.709  3.1700  2.6315  0.0505
 6860TIP3   OH241994   1.735   1.585   6.119 -0.2178 -0.0858 -0.6012
 6860TIP3    H141995   1.700   1.613   6.204 -1.3547  2.1644 -1.7080
 6860TIP3    H241996   1.741   1.665   6.068  0.2259 -1.3937 -2.7433
 6861TIP3   OH241997   4.652   3.512   0.285 -0.5091 -0.1859  0.1541
 6861TIP3    H141998   4.657   3.561   0.203  0.0477 -2.4927 -1.2889
 6861TIP3    H241999   4.567   3.467   0.281 -0.7141  0.0808  1.1178
 6862TIP3   OH242000   4.801   6.255   4.157 -0.2452  0.2151  0.0408
 6862TIP3    H142001   4.887   6.255   4.199 -1.0056  1.6472  1.7288
 6862TIP3    H242002   4.796   6.171   4.112  0.5586 -1.5870  3.0444
 6863TIP3   OH242003   1.835   1.787   2.478  0.1494 -0.7850  0.2310
 6863TIP3    H142004   1.856   1.872   2.516  0.1916 -0.5599 -0.2961
 6863TIP3    H242005   1.800   1.736   2.552  2.0772 -1.0256  1.0338
 6864TIP3   OH242006   5.238   1.026  17.194 -0.1759 -0.0618  0.1115
 6864TIP3    H142007   5.147   1.035  17.222 -0.0398 -0.4775  0.7064
 6864TIP3    H242008   5.273   0.954  17.247  0.5432  0.1987  0.0109
 6865TIP3   OH242009   2.774   1.350   4.825 -0.5840 -0.2807 -0.0195
 6865TIP3    H142010   2.852   1.317   4.870  0.6948  0.2516 -1.7463
 6865TIP3    H242011   2.721   1.272   4.811 -0.1129 -0.7486  0.6948
 6866TIP3   OH242012   6.668   3.455  14.942 -0.6558 -0.1363 -0.1927
 6866TIP3    H142013   6.631   3.373  14.975  0.1339 -0.2679  0.4036
 6866TIP3    H242014   6.711   3.494  15.017  3.1833 -1.5347 -1.4214
 6867TIP3   OH242015   4.963   3.226  10.950  0.2772 -0.0775  0.2987
 6867TIP3    H142016   4.986   3.186  10.866  1.1417  1.2030 -0.1022
 6867TIP3    H242017   4.903   3.164  10.991 -1.5056  0.0378 -1.9828
 6868TIP3   OH242018   2.936   6.512   6.426  0.1769 -0.0779 -0.0191
 6868TIP3    H142019   2.950   6.420   6.404  2.4681 -0.1848  1.5226
 6868TIP3    H242020   3.018   6.555   6.405  0.0030  1.1232  1.5235
 6869TIP3   OH242021   5.572   5.376  14.941  0.2154  0.5394 -0.4540
 6869TIP3    H142022   5.549   5.361  14.849  0.0442  0.8199 -0.4563
 6869TIP3    H242023   5.557   5.469  14.955  1.0676  0.6722 -0.3727
 6870TIP3   OH242024   0.857   4.203  13.840 -0.2913  0.8427 -0.1023
 6870TIP3    H142025   0.943   4.218  13.879 -0.3739  0.1623  0.3567
 6870TIP3    H242026   0.801   4.178  13.914 -0.1640 -1.6938 -0.7835
 6871TIP3   OH242027   1.404   1.705   2.031 -0.2419 -0.0470 -0.1340
 6871TIP3    H142028   1.335   1.638   2.029  0.2599 -0.5630 -1.0958
 6871TIP3    H242029   1.366   1.777   2.081 -1.7221 -0.0742 -1.1372
 6872TIP3   OH242030   0.497   3.348   3.678  0.3212 -0.2849 -0.0156
 6872TIP3    H142031   0.575   3.292   3.679  0.3831 -0.2368 -1.1062
 6872TIP3    H242032   0.484   3.369   3.586  0.2520  1.4531  0.3691
 6873TIP3   OH242033   1.264   4.169  10.488 -0.3072 -0.0957  0.8520
 6873TIP3    H142034   1.287   4.243  10.433  0.9445 -0.8560  0.2996
 6873TIP3    H242035   1.258   4.205  10.577 -1.3518  0.9479  0.3846
 6874TIP3   OH242036   0.022   0.332   5.335 -0.5464  0.0706  0.0253
 6874TIP3    H142037   0.077   0.264   5.373  0.6691  0.0166 -1.7547
 6874TIP3    H242038  -0.041   0.285   5.281 -1.2962  0.2442  0.7211
 6875TIP3   OH242039   6.625   4.644   4.486 -0.3441 -0.2047  0.3911
 6875TIP3    H142040   6.607   4.566   4.538 -0.5513 -0.1603  0.3879
 6875TIP3    H242041   6.545   4.697   4.494 -0.5479 -0.3971 -0.3255
 6876TIP3   OH242042   5.756   1.271   2.243  0.4816 -0.4075  0.2023
 6876TIP3    H142043   5.683   1.249   2.185  0.9495  1.2756 -1.1021
 6876TIP3    H242044   5.832   1.275   2.185  1.0889  0.6173  1.0431
 6877TIP3   OH242045   3.389   0.390  16.876  0.6137  0.2522  0.0179
 6877TIP3    H142046   3.293   0.384  16.871  0.7550 -1.8134 -1.9352
 6877TIP3    H242047   3.415   0.311  16.924  1.3451  0.9162  0.7317
 6878TIP3   OH242048   2.544   5.024  10.636  0.0811  0.7588  0.3035
 6878TIP3    H142049   2.499   4.954  10.684  1.5657  0.3648  1.1822
 6878TIP3    H242050   2.636   5.010  10.654  0.7841  0.4915 -2.8348
 6879TIP3   OH242051   4.345   0.791   2.732  0.0758 -0.4700 -0.0401
 6879TIP3    H142052   4.285   0.734   2.684 -0.5598 -1.0611  1.3895
 6879TIP3    H242053   4.303   0.877   2.731 -0.4176 -0.7055  0.3013
 6880TIP3   OH242054   0.576   5.941  12.098  0.0764  0.7659  0.3253
 6880TIP3    H142055   0.554   5.962  12.189 -0.5458  0.7075  0.1920
 6880TIP3    H242056   0.553   6.019  12.048  3.1732  1.9832  0.5643
 6881TIP3   OH242057   3.848   1.908  12.869  0.2685 -0.0072 -0.6869
 6881TIP3    H142058   3.850   1.813  12.856  0.9565 -0.0324 -0.3933
 6881TIP3    H242059   3.756   1.927  12.887 -0.0962 -0.4562 -1.9434
 6882TIP3   OH242060   2.623   2.432  11.531 -0.0518  0.1525  0.0017
 6882TIP3    H142061   2.567   2.500  11.567 -1.6425  0.2839 -2.4893
 6882TIP3    H242062   2.700   2.431  11.588 -1.4657  1.6885  2.0564
 6883TIP3   OH242063   3.779   3.095  14.575  0.0419 -0.2094 -0.3060
 6883TIP3    H142064   3.755   3.008  14.544 -1.0737 -0.8163  2.0255
 6883TIP3    H242065   3.695   3.139  14.589  0.5932  1.2533 -1.3982
 6884TIP3   OH242066   5.213   1.905  14.466 -0.5885  0.1600 -0.4663
 6884TIP3    H142067   5.171   1.828  14.429 -0.0534 -0.0646 -0.6072
 6884TIP3    H242068   5.215   1.889  14.560  0.6529 -0.5700 -0.6016
 6885TIP3   OH242069   1.938   3.582   2.936  0.4580  0.2084 -0.7133
 6885TIP3    H142070   1.942   3.611   2.845  1.1023  0.6162 -0.5634
 6885TIP3    H242071   1.845   3.581   2.958  0.3952  1.9999 -0.7764
 6886TIP3   OH242072   6.654   6.429   3.618 -0.0867  0.2454 -0.2148
 6886TIP3    H142073   6.563   6.403   3.605  0.3208 -0.6382 -1.5671
 6886TIP3    H242074   6.651   6.496   3.685 -1.5210 -1.2361  1.2902
 6887TIP3   OH242075   3.595   6.400  16.370  0.0630  0.2842  0.5676
 6887TIP3    H142076   3.546   6.479  16.347  1.7309  2.2629  3.3023
 6887TIP3    H242077   3.684   6.418  16.340  0.2756 -0.9814  0.3948
 6888TIP3   OH242078   4.580   0.493   0.243  0.2783 -0.2542 -0.2513
 6888TIP3    H142079   4.621   0.579   0.250  0.0575 -0.2087  0.5605
 6888TIP3    H242080   4.650   0.431   0.260  0.2958 -0.2174 -0.1897
 6889TIP3   OH242081   2.383   6.649  14.508  0.0128  0.1607 -0.4144
 6889TIP3    H142082   2.288   6.649  14.504  0.0032 -0.5489 -0.2865
 6889TIP3    H242083   2.411   6.649  14.417 -0.1141 -0.0738 -0.4546
 6890TIP3   OH242084   0.169   0.632  10.943 -0.3187 -0.3165 -0.2423
 6890TIP3    H142085   0.099   0.584  10.898 -1.6793 -0.4057  1.8127
 6890TIP3    H242086   0.188   0.706  10.886 -1.9552 -0.4225 -0.9821
 6891TIP3   OH242087   0.611   4.432   1.304 -0.1040 -0.3988 -0.0706
 6891TIP3    H142088   0.690   4.422   1.357  0.0196  0.6355 -0.0420
 6891TIP3    H242089   0.565   4.505   1.344 -0.9928 -0.8784 -0.2029
 6892TIP3   OH242090   6.355   3.353   3.859  0.0622 -0.1279  0.2406
 6892TIP3    H142091   6.359   3.434   3.808  1.8128  0.5828  1.4193
 6892TIP3    H242092   6.418   3.295   3.818  0.8786  0.1517  1.0648
 6893TIP3   OH242093   4.505   5.612  11.483  0.2650  0.0203  0.3975
 6893TIP3    H142094   4.547   5.684  11.436  2.1494  0.2467  2.2642
 6893TIP3    H242095   4.574   5.579  11.541 -1.4359 -1.3290  1.7390
 6894TIP3   OH242096   4.708   0.052   2.972 -0.6973  0.8343 -0.2185
 6894TIP3    H142097   4.612   0.053   2.972 -0.7019  0.3891  0.5102
 6894TIP3    H242098   4.731  -0.031   2.930 -0.5989  1.7468 -2.1016
 6895TIP3   OH242099   1.387   1.449  12.362 -0.0428  0.1272 -0.2430
 6895TIP3    H142100   1.335   1.377  12.398 -0.3088  0.0854 -0.7025
 6895TIP3    H242101   1.343   1.528  12.391  1.6614  0.2206  2.4469
 6896TIP3   OH242102   5.213   1.399   1.946  0.0486  0.2454  0.4024
 6896TIP3    H142103   5.206   1.351   1.864 -1.0279  1.9637 -0.5416
 6896TIP3    H242104   5.307   1.417   1.955  0.0231  1.4759 -1.3406
 6897TIP3   OH242105   0.083   1.755  12.942  0.1940  0.0180  0.5813
 6897TIP3    H142106   0.005   1.713  12.906 -0.1913  0.8432  0.4404
 6897TIP3    H242107   0.050   1.831  12.990  0.8539 -0.0420  1.1558
 6898TIP3   OH242108   0.657   2.591  11.456  0.2854  0.3501  0.4525
 6898TIP3    H142109   0.697   2.505  11.442  0.9301  0.7938 -0.5924
 6898TIP3    H242110   0.725   2.642  11.498  0.5831  0.8940 -0.6569
 6899TIP3   OH242111   4.155   5.697  11.945 -0.5007 -0.8210 -0.3233
 6899TIP3    H142112   4.142   5.657  11.858 -0.1381 -0.2031 -0.6701
 6899TIP3    H242113   4.157   5.623  12.005  1.5813 -1.4823 -1.1219
 6900TIP3   OH242114   3.887   0.069  17.178  0.3729  0.4457 -0.7926
 6900TIP3    H142115   3.817   0.031  17.124  0.3126  0.8314 -0.9889
 6900TIP3    H242116   3.881   0.163  17.161  0.4847  0.5463 -0.2659
 6901TIP3   OH242117   3.156   2.026  16.784 -0.0698  0.5501  0.0612
 6901TIP3    H142118   3.128   2.050  16.695  0.1201  0.0836 -0.1246
 6901TIP3    H242119   3.250   2.010  16.776 -0.0551  0.4959  0.3443
 6902TIP3   OH242120   4.237   1.064   2.736 -0.3649  0.1284 -0.2089
 6902TIP3    H142121   4.169   1.071   2.803 -1.9163 -0.4452 -1.6505
 6902TIP3    H242122   4.252   1.154   2.707  1.6264  0.6338  2.0486
 6903TIP3   OH242123   2.293   5.733   0.585 -0.2993 -0.4099  0.1054
 6903TIP3    H142124   2.376   5.690   0.563 -1.2640 -2.0354 -0.5395
 6903TIP3    H242125   2.295   5.815   0.537  0.7580 -0.6260 -0.2410
 6904TIP3   OH242126   2.130   6.022   5.751 -0.3852 -0.3738 -0.1935
 6904TIP3    H142127   2.112   5.928   5.754 -0.4054 -0.4397 -1.7140
 6904TIP3    H242128   2.055   6.062   5.794  0.3799 -1.0846  1.9822
 6905TIP3   OH242129   1.900   2.370  13.832 -0.4254 -0.2719 -0.8941
 6905TIP3    H142130   1.940   2.419  13.904 -0.3400 -1.3143 -0.2068
 6905TIP3    H242131   1.973   2.348  13.774 -0.0224 -1.7486  0.1063
 6906TIP3   OH242132   1.059   6.527  14.507  0.3294  0.8743 -0.0598
 6906TIP3    H142133   0.985   6.499  14.561  0.6636  0.2391  0.0707
 6906TIP3    H242134   1.022   6.594  14.449 -0.0202  1.6285  0.9956
 6907TIP3   OH242135   3.029   4.789  16.307  0.0883  0.4297  0.2284
 6907TIP3    H142136   3.096   4.746  16.254 -2.1191  0.8201 -3.1538
 6907TIP3    H242137   2.949   4.739  16.292 -1.0497  1.6256  1.8226
 6908TIP3   OH242138   2.662   5.531  11.168  0.0332 -0.5070 -0.0944
 6908TIP3    H142139   2.638   5.439  11.161  0.4088 -0.6550  0.5242
 6908TIP3    H242140   2.757   5.530  11.181  0.0922 -0.0163 -0.4396
 6909TIP3   OH242141   5.720   5.605  12.315 -0.1154  0.1145  0.4629
 6909TIP3    H142142   5.642   5.660  12.313 -0.2346 -0.0097 -2.8097
 6909TIP3    H242143   5.791   5.663  12.287  0.7335 -0.1887  1.8526
 6910TIP3   OH242144   5.984   4.586   3.354  0.5806 -0.1665 -0.1913
 6910TIP3    H142145   5.922   4.651   3.386  0.3163 -0.0895 -0.8624
 6910TIP3    H242146   5.998   4.609   3.262  1.8385  0.0139  0.0228
 6911TIP3   OH242147   4.620   4.099   1.328  0.1396 -0.0610 -0.4204
 6911TIP3    H142148   4.596   4.063   1.243  0.3543  0.7873 -0.8496
 6911TIP3    H242149   4.538   4.104   1.377 -0.1554  0.4490 -0.9638
 6912TIP3   OH242150   3.465   3.807  12.527  0.2745 -0.1721 -0.8043
 6912TIP3    H142151   3.401   3.852  12.473 -1.6480 -0.1852  1.2975
 6912TIP3    H242152   3.514   3.752  12.466 -0.5900  1.0815 -2.7180
 6913TIP3   OH242153   5.417   4.683   6.233  0.0500  0.1622  0.0913
 6913TIP3    H142154   5.325   4.703   6.223  0.0621  0.7000  0.9213
 6913TIP3    H242155   5.426   4.658   6.325  0.6012 -0.6209 -0.1633
 6914TIP3   OH242156   0.865   0.636   3.796 -0.0575  0.0382  0.0822
 6914TIP3    H142157   0.908   0.719   3.775 -0.3120 -0.6951 -4.4206
 6914TIP3    H242158   0.935   0.578   3.823  0.8990  0.5560 -1.1767
 6915TIP3   OH242159   4.615   5.220   0.552 -0.2437  1.0158  0.2196
 6915TIP3    H142160   4.707   5.197   0.570  0.0306  1.3285 -0.7255
 6915TIP3    H242161   4.572   5.137   0.535  0.0385  0.9254 -0.0663
 6916TIP3   OH242162   2.619   5.211   3.519 -0.3307 -0.4799  0.5464
 6916TIP3    H142163   2.583   5.263   3.447  1.2933 -0.7126 -0.4788
 6916TIP3    H242164   2.666   5.275   3.573  1.4311 -0.7732 -0.5632
 6917TIP3   OH242165   1.446   5.047   0.715  0.4589 -0.0116  0.0166
 6917TIP3    H142166   1.387   5.000   0.657  0.4917  1.8875 -1.6643
 6917TIP3    H242167   1.521   5.069   0.660  0.9132  1.0661  1.0249
 6918TIP3   OH242168   2.207   3.033   0.709  0.1324  0.3183  0.1018
 6918TIP3    H142169   2.261   2.957   0.734 -0.2116 -0.0947 -0.4054
 6918TIP3    H242170   2.270   3.104   0.699  0.3947  0.2628  1.1887
 6919TIP3   OH242171   1.326   3.218  12.710 -0.0034  0.0621 -0.0720
 6919TIP3    H142172   1.382   3.141  12.698 -1.5207 -1.1016  0.0377
 6919TIP3    H242173   1.300   3.242  12.621  0.9160  0.8421 -0.1563
 6920TIP3   OH242174   6.396   6.230   5.165  0.0377  0.4215  0.1018
 6920TIP3    H142175   6.333   6.212   5.095  0.7628 -0.5594 -0.3222
 6920TIP3    H242176   6.423   6.321   5.150 -1.5845  1.0216  0.5678
 6921TIP3   OH242177   4.382   0.571  16.781 -0.3818  0.9680  0.0646
 6921TIP3    H142178   4.330   0.644  16.746 -0.0208  0.6811 -1.1066
 6921TIP3    H242179   4.459   0.568  16.724 -0.8956 -1.0040 -0.6037
 6922TIP3   OH242180   4.991   4.188   3.473 -0.1779 -0.4449 -0.1176
 6922TIP3    H142181   5.014   4.138   3.552 -2.1246 -1.1711  0.0199
 6922TIP3    H242182   5.070   4.184   3.419  0.6704 -1.2401  1.1266
 6923TIP3   OH242183   5.525   5.567   4.808 -0.4376 -0.0173  0.7895
 6923TIP3    H142184   5.529   5.650   4.761 -0.9491  0.0616  0.8730
 6923TIP3    H242185   5.496   5.591   4.896  1.5678 -0.0374  1.4936
 6924TIP3   OH242186   0.662   3.401  11.773 -0.3463 -0.1364 -0.0476
 6924TIP3    H142187   0.743   3.451  11.785 -0.2035  0.6006 -3.2325
 6924TIP3    H242188   0.596   3.451  11.821  0.7278  0.2390  1.0904
 6925TIP3   OH242189   3.238   6.552   4.470 -0.1520  0.1076 -0.5122
 6925TIP3    H142190   3.242   6.646   4.455 -1.1205  0.3598  0.7236
 6925TIP3    H242191   3.248   6.514   4.382 -0.0790  1.3553 -1.0655
 6926TIP3   OH242192   6.495   2.917  15.529 -0.0794 -0.0229 -0.3266
 6926TIP3    H142193   6.538   2.956  15.606  0.2572 -1.2770  0.1398
 6926TIP3    H242194   6.405   2.949  15.534  0.8614  3.3299 -1.7733
 6927TIP3   OH242195   4.572   0.734   0.720  0.1895  0.8998 -0.0661
 6927TIP3    H142196   4.521   0.795   0.772 -1.0672 -0.9099  0.9187
 6927TIP3    H242197   4.508   0.691   0.663  1.1646  1.0529 -1.3199
 6928TIP3   OH242198   3.227   4.928  14.476 -0.9586 -0.1936 -0.2662
 6928TIP3    H142199   3.147   4.882  14.502 -0.8133  0.7952  2.2416
 6928TIP3    H242200   3.296   4.862  14.481 -1.3594 -0.6339 -0.6221
 6929TIP3   OH242201   0.534   3.638  16.310  0.1387  0.2265 -0.0405
 6929TIP3    H142202   0.598   3.567  16.303 -1.1021 -1.0920  1.4296
 6929TIP3    H242203   0.555   3.681  16.393 -2.1684 -1.6277  1.6137
 6930TIP3   OH242204   4.324   1.824  14.914 -0.1320  0.3513 -0.4935
 6930TIP3    H142205   4.392   1.757  14.917  1.8623  2.2872  1.0242
 6930TIP3    H242206   4.306   1.835  14.820 -0.8488 -2.4994 -0.7672
 6931TIP3   OH242207   3.855   2.560   1.524  0.6702 -0.6668  0.1441
 6931TIP3    H142208   3.826   2.575   1.614 -0.4794 -1.1156 -0.1327
 6931TIP3    H242209   3.944   2.596   1.521 -0.9781  4.0113  0.1249
 6932TIP3   OH242210   6.315   0.448   3.035 -0.4890  0.0771 -0.0593
 6932TIP3    H142211   6.355   0.479   3.116 -1.0991  2.1031 -0.4663
 6932TIP3    H242212   6.353   0.503   2.967 -2.4831  0.7821 -0.6822
 6933TIP3   OH242213   2.742   1.375   6.377  0.3271  0.3047  0.2252
 6933TIP3    H142214   2.727   1.370   6.472  2.0850 -0.5493  0.4901
 6933TIP3    H242215   2.741   1.469   6.358 -0.6217  0.4630  0.9718
 6934TIP3   OH242216   4.893   1.776  11.934  0.0716  0.5040  0.2522
 6934TIP3    H142217   4.975   1.731  11.953  1.2128  1.7415 -1.4665
 6934TIP3    H242218   4.889   1.847  11.997  0.1567  0.2439  0.5509
 6935TIP3   OH242219   0.341   0.022  11.544 -0.4997  0.4117  0.1299
 6935TIP3    H142220   0.283   0.045  11.471  0.9869 -1.7691 -1.8831
 6935TIP3    H242221   0.417   0.078  11.532  0.7312 -1.4780 -1.4706
 6936TIP3   OH242222   1.666   4.448   3.413 -0.2863  0.5117 -0.7828
 6936TIP3    H142223   1.759   4.436   3.393  0.2796  0.0748  1.7885
 6936TIP3    H242224   1.634   4.360   3.434 -0.9481  0.8556 -0.3208
 6937TIP3   OH242225   2.081   2.401  14.454 -0.2980 -0.0538 -0.3216
 6937TIP3    H142226   2.069   2.386  14.548 -0.6460  1.5581 -0.0723
 6937TIP3    H242227   2.018   2.343  14.411 -3.5701  2.4866  0.6523
 6938TIP3   OH242228   0.944   0.276   3.973 -0.1493  0.2461 -0.2442
 6938TIP3    H142229   0.960   0.252   3.882  0.2626 -2.0774  0.3679
 6938TIP3    H242230   1.009   0.344   3.991  0.2921  0.1800 -1.4693
 6939TIP3   OH242231   1.862   0.590  14.056  0.4640 -0.1427  0.0671
 6939TIP3    H142232   1.813   0.610  14.135 -0.6477  0.1691 -0.6840
 6939TIP3    H242233   1.796   0.566  13.992  1.3210 -0.0585 -0.8739
 6940TIP3   OH242234   4.385   3.399   0.367 -0.2506  0.2330  0.0794
 6940TIP3    H142235   4.321   3.339   0.406 -0.9015 -1.3813 -3.1167
 6940TIP3    H242236   4.344   3.485   0.373 -0.1893  0.1434  2.9965
 6941TIP3   OH242237   1.564   5.577  13.393  0.1632 -0.3513  1.1023
 6941TIP3    H142238   1.652   5.610  13.410 -0.3452  1.2240  0.8016
 6941TIP3    H242239   1.512   5.607  13.468 -0.6458  0.8849  0.0797
 6942TIP3   OH242240   1.616   5.349   0.859  0.0894  0.0763  0.1232
 6942TIP3    H142241   1.708   5.357   0.882  0.2333 -1.0338 -0.0215
 6942TIP3    H242242   1.616   5.304   0.774 -0.5549  0.9743 -0.3698
 6943TIP3   OH242243   6.423   2.221   2.099 -0.1733 -0.7542 -0.1677
 6943TIP3    H142244   6.357   2.152   2.104  1.5215 -2.3627  3.0096
 6943TIP3    H242245   6.500   2.177   2.061  0.9179 -0.7423  1.8814
 6944TIP3   OH242246   0.782   4.131   0.166 -0.4029 -0.0218  0.0357
 6944TIP3    H142247   0.851   4.102   0.105  0.3103 -0.1875  0.8990
 6944TIP3    H242248   0.702   4.093   0.131 -0.3019  1.2628 -1.7486
 6945TIP3   OH242249   3.572   2.725   3.191 -0.0222  0.1851  0.5684
 6945TIP3    H142250   3.517   2.695   3.263 -3.2036  0.2664 -1.6241
 6945TIP3    H242251   3.537   2.811   3.167  0.4748 -0.1047 -1.4316
 6946TIP3   OH242252   1.997   5.779  11.739  0.1389 -0.3013 -0.2635
 6946TIP3    H142253   2.077   5.726  11.738 -0.1581 -0.7597 -0.1139
 6946TIP3    H242254   1.967   5.779  11.648  0.2481 -0.2237 -0.2996
 6947TIP3   OH242255   1.518   0.214  15.354  0.0286 -0.2648  0.3784
 6947TIP3    H142256   1.515   0.240  15.262 -0.2678 -2.0700 -0.1476
 6947TIP3    H242257   1.601   0.168  15.364  0.2578  0.2910  1.1333
 6948TIP3   OH242258   6.101   2.775  12.514  0.2845 -0.3532 -0.5392
 6948TIP3    H142259   6.009   2.797  12.531  0.5220 -0.2386  0.7108
 6948TIP3    H242260   6.150   2.851  12.546  1.0742 -2.2030  3.1878
 6949TIP3   OH242261   3.302   1.831   2.213  0.4071  0.7537  0.0245
 6949TIP3    H142262   3.377   1.874   2.253  0.9635  0.3662 -0.5595
 6949TIP3    H242263   3.318   1.838   2.118  0.4990 -0.6529 -0.0955
 6950TIP3   OH242264   6.313   1.625  14.873 -0.0977 -0.1994 -0.8933
 6950TIP3    H142265   6.360   1.625  14.956 -1.5841 -0.1568 -0.0010
 6950TIP3    H242266   6.380   1.614  14.807  1.4023  2.1545  0.1322
 6951TIP3   OH242267   6.578   1.129   5.293 -0.1759 -0.2452  0.1150
 6951TIP3    H142268   6.641   1.057   5.298  0.0132 -0.0231  1.6102
 6951TIP3    H242269   6.568   1.146   5.200  0.3167 -1.7301 -0.2361
 6952TIP3   OH242270   3.181   3.280  11.368  0.2704  0.1518  0.2387
 6952TIP3    H142271   3.161   3.252  11.279 -1.2042 -2.8784  1.4091
 6952TIP3    H242272   3.276   3.268  11.376 -0.0031 -2.7148 -0.0051
 6953TIP3   OH242273   6.074   5.612  12.374  0.5070  0.6436 -0.1907
 6953TIP3    H142274   6.121   5.562  12.441  1.1514  0.6420 -0.6349
 6953TIP3    H242275   6.122   5.594  12.293 -1.0942 -0.4959 -0.9402
 6954TIP3   OH242276   0.912   5.794  13.785 -0.1400 -0.2663  0.5158
 6954TIP3    H142277   0.820   5.767  13.793  0.5553 -2.9484  0.1850
 6954TIP3    H242278   0.953   5.768  13.867  0.7086 -0.7679 -0.0515
 6955TIP3   OH242279   4.989   5.461  17.251  0.2693  0.7818 -0.1383
 6955TIP3    H142280   4.937   5.536  17.280  0.1880  0.6752 -0.0037
 6955TIP3    H242281   5.040   5.437  17.328 -0.0300  0.4266 -0.0478
 6956TIP3   OH242282   6.007   4.832   0.132  0.1336 -0.3903 -0.1567
 6956TIP3    H142283   6.012   4.925   0.154  1.3204 -0.6205  0.6374
 6956TIP3    H242284   5.993   4.830   0.037 -1.1806  0.5960 -0.0004
 6957TIP3   OH242285   2.586   2.701  11.637 -0.4150  0.4313 -0.0797
 6957TIP3    H142286   2.527   2.724  11.565 -1.0621 -0.8107  0.0387
 6957TIP3    H242287   2.670   2.682  11.594 -0.8840 -0.6278 -0.5459
 6958TIP3   OH242288   2.379   5.331  14.815 -0.1671 -0.6994 -0.1294
 6958TIP3    H142289   2.291   5.356  14.845 -0.3647 -1.9411  0.4203
 6958TIP3    H242290   2.439   5.384  14.868 -0.4707  3.5108 -3.4671
 6959TIP3   OH242291   2.949   4.800   5.441 -0.3942  0.0002  0.2926
 6959TIP3    H142292   2.865   4.842   5.459  0.2070  0.4669  2.3477
 6959TIP3    H242293   2.979   4.770   5.527  2.1464  1.0338 -0.1484
 6960TIP3   OH242294   4.487   5.436   4.927  0.5650  0.5699 -0.0893
 6960TIP3    H142295   4.453   5.500   4.865  0.3523  0.2065 -0.3545
 6960TIP3    H242296   4.582   5.447   4.925  0.5097  1.1105  0.1270
 6961TIP3   OH242297   6.168   6.587  11.893 -0.0315  0.0465  0.4334
 6961TIP3    H142298   6.104   6.647  11.854  1.0256  0.3256 -0.9526
 6961TIP3    H242299   6.205   6.539  11.819  2.4972  1.0103  0.9706
 6962TIP3   OH242300   3.783   3.889  15.131  0.4640 -0.3123 -0.7802
 6962TIP3    H142301   3.733   3.965  15.162 -1.2416 -1.7303  0.0734
 6962TIP3    H242302   3.717   3.822  15.115  2.0110 -1.8975 -0.7097
 6963TIP3   OH242303   2.037   0.144  14.936  0.3212 -0.3809  0.6922
 6963TIP3    H142304   2.008   0.058  14.966  0.4430 -0.2509  1.1946
 6963TIP3    H242305   2.104   0.171  15.000  1.0525 -0.3759 -0.0586
 6964TIP3   OH242306   5.870   0.739   0.966  0.0426  0.2084 -0.0255
 6964TIP3    H142307   5.884   0.730   1.060 -0.9337  4.5576  0.7918
 6964TIP3    H242308   5.775   0.744   0.956  0.1290 -0.2607 -1.2799
 6965TIP3   OH242309   6.615   4.152   3.082 -0.2323  0.0042 -0.2583
 6965TIP3    H142310   6.648   4.163   2.993 -1.6566  0.0179 -0.8102
 6965TIP3    H242311   6.525   4.123   3.071 -1.1558  2.0908  1.1478
 6966TIP3   OH242312   5.563   1.658  14.286 -0.6012 -0.1501  0.5187
 6966TIP3    H142313   5.486   1.672  14.230 -0.3912 -1.1188 -0.0317
 6966TIP3    H242314   5.558   1.729  14.351 -1.3889  0.4114 -0.1268
 6967TIP3   OH242315   5.081   1.565   2.475 -0.4030  0.2148  0.4281
 6967TIP3    H142316   5.132   1.639   2.509 -0.4478  0.8187 -0.7971
 6967TIP3    H242317   4.997   1.602   2.450 -0.3732 -0.2135 -0.3390
 6968TIP3   OH242318   6.672   6.506   2.241  0.2188 -0.6628  0.1407
 6968TIP3    H142319   6.587   6.461   2.240  0.0570 -0.3919  0.8795
 6968TIP3    H242320   6.727   6.453   2.298  0.8643 -1.3658 -1.0919
 6969TIP3   OH242321   6.593   0.012   0.804 -0.0606 -0.4306  0.0891
 6969TIP3    H142322   6.533   0.058   0.864 -0.5134 -0.8851 -0.0103
 6969TIP3    H242323   6.595   0.066   0.726 -0.2296 -0.3398  0.1467
 6970TIP3   OH242324   5.196   0.391  16.020  0.6564 -0.6191 -0.6596
 6970TIP3    H142325   5.112   0.380  15.975 -0.0221  1.0646  0.0942
 6970TIP3    H242326   5.178   0.365  16.110  0.9766 -0.3591 -0.5193
 6971TIP3   OH242327   6.112   4.725   4.137 -0.0646 -0.0415 -0.3921
 6971TIP3    H142328   6.025   4.696   4.111 -1.1594  1.2359  1.5825
 6971TIP3    H242329   6.133   4.671   4.214 -0.4169  1.6083  0.9048
 6972TIP3   OH242330   5.926   5.761   3.491  0.1014  0.6579 -0.8204
 6972TIP3    H142331   5.918   5.803   3.577 -3.5710 -1.4473  0.1025
 6972TIP3    H242332   5.873   5.817   3.433  0.2128  0.5488 -1.0258
 6973TIP3   OH242333   2.754   4.023  16.422  0.4573 -0.0047 -0.0300
 6973TIP3    H142334   2.707   3.940  16.432  0.7553 -0.1124  0.5256
 6973TIP3    H242335   2.823   4.020  16.488  1.2760  0.1356 -0.8678
 6974TIP3   OH242336   1.622   2.200  13.704  0.5849  0.5301 -0.1782
 6974TIP3    H142337   1.678   2.149  13.645 -0.3867  0.3512 -0.9700
 6974TIP3    H242338   1.585   2.268  13.648 -1.0674 -0.1871  0.0036
 6975TIP3   OH242339   2.697   5.533  13.089 -0.2303 -0.6999  0.1484
 6975TIP3    H142340   2.645   5.453  13.095 -0.4946 -0.4734  1.1954
 6975TIP3    H242341   2.632   5.603  13.080  0.0148 -0.6241 -1.2644
 6976TIP3   OH242342   5.587   2.858  15.268  0.1310 -0.0858  0.9431
 6976TIP3    H142343   5.656   2.858  15.201 -0.2191 -1.1290  0.5655
 6976TIP3    H242344   5.533   2.782  15.247 -1.1659  0.7288  1.2134
 6977TIP3   OH242345   3.249   5.088   2.345  0.2205  0.0172 -0.0134
 6977TIP3    H142346   3.330   5.136   2.365 -0.7572  1.1830  1.3980
 6977TIP3    H242347   3.180   5.150   2.366 -1.0656 -1.1363 -0.7155
 6978TIP3   OH242348   3.020   5.196   5.413  0.4643  0.0477  0.5964
 6978TIP3    H142349   2.946   5.201   5.474 -0.5958 -0.0328 -0.6337
 6978TIP3    H242350   3.051   5.286   5.405  0.4340  0.0989  1.0327
 6979TIP3   OH242351   2.745   6.161   2.553  0.0392 -0.0549  0.0207
 6979TIP3    H142352   2.778   6.200   2.635 -0.7866 -1.2000  0.9400
 6979TIP3    H242353   2.658   6.201   2.542  0.0697 -0.0500 -0.1946
 6980TIP3   OH242354   4.195   4.079  15.131 -0.2821  0.5325  0.0216
 6980TIP3    H142355   4.229   3.990  15.141 -1.6492 -0.0210 -0.0224
 6980TIP3    H242356   4.139   4.093  15.208 -1.9652  0.4353 -1.1219
 6981TIP3   OH242357   0.684   3.180   3.923 -0.3112 -0.0795 -0.1821
 6981TIP3    H142358   0.711   3.209   3.836  0.9568 -0.1653  0.1596
 6981TIP3    H242359   0.754   3.120   3.950  0.1764  1.1909  1.5410
 6982TIP3   OH242360   3.820   2.660   1.032 -0.2053  0.0265  0.2494
 6982TIP3    H142361   3.888   2.635   0.970 -0.2725  0.0982  0.1473
 6982TIP3    H242362   3.841   2.611   1.112  0.7706  1.0850  0.6744
 6983TIP3   OH242363   2.310   0.932   1.238  0.3683 -0.0971 -0.2257
 6983TIP3    H142364   2.305   0.996   1.167  1.6663  2.6141  1.9393
 6983TIP3    H242365   2.404   0.916   1.251  0.3901  1.5228  2.4412
 6984TIP3   OH242366   6.587   5.997  16.005 -0.2376  0.4590 -0.2798
 6984TIP3    H142367   6.524   6.060  16.041 -1.1506 -0.6763  0.1863
 6984TIP3    H242368   6.551   5.973  15.920 -1.4337 -1.4829  0.6947
 6985TIP3   OH242369   5.105   0.164   3.284 -0.0907 -0.3548  0.0275
 6985TIP3    H142370   5.053   0.095   3.244  0.5509 -0.3347 -0.8769
 6985TIP3    H242371   5.047   0.241   3.283 -0.4072 -0.5925  0.0011
 6986TIP3   OH242372   5.509   0.426  15.877  0.0976 -0.2354 -0.3959
 6986TIP3    H142373   5.414   0.424  15.877 -0.0263  0.4121  2.6509
 6986TIP3    H242374   5.534   0.367  15.948  1.8390  1.3146  0.3658
 6987TIP3   OH242375   6.137   4.695  16.991 -0.6047 -1.1570  0.1883
 6987TIP3    H142376   6.204   4.724  17.052 -1.2624  1.1117 -0.0764
 6987TIP3    H242377   6.055   4.728  17.027 -1.4984 -2.9705 -0.0412
 6988TIP3   OH242378   3.601   1.497  12.551  0.6926 -0.5982 -0.3380
 6988TIP3    H142379   3.651   1.566  12.506 -0.9775  1.4319  0.7405
 6988TIP3    H242380   3.534   1.545  12.600  0.4587 -2.9225  1.7702
 6989TIP3   OH242381   3.880   3.441  14.471 -0.0821 -0.2657 -0.4478
 6989TIP3    H142382   3.921   3.527  14.481 -0.2168  0.1312 -2.8246
 6989TIP3    H242383   3.787   3.457  14.487 -0.2088  0.2013 -1.5758
 6990TIP3   OH242384   4.293   0.170  12.591  0.2825 -0.3794  0.2910
 6990TIP3    H142385   4.281   0.259  12.558  0.0233 -1.5220 -3.0681
 6990TIP3    H242386   4.386   0.164  12.611  0.3621  0.5441  0.2160
 6991TIP3   OH242387   5.615   6.253   6.652  0.1887 -0.0571 -0.1305
 6991TIP3    H142388   5.692   6.309   6.649  0.4957 -0.5311 -2.0722
 6991TIP3    H242389   5.640   6.181   6.711  1.9394 -1.1269 -2.0366
 6992TIP3   OH242390   6.336   3.001  14.872 -0.1148 -0.5189  0.4930
 6992TIP3    H142391   6.247   3.016  14.904 -0.7818  0.8307 -1.7543
 6992TIP3    H242392   6.326   2.937  14.802  0.1551  1.7383 -1.7514
 6993TIP3   OH242393   2.422   5.383  13.548  0.6046 -0.4482 -0.5313
 6993TIP3    H142394   2.499   5.432  13.518  0.1400 -0.7257 -2.3433
 6993TIP3    H242395   2.352   5.448  13.554  0.4256 -0.5624 -1.2102
 6994TIP3   OH242396   2.659   3.226   1.763  0.0468  0.1870  0.1917
 6994TIP3    H142397   2.651   3.231   1.858 -1.2222  0.4735  0.0852
 6994TIP3    H242398   2.605   3.298   1.730 -0.1197 -0.3612 -0.7666
 6995TIP3   OH242399   2.847   2.814   6.333  0.6948  0.8065  0.1111
 6995TIP3    H142400   2.779   2.765   6.288  2.3465 -0.8821 -0.7116
 6995TIP3    H242401   2.804   2.894   6.364 -1.1344  0.7772 -2.1307
 6996TIP3   OH242402   4.573   1.672  11.180  0.7394  0.3152  0.1425
 6996TIP3    H142403   4.584   1.725  11.102 -0.8943 -0.5837 -0.7458
 6996TIP3    H242404   4.517   1.725  11.237  1.0738  0.5273  0.2803
 6997TIP3   OH242405   6.138   5.881   1.491  0.0200  0.4101 -0.1576
 6997TIP3    H142406   6.191   5.956   1.466 -0.1172  0.9684  1.1410
 6997TIP3    H242407   6.052   5.899   1.452  0.1643  0.5998 -0.3956
 6998TIP3   OH242408   2.889   1.643  15.900  0.5659  0.4042 -0.3150
 6998TIP3    H142409   2.884   1.562  15.850 -1.6092 -0.2322  0.8386
 6998TIP3    H242410   2.828   1.702  15.856 -0.7038  0.1277  0.9993
 6999TIP3   OH242411   5.913   1.413  13.765  0.4588  0.4911  0.1674
 6999TIP3    H142412   5.853   1.362  13.820 -0.2155  0.5440 -0.4950
 6999TIP3    H242413   5.888   1.504  13.781 -0.5798  0.4682 -1.1119
 7000TIP3   OH242414   3.638   5.886   0.243  0.0283 -0.2211  0.7373
 7000TIP3    H142415   3.710   5.835   0.204  0.7124  1.9028 -0.9564
 7000TIP3    H242416   3.669   5.977   0.240 -2.0376  0.5648  1.5999
 7001TIP3   OH242417   1.446   0.225  11.117 -0.0710 -0.6873  0.0904
 7001TIP3    H142418   1.353   0.241  11.133 -0.1991  0.5627 -1.6367
 7001TIP3    H242419   1.451   0.201  11.024  1.3914 -0.0638 -0.0231
 7002TIP3   OH242420   6.520   1.564   1.520 -0.4563 -0.3774  0.6528
 7002TIP3    H142421   6.578   1.488   1.517 -0.4951 -0.4076 -2.2506
 7002TIP3    H242422   6.448   1.542   1.461 -1.1840  1.3519  0.8343
 7003TIP3   OH242423   3.015   4.885   6.801  0.8397 -0.2950 -0.5059
 7003TIP3    H142424   3.007   4.797   6.839  0.8489 -0.8466 -1.7291
 7003TIP3    H242425   2.939   4.893   6.743 -0.2630  1.2901  1.0503
 7004TIP3   OH242426   2.549   0.148  11.184 -0.3600  0.0202 -0.6167
 7004TIP3    H142427   2.628   0.164  11.235 -0.0571  0.2615 -1.1549
 7004TIP3    H242428   2.494   0.225  11.202 -1.2004 -0.9279  1.0873
 7005TIP3   OH242429   3.811   0.158   5.033  0.1780 -0.6657  0.8462
 7005TIP3    H142430   3.821   0.204   5.116 -1.2058  0.2947  0.5167
 7005TIP3    H242431   3.722   0.180   5.004  0.7092 -0.7784 -0.9966
 7006TIP3   OH242432   5.551   5.493  16.957  0.6546 -0.5988 -0.1723
 7006TIP3    H142433   5.543   5.528  17.046 -0.0107  0.1698 -0.5249
 7006TIP3    H242434   5.644   5.474  16.947  0.6812 -1.0886  0.8261
 7007TIP3   OH242435   2.411   0.106  14.146  0.0703 -0.1367  0.0794
 7007TIP3    H142436   2.442   0.119  14.235  1.5951  1.1637 -0.5693
 7007TIP3    H242437   2.469   0.162  14.093 -0.7662 -0.8950 -1.7136
 7008TIP3   OH242438   4.737   5.764  14.608  0.4294  0.1542  0.1248
 7008TIP3    H142439   4.776   5.756  14.695 -1.6379 -0.7357  1.0358
 7008TIP3    H242440   4.677   5.837  14.615 -0.6281 -0.6637 -0.1795
 7009TIP3   OH242441   0.237   3.693  16.287 -0.2926 -0.2993  0.6090
 7009TIP3    H142442   0.206   3.618  16.338 -1.0641  0.2401  0.9388
 7009TIP3    H242443   0.332   3.684  16.287 -0.3642 -1.1525  0.8407
 7010TIP3   OH242444   2.469   1.270  10.742  0.1614  0.0102 -0.3021
 7010TIP3    H142445   2.519   1.252  10.662  1.0923 -1.1187  0.4893
 7010TIP3    H242446   2.515   1.220  10.810 -1.1425  0.2061  0.7605
 7011TIP3   OH242447   1.624   3.981  15.010  0.0854 -0.3114 -0.6010
 7011TIP3    H142448   1.656   3.897  15.042  1.0977  0.0547 -0.6028
 7011TIP3    H242449   1.649   4.044  15.078  2.5694  0.5355 -2.1393
 7012TIP3   OH242450   5.956   5.743  16.329  0.5540 -0.1923  0.4037
 7012TIP3    H142451   5.943   5.807  16.259 -0.3460  0.1630  0.8830
 7012TIP3    H242452   6.013   5.677  16.290  0.1960  0.0813 -0.6165
 7013TIP3   OH242453   6.746   1.949   3.188  0.3663  0.5610  0.0904
 7013TIP3    H142454   6.794   1.884   3.240  2.1978  1.7134 -0.0778
 7013TIP3    H242455   6.814   1.997   3.141 -1.1410  0.0216 -2.9230
 7014TIP3   OH242456   5.147   4.153   0.808  0.1329  0.1461  0.6754
 7014TIP3    H142457   5.184   4.223   0.862 -1.2450  0.2169  1.5789
 7014TIP3    H242458   5.165   4.073   0.858  1.4202 -0.1407 -0.2008
 7015TIP3   OH242459   0.879   0.250   2.791  0.2172 -0.0618  0.2287
 7015TIP3    H142460   0.807   0.196   2.824  2.2055 -1.5622  2.4836
 7015TIP3    H242461   0.946   0.187   2.765  0.7597  1.2892 -1.8678
 7016TIP3   OH242462   2.294   0.773   3.619 -0.3145  0.2036 -0.0643
 7016TIP3    H142463   2.286   0.860   3.658  0.6115  0.0615  0.4825
 7016TIP3    H242464   2.243   0.716   3.677  4.0071 -0.7027  3.4023
 7017TIP3   OH242465   0.327   6.512   4.317 -0.1048 -0.1497  0.3353
 7017TIP3    H142466   0.286   6.547   4.237  0.7330 -0.2893 -0.1601
 7017TIP3    H242467   0.277   6.433   4.336  0.3975 -0.7329 -0.6941
 7018TIP3   OH242468   1.666   0.785   2.869  0.3505  0.3181  0.0103
 7018TIP3    H142469   1.693   0.795   2.778 -0.0332 -0.3289 -0.1784
 7018TIP3    H242470   1.591   0.844   2.878  1.8000  2.1751  0.5563
 7019TIP3   OH242471   5.837   2.799   2.371 -0.2481  0.3256 -0.0095
 7019TIP3    H142472   5.827   2.877   2.426  3.1041 -0.8397  2.6075
 7019TIP3    H242473   5.809   2.727   2.426  1.0346 -0.6888 -0.6290
 7020TIP3   OH242474   6.417   6.359  10.990  0.0510 -0.2746  0.1871
 7020TIP3    H142475   6.365   6.287  10.954 -0.0581 -0.1372  0.0681
 7020TIP3    H242476   6.361   6.436  10.980 -1.7528 -0.7794  4.2876
 7021TIP3   OH242477   2.483   2.815  12.127  0.0683 -0.1902  0.7198
 7021TIP3    H142478   2.456   2.844  12.215  0.0732 -0.8103  0.9284
 7021TIP3    H242479   2.401   2.807  12.078 -0.1285 -1.8284  1.2780
 7022TIP3   OH242480   6.783   6.356  16.610 -0.2282  0.0966  0.0811
 7022TIP3    H142481   6.765   6.329  16.520  0.9344 -0.7522  0.0738
 7022TIP3    H242482   6.878   6.372  16.611 -0.3689  0.9489  0.9361
 7023TIP3   OH242483   1.901   2.692  13.302 -0.2355  0.0405 -0.1703
 7023TIP3    H142484   1.849   2.617  13.333 -1.6841  0.6086 -1.0955
 7023TIP3    H242485   1.848   2.768  13.325  1.4230  0.8579  1.1483
 7024TIP3   OH242486   0.956   2.095  12.007  0.2957 -0.0309  0.1893
 7024TIP3    H142487   0.983   2.020  11.955  1.4039 -0.7623  1.7339
 7024TIP3    H242488   0.930   2.162  11.943  3.7496 -0.0439 -1.4142
 7025TIP3   OH242489   1.901   6.383  15.723  0.0654 -0.5215  0.1952
 7025TIP3    H142490   1.885   6.470  15.760  3.0975  0.5309 -0.6393
 7025TIP3    H242491   1.903   6.397  15.628  1.3692 -1.2937  0.0803
 7026TIP3   OH242492   4.642   5.637  16.966  0.1991 -0.0022 -0.2371
 7026TIP3    H142493   4.707   5.570  16.989 -1.8906 -2.0155  0.2347
 7026TIP3    H242494   4.613   5.673  17.050  0.5609  0.7569 -0.4306
 7027TIP3   OH242495   4.515   5.435  12.545 -0.0350 -0.8909  0.0153
 7027TIP3    H142496   4.553   5.368  12.488  0.9329 -0.6017  0.3048
 7027TIP3    H242497   4.537   5.405  12.634 -1.1529 -1.1145  0.2293
 7028TIP3   OH242498   1.952   4.467   5.924  0.4825  0.2439 -0.2846
 7028TIP3    H142499   1.966   4.449   6.017 -2.1890  1.5603  0.4506
 7028TIP3    H242500   1.958   4.562   5.917 -0.9630  0.2905 -1.1379
 7029TIP3   OH242501   6.225   5.226  14.485  0.1898 -0.4388  0.3002
 7029TIP3    H142502   6.302   5.170  14.474  0.1111 -0.4616 -0.1528
 7029TIP3    H242503   6.155   5.179  14.440  0.4651  0.7498 -1.4804
 7030TIP3   OH242504   3.742   5.400  11.585 -0.2011 -0.7848 -0.2301
 7030TIP3    H142505   3.682   5.376  11.655 -0.2993  1.4754  0.5213
 7030TIP3    H242506   3.705   5.480  11.547  0.7891 -0.9859 -1.6989
 7031TIP3   OH242507   5.509   2.874  11.949 -0.0915  0.0482  0.2724
 7031TIP3    H142508   5.492   2.799  12.006 -1.6031 -1.0633 -1.4979
 7031TIP3    H242509   5.449   2.861  11.875  1.0398  1.9556 -1.0641
 7032TIP3   OH242510   0.197   6.046   4.768 -0.6616  0.1524  0.0615
 7032TIP3    H142511   0.136   5.973   4.762 -1.4874  0.5392  2.5418
 7032TIP3    H242512   0.213   6.056   4.862  0.3588  2.4104 -0.2864
 7033TIP3   OH242513   0.539   3.236  14.929  0.2131 -0.0737 -0.4588
 7033TIP3    H142514   0.595   3.313  14.930 -0.5889  0.6127  2.3518
 7033TIP3    H242515   0.455   3.267  14.963 -0.6285 -1.8683 -0.7702
 7034TIP3   OH242516   1.026   6.170  14.237 -0.0275  0.6278  0.0263
 7034TIP3    H142517   1.080   6.233  14.284 -0.1896  1.7245 -1.2018
 7034TIP3    H242518   0.941   6.212  14.229 -0.1578  0.2347 -0.7465
 7035TIP3   OH242519   0.498   5.668  16.918  0.3797 -0.4598 -0.9046
 7035TIP3    H142520   0.404   5.651  16.925 -0.0680  1.7902 -0.7865
 7035TIP3    H242521   0.538   5.604  16.976 -1.1822 -0.5620  0.1194
 7036TIP3   OH242522   0.034   0.187  17.067 -0.3129  0.5459 -0.4349
 7036TIP3    H142523   0.108   0.150  17.020 -0.8726 -0.7345 -0.3521
 7036TIP3    H242524  -0.025   0.217  16.998 -1.7901 -2.6178 -0.7176
 7037TIP3   OH242525   6.233   3.165  17.203  1.0251  0.0072 -0.5379
 7037TIP3    H142526   6.248   3.088  17.148  1.7811  0.6197 -1.2208
 7037TIP3    H242527   6.188   3.227  17.145 -0.2174 -0.1572  0.2082
 7038TIP3   OH242528   4.148   2.799   5.615 -0.0905  0.0044  0.2860
 7038TIP3    H142529   4.139   2.849   5.534  1.1772 -0.6002 -0.2665
 7038TIP3    H242530   4.063   2.805   5.657 -1.3014 -0.9562 -1.8374
 7039TIP3   OH242531   5.089   2.774   1.893  0.2806 -0.4646 -0.9656
 7039TIP3    H142532   5.066   2.710   1.826 -2.3772  0.4527 -1.0651
 7039TIP3    H242533   5.114   2.852   1.844 -0.6111 -0.1282 -0.8916
 7040TIP3   OH242534   6.558   2.163  16.271 -0.7905  0.2008  0.1345
 7040TIP3    H142535   6.565   2.204  16.184  0.6046  0.1672  0.2098
 7040TIP3    H242536   6.558   2.236  16.332  2.5473  0.2240  0.3230
 7041TIP3   OH242537   4.575   3.504  13.731  0.6685  0.2309  0.0832
 7041TIP3    H142538   4.507   3.540  13.788 -0.8678 -0.2445 -1.3862
 7041TIP3    H242539   4.534   3.496  13.645  1.6800 -2.6246 -0.2585
 7042TIP3   OH242540   5.178   4.782   5.056  0.5177  0.0187 -0.8978
 7042TIP3    H142541   5.259   4.730   5.052 -0.4822 -1.8344  0.8699
 7042TIP3    H242542   5.187   4.833   5.136 -1.0271 -2.1390  0.7872
 7043TIP3   OH242543   3.659   1.433   1.556 -0.0837  0.5272 -0.4036
 7043TIP3    H142544   3.672   1.389   1.640 -0.4537  0.7388 -0.2353
 7043TIP3    H242545   3.629   1.521   1.579 -0.7824  0.3866 -0.7615
 7044TIP3   OH242546   3.093   5.688  14.280  0.5787 -0.1070 -0.3952
 7044TIP3    H142547   3.036   5.644  14.342 -0.9231  1.6306 -0.4579
 7044TIP3    H242548   3.111   5.623  14.212  1.1000 -1.5897  1.1115
 7045TIP3   OH242549   3.032   3.110  15.186 -0.4272 -0.9619 -0.0889
 7045TIP3    H142550   3.000   3.192  15.223 -0.6533  0.3000 -2.8157
 7045TIP3    H242551   2.953   3.068  15.150  0.0097 -1.1861 -0.8113
 7046TIP3   OH242552   2.575   0.110  15.551  0.3411  0.3562  0.1278
 7046TIP3    H142553   2.640   0.140  15.614  0.7443  0.5488 -0.3723
 7046TIP3    H242554   2.512   0.183  15.545 -0.4617 -0.1954  1.3109
 7047TIP3   OH242555   1.486   2.134  14.549 -0.5103 -0.3667 -0.4741
 7047TIP3    H142556   1.545   2.059  14.546 -0.1559 -0.0938 -0.3582
 7047TIP3    H242557   1.479   2.155  14.642 -0.9333 -0.5044 -0.4692
 7048TIP3   OH242558   4.270   0.098  13.948 -0.1199  0.0448 -0.1518
 7048TIP3    H142559   4.231   0.041  13.883 -1.7265 -0.3145  1.0688
 7048TIP3    H242560   4.248   0.187  13.919  0.2620 -0.0466 -0.7384
 7049TIP3   OH242561   1.856   2.302  13.503 -0.3932  1.0635 -0.4470
 7049TIP3    H142562   1.918   2.274  13.436 -0.2410  0.5578 -0.1099
 7049TIP3    H242563   1.909   2.306  13.583 -0.9236 -0.0303 -0.0228
 7050TIP3   OH242564   5.674   6.099  11.239 -0.0911  0.8434 -0.4613
 7050TIP3    H142565   5.582   6.075  11.240  0.1133  0.0511  0.1176
 7050TIP3    H242566   5.711   6.059  11.318  0.7630  1.0870 -0.7191
 7051TIP3   OH242567   2.806   3.902   0.257 -0.6846  0.1280 -0.1225
 7051TIP3    H142568   2.881   3.912   0.316 -1.6672 -1.0359  1.3989
 7051TIP3    H242569   2.767   3.989   0.254  1.1228  0.9641 -1.5873
 7052TIP3   OH242570   0.863   2.583  13.696  0.3365 -0.4451 -0.4258
 7052TIP3    H142571   0.887   2.576  13.788  0.2955 -0.0404 -0.3816
 7052TIP3    H242572   0.880   2.675  13.673 -0.9186 -0.1999 -0.4526
 7053TIP3   OH242573   4.524   5.024   6.298 -0.3093 -0.5405 -0.0948
 7053TIP3    H142574   4.474   5.102   6.321 -0.9847 -0.4407 -1.7758
 7053TIP3    H242575   4.615   5.052   6.303 -0.5602  0.6310 -1.4784
 7054TIP3   OH242576   3.406   1.581   2.305 -0.0686  0.2747  0.3931
 7054TIP3    H142577   3.432   1.509   2.248 -0.2614  0.3951  0.1537
 7054TIP3    H242578   3.370   1.648   2.246 -0.6006  0.2543  0.6818
 7055TIP3   OH242579   3.655   6.033   2.195 -0.3773 -0.4033  0.3431
 7055TIP3    H142580   3.723   5.971   2.170 -1.0066 -0.8595 -0.2995
 7055TIP3    H242581   3.607   6.050   2.113  0.5669  1.9393  0.1959
 7056TIP3   OH242582   0.792   5.891  14.840  0.1795  0.1959  0.4195
 7056TIP3    H142583   0.702   5.885  14.871 -0.3145  0.4090 -0.8787
 7056TIP3    H242584   0.787   5.953  14.767  0.4190 -3.2327 -2.8178
 7057TIP3   OH242585   3.748   5.914  15.129  0.5778 -0.4719  0.0069
 7057TIP3    H142586   3.808   5.845  15.158  1.2632  0.6357  1.3134
 7057TIP3    H242587   3.706   5.877  15.051  0.8677 -2.3939  0.6898
 7058TIP3   OH242588   6.233   0.627  16.603 -0.4011  0.3602  0.0394
 7058TIP3    H142589   6.138   0.614  16.614 -0.4625 -0.2421 -0.9941
 7058TIP3    H242590   6.261   0.551  16.552  0.7410  0.2809  0.7513
 7059TIP3   OH242591   3.389   1.346  14.103  0.2950  0.1297  0.1556
 7059TIP3    H142592   3.296   1.361  14.120 -0.0774 -1.0487 -0.7006
 7059TIP3    H242593   3.397   1.354  14.007  1.1675  0.6617  0.2638
 7060TIP3   OH242594   6.232   4.258  15.643  0.3768 -0.1472 -0.6672
 7060TIP3    H142595   6.316   4.303  15.654 -0.5152  1.3266  0.4697
 7060TIP3    H242596   6.168   4.317  15.683 -1.5212 -0.2020 -3.3475
 7061TIP3   OH242597   6.614   3.432  12.938  0.4789 -0.2946 -0.5230
 7061TIP3    H142598   6.652   3.351  12.905  1.3617 -0.1173  0.0380
 7061TIP3    H242599   6.688   3.483  12.968  0.0148  1.1207 -1.6881
 7062TIP3   OH242600   0.887   2.511   1.896  0.3501 -0.7625 -0.1418
 7062TIP3    H142601   0.967   2.534   1.848 -0.1613  3.7088  0.7192
 7062TIP3    H242602   0.918   2.466   1.974  2.3050  1.8810  0.7614
 7063TIP3   OH242603   4.519   0.444   1.263 -0.1851  0.6046  0.3947
 7063TIP3    H142604   4.526   0.351   1.243 -4.1711  0.7509 -2.8261
 7063TIP3    H242605   4.597   0.484   1.224  0.7132 -1.1497  0.3292
 7064TIP3   OH242606   4.792   5.776   4.403  0.1129 -0.1853  0.0507
 7064TIP3    H142607   4.865   5.821   4.447  0.8680 -1.5916  0.2741
 7064TIP3    H242608   4.724   5.771   4.470 -0.3754  1.4597 -0.2644
 7065TIP3   OH242609   2.734   2.944   4.957 -1.1150 -0.0306  0.8685
 7065TIP3    H142610   2.807   2.918   4.901 -0.7945  3.0621 -0.3262
 7065TIP3    H242611   2.680   2.864   4.964  0.9255 -1.6414 -0.4556
 7066TIP3   OH242612   5.640   1.948   4.508 -0.0837  0.5958  0.2583
 7066TIP3    H142613   5.569   1.952   4.572  1.2660  0.0860  1.8526
 7066TIP3    H242614   5.599   1.913   4.428 -1.5734  0.1786  1.1702
 7067TIP3   OH242615   2.183   6.192   1.508  0.3544  0.0143  0.0985
 7067TIP3    H142616   2.156   6.125   1.445 -3.1838  0.8102  0.5652
 7067TIP3    H242617   2.189   6.272   1.456  4.7423 -0.4403 -0.4937
 7068TIP3   OH242618   2.837   5.197  13.662  0.2996  0.1138 -1.1219
 7068TIP3    H142619   2.744   5.219  13.661  0.3696  0.6630  0.7923
 7068TIP3    H242620   2.847   5.132  13.592 -1.1758  1.2396 -2.4617
 7069TIP3   OH242621   0.707   0.674  14.886 -0.3326  0.1119 -0.5770
 7069TIP3    H142622   0.630   0.622  14.863  1.3227 -2.1862 -1.1841
 7069TIP3    H242623   0.779   0.636  14.836  1.3080  1.9784  0.2099
 7070TIP3   OH242624   1.015   2.234  15.876  0.3189  0.8979 -0.2683
 7070TIP3    H142625   1.013   2.181  15.796 -1.2947 -1.1440  1.0131
 7070TIP3    H242626   1.097   2.208  15.919  0.1545  0.3994 -0.2527
 7071TIP3   OH242627   6.508   5.435   4.652 -0.2785 -0.4147 -0.2072
 7071TIP3    H142628   6.544   5.357   4.610 -0.4548 -0.6997  0.1699
 7071TIP3    H242629   6.480   5.406   4.738  0.4501  0.2582  0.2721
 7072TIP3   OH242630   5.617   2.143   1.501  0.2336  0.1691  0.4272
 7072TIP3    H142631   5.540   2.102   1.461  0.1104 -0.9816  1.7667
 7072TIP3    H242632   5.591   2.162   1.591  2.0297 -1.9862  1.5159
 7073TIP3   OH242633   5.887   3.430  14.408  0.6780  0.3651 -0.7541
 7073TIP3    H142634   5.808   3.485  14.407  1.2084  1.2381 -4.0515
 7073TIP3    H242635   5.871   3.365  14.340  1.7217 -1.1838  0.4299
 7074TIP3   OH242636   1.562   1.763  10.882 -0.8683 -0.0713 -0.2950
 7074TIP3    H142637   1.566   1.846  10.834 -3.0539  0.4225  0.2506
 7074TIP3    H242638   1.645   1.758  10.929 -0.3753  1.4244 -0.9453
 7075TIP3   OH242639   6.072   4.046   6.639 -0.2664 -0.0059  0.0995
 7075TIP3    H142640   6.133   4.110   6.604  0.6999 -1.6437 -1.3860
 7075TIP3    H242641   6.084   3.968   6.584 -0.7441 -1.7860  2.3532
 7076TIP3   OH242642   5.901   5.582   0.632 -0.2683 -0.9213 -0.3770
 7076TIP3    H142643   5.817   5.590   0.678  0.6117 -0.2437  1.1998
 7076TIP3    H242644   5.919   5.670   0.599 -0.4326 -1.1932 -1.2119
 7077TIP3   OH242645   6.671   0.852   0.684 -0.0019  0.1816 -0.0568
 7077TIP3    H142646   6.745   0.912   0.675 -0.1231  0.3896  0.3279
 7077TIP3    H242647   6.639   0.840   0.594 -0.3514  1.1636 -0.0749
 7078TIP3   OH242648   1.621   5.970  10.577  0.3141  0.9825 -0.0112
 7078TIP3    H142649   1.641   6.002  10.489  1.0530  0.9104  0.1180
 7078TIP3    H242650   1.694   5.911  10.597 -0.5557 -0.0812  0.1097
 7079TIP3   OH242651   0.127   5.036  10.695  0.1148 -0.2266 -0.3791
 7079TIP3    H142652   0.112   5.107  10.757 -0.2760  0.4458 -1.2164
 7079TIP3    H242653   0.068   5.056  10.622  0.7283 -0.8795 -1.0627
 7080TIP3   OH242654   0.984   2.255   1.046 -0.0330 -0.3914  0.1733
 7080TIP3    H142655   0.979   2.320   1.115  2.5634 -0.6879  0.7452
 7080TIP3    H242656   0.917   2.190   1.069 -0.8570  0.7374  1.0450
 7081TIP3   OH242657   5.257   5.507  12.041 -0.6065 -0.6244  0.9350
 7081TIP3    H142658   5.243   5.464  12.126 -2.7393 -1.7653  0.0998
 7081TIP3    H242659   5.179   5.484  11.990 -0.6282  2.1608 -0.4751
 7082TIP3   OH242660   5.253   1.257   1.715 -0.1389  0.2935 -0.5392
 7082TIP3    H142661   5.186   1.208   1.668  0.5227 -0.6068 -0.5681
 7082TIP3    H242662   5.331   1.202   1.710  0.5073  1.1548 -0.1923
 7083TIP3   OH242663   5.899   3.517   2.142  0.3452 -0.4944  0.2203
 7083TIP3    H142664   5.818   3.514   2.193 -0.9748  3.2941 -1.2667
 7083TIP3    H242665   5.968   3.536   2.205 -0.2936 -1.4619  1.2315
 7084TIP3   OH242666   5.604   4.133  15.222  0.3465  0.5397 -0.3892
 7084TIP3    H142667   5.685   4.086  15.238 -0.3685 -0.0251  1.8981
 7084TIP3    H242668   5.632   4.222  15.201  1.5860  0.0072 -1.0578
 7085TIP3   OH242669   6.708   2.209   3.839  0.3609 -0.2137  0.2264
 7085TIP3    H142670   6.729   2.125   3.796  0.6363 -0.6208  1.1352
 7085TIP3    H242671   6.672   2.184   3.924 -0.0374  0.5895  0.3015
 7086TIP3   OH242672   2.227   2.702   1.529 -0.4383  0.6782 -0.3903
 7086TIP3    H142673   2.287   2.641   1.486 -1.1283 -1.1341  1.0330
 7086TIP3    H242674   2.140   2.671   1.504 -0.8215  2.4371 -1.3460
 7087TIP3   OH242675   1.576   4.540   1.893 -0.2229 -0.0745  0.5067
 7087TIP3    H142676   1.622   4.526   1.810  0.5709 -1.9264  1.2118
 7087TIP3    H242677   1.487   4.511   1.876  0.5081 -2.8431  0.8911
 7088TIP3   OH242678   4.114   0.475  15.848  0.1980  0.1326  0.2665
 7088TIP3    H142679   4.034   0.468  15.796  0.3957  1.2693 -0.2133
 7088TIP3    H242680   4.184   0.489  15.784  0.4456  1.5510  0.7930
 7089TIP3   OH242681   2.618   2.884  15.322 -0.1399  0.4981 -0.1580
 7089TIP3    H142682   2.654   2.953  15.267  0.4277  0.1937 -0.1734
 7089TIP3    H242683   2.694   2.836  15.354 -0.5757 -1.3036 -1.6548
 7090TIP3   OH242684   5.712   2.098   2.886  0.0317  0.1223  0.1359
 7090TIP3    H142685   5.761   2.025   2.923  1.0020  0.0770 -1.1732
 7090TIP3    H242686   5.705   2.078   2.793  1.8084  2.4764 -0.5844
 7091TIP3   OH242687   0.518   5.907  13.640 -0.3338 -0.1824  0.0256
 7091TIP3    H142688   0.456   5.869  13.702 -0.0644  0.6259  0.8102
 7091TIP3    H242689   0.518   5.846  13.566 -1.3514 -0.6799  0.4141
 7092TIP3   OH242690   5.342   5.956   0.425 -0.1366 -0.0992  0.1838
 7092TIP3    H142691   5.272   6.015   0.453  1.3141  1.2462  1.1458
 7092TIP3    H242692   5.374   5.917   0.506 -0.7388 -1.9155 -0.3897
 7093TIP3   OH242693   4.262   1.014   5.463 -0.1524 -0.0524 -0.6888
 7093TIP3    H142694   4.330   0.960   5.505 -0.1137 -0.5203 -1.3346
 7093TIP3    H242695   4.222   1.062   5.535 -0.3247 -1.1051 -0.0594
 7094TIP3   OH242696   2.613   1.660   1.173  0.2799  0.3354  0.3716
 7094TIP3    H142697   2.535   1.687   1.125  0.0539  1.0459  1.1075
 7094TIP3    H242698   2.683   1.713   1.137  0.6248 -0.9490 -0.9230
 7095TIP3   OH242699   2.750   2.529  17.025 -0.1647  0.0545 -0.2056
 7095TIP3    H142700   2.784   2.584  16.954  0.1198 -0.8773 -0.8131
 7095TIP3    H242701   2.817   2.532  17.093 -0.0924  0.3543 -0.2913
 7096TIP3   OH242702   1.307   4.812  11.018  0.1247 -0.2180  0.2776
 7096TIP3    H142703   1.365   4.834  10.945 -1.7799  0.9721 -0.9347
 7096TIP3    H242704   1.319   4.883  11.081 -1.3346  1.0337 -0.8064
 7097TIP3   OH242705   4.105   3.037  15.491 -0.4991 -0.3306  0.0723
 7097TIP3    H142706   4.035   3.056  15.428 -0.1663  2.1069  0.3230
 7097TIP3    H242707   4.071   2.966  15.545 -2.2843 -0.0127 -0.5729
 7098TIP3   OH242708   3.908   3.276   4.809 -0.0543  0.3022  0.7769
 7098TIP3    H142709   3.841   3.250   4.872  0.5916  0.7029  1.6524
 7098TIP3    H242710   3.933   3.365   4.835 -1.5169  1.4825 -1.5500
 7099TIP3   OH242711   2.923   4.361  15.441 -0.2747  0.0236 -0.1538
 7099TIP3    H142712   2.909   4.436  15.384 -1.1716  0.3403  0.4572
 7099TIP3    H242713   2.864   4.293  15.407  0.4386 -0.3719 -0.6267
 7100TIP3   OH242714   3.995   3.351   1.918  0.1463 -0.6209  0.0785
 7100TIP3    H142715   3.944   3.414   1.866 -1.0999 -0.1662  1.7764
 7100TIP3    H242716   3.932   3.284   1.942  1.1510 -1.8209 -0.5309
 7101TIP3   OH242717   3.500   6.056   3.052 -0.6169 -0.4188  0.4781
 7101TIP3    H142718   3.460   6.108   3.121 -2.1801 -1.3170  0.3144
 7101TIP3    H242719   3.476   5.966   3.073 -1.0881 -0.7226 -1.1863
 7102TIP3   OH242720   2.948   1.892   5.530  0.1448 -0.3646  0.5035
 7102TIP3    H142721   3.036   1.903   5.495 -0.1040  0.9027  0.2321
 7102TIP3    H242722   2.929   1.799   5.517  0.2695 -0.0920 -2.3114
 7103TIP3   OH242723   3.348   4.496   4.718  0.3282 -0.1041  0.0506
 7103TIP3    H142724   3.265   4.523   4.757 -1.0818 -1.1044 -2.0360
 7103TIP3    H242725   3.343   4.401   4.712  1.3311 -0.1332 -0.6862
 7104TIP3   OH242726   6.499   2.665   4.549  0.2636 -0.1986 -0.4538
 7104TIP3    H142727   6.482   2.759   4.546  0.0938 -0.2526 -1.5287
 7104TIP3    H242728   6.590   2.656   4.519  0.8251 -0.2567  1.1938
 7105TIP3   OH242729   0.553   2.982  14.092  0.0149  0.4130 -0.0723
 7105TIP3    H142730   0.505   2.910  14.050 -0.4116  0.4524  0.3398
 7105TIP3    H242731   0.608   3.018  14.022  0.5644 -0.5900 -0.1733
 7106TIP3   OH242732   0.133   1.869   2.292 -0.3194 -0.3379 -0.2030
 7106TIP3    H142733   0.151   1.880   2.198 -0.6521 -1.7517 -0.4643
 7106TIP3    H242734   0.215   1.837   2.329 -0.1102  0.4723  0.0530
 7107TIP3   OH242735   0.161   6.040   3.098  0.2183 -0.0386 -0.6671
 7107TIP3    H142736   0.208   6.031   3.181 -0.7406 -0.1289 -0.1174
 7107TIP3    H242737   0.229   6.057   3.033  0.8268  2.9999  0.5679
 7108TIP3   OH242738   3.040   2.307  14.519  0.2271 -0.4787  0.3170
 7108TIP3    H142739   3.023   2.331  14.610  0.0637  0.9736 -0.0753
 7108TIP3    H242740   3.017   2.385  14.469 -2.7429 -2.2017 -1.2993
 7109TIP3   OH242741   0.792   3.309  14.275 -0.3316 -0.5371  0.5513
 7109TIP3    H142742   0.883   3.308  14.305 -0.0336 -1.8911 -0.2801
 7109TIP3    H242743   0.744   3.352  14.346  0.9926  0.5233  0.8525
 7110TIP3   OH242744   5.923   0.398   2.563  0.2099  0.3631 -0.1280
 7110TIP3    H142745   5.885   0.311   2.573 -0.7104  0.8033  0.2830
 7110TIP3    H242746   5.977   0.410   2.641  0.7344 -0.0179 -0.4196
 7111TIP3   OH242747   1.234   5.529  16.189 -0.1549  0.1762 -0.0224
 7111TIP3    H142748   1.190   5.498  16.268 -2.4502  1.8576 -0.5298
 7111TIP3    H242749   1.172   5.508  16.118  0.7939  0.8026 -1.0691
 7112TIP3   OH242750   1.195   3.373   1.871 -0.1587  0.0985  0.2248
 7112TIP3    H142751   1.206   3.406   1.781  0.3417 -0.1394  0.1966
 7112TIP3    H242752   1.282   3.383   1.910  0.0690 -1.4205  0.1418
 7113TIP3   OH242753   3.352   0.385   6.049  0.1943 -0.5753  0.1746
 7113TIP3    H142754   3.342   0.459   6.109  1.0122 -1.2360  1.1612
 7113TIP3    H242755   3.300   0.409   5.973  1.7587  1.7762 -0.2632
 7114TIP3   OH242756   4.478   4.431   0.310  0.0177  0.0966  0.2789
 7114TIP3    H142757   4.564   4.465   0.287 -1.4956  3.5898 -0.7248
 7114TIP3    H242758   4.441   4.496   0.369 -1.9306 -1.3588  0.7665
 7115TIP3   OH242759   0.532   3.516  13.830  0.3403  0.1488 -0.3596
 7115TIP3    H142760   0.569   3.457  13.896  1.3729  1.8017  0.6036
 7115TIP3    H242761   0.606   3.569  13.801 -0.5529  0.9554 -1.2332
 7116TIP3   OH242762   0.273   5.614  14.026 -0.1627 -0.4446  0.5953
 7116TIP3    H142763   0.194   5.652  14.066  0.9139  0.3049  2.0816
 7116TIP3    H242764   0.248   5.524  14.006 -1.5809 -0.0599  0.5060
 7117TIP3   OH242765   6.417   1.329  14.263  0.9571 -0.0260 -0.4368
 7117TIP3    H142766   6.384   1.239  14.262  0.5623  0.0919  0.8080
 7117TIP3    H242767   6.512   1.319  14.260  0.9526 -0.5274  0.5829
 7118TIP3   OH242768   3.426   5.279  15.404 -0.0282  0.3830 -0.3754
 7118TIP3    H142769   3.461   5.368  15.404  0.8597  0.0630  1.3022
 7118TIP3    H242770   3.375   5.273  15.484  1.4909 -1.1816  0.5226
 7119TIP3   OH242771   2.637   3.947  14.615 -0.4658 -0.4194 -0.1727
 7119TIP3    H142772   2.544   3.950  14.593 -0.1684 -1.7464 -1.8668
 7119TIP3    H242773   2.664   4.039  14.620 -1.5235 -0.0148 -1.3238
 7120TIP3   OH242774   6.614   3.837  16.863  0.1032 -0.2547 -0.3707
 7120TIP3    H142775   6.569   3.814  16.783 -0.0434  0.0140 -0.3673
 7120TIP3    H242776   6.592   3.767  16.925 -0.6808  0.0995 -0.2286
 7121TIP3   OH242777   1.901   3.306   0.267  0.4841  0.1456 -0.0245
 7121TIP3    H142778   1.867   3.276   0.182 -1.9286  1.4793  0.3592
 7121TIP3    H242779   1.992   3.329   0.250  0.5345 -1.1996 -1.8391
 7122TIP3   OH242780   0.486   4.254   5.635 -0.6397 -0.1440  1.0689
 7122TIP3    H142781   0.391   4.245   5.644 -0.6926 -0.3994  0.3175
 7122TIP3    H242782   0.497   4.318   5.564 -0.2591 -1.8582 -0.4762
 7123TIP3   OH242783   5.076   0.064  16.644 -0.0548  0.4389  0.1975
 7123TIP3    H142784   5.153   0.101  16.687  0.1770  0.6513 -0.3959
 7123TIP3    H242785   5.097   0.065  16.551 -1.4784  2.2163 -0.1763
 7124TIP3   OH242786   3.906   5.998   1.784  0.4428  0.3800  0.1070
 7124TIP3    H142787   3.924   6.003   1.878  0.5820 -2.2809  0.2877
 7124TIP3    H242788   3.984   5.958   1.746  0.0831  0.7211 -1.0247
 7125TIP3   OH242789   5.734   1.940   4.058 -0.2919  0.2918  0.6395
 7125TIP3    H142790   5.738   1.933   3.963  1.3985  0.3338  0.6685
 7125TIP3    H242791   5.774   2.025   4.077  0.9563 -0.4413  1.4408
 7126TIP3   OH242792   6.575   3.187  16.413  0.1923  0.2788 -0.4256
 7126TIP3    H142793   6.665   3.217  16.422  0.0996  0.3882  0.2689
 7126TIP3    H242794   6.577   3.096  16.441 -0.1295  0.6536  0.8951
 7127TIP3   OH242795   5.329   5.137  15.555 -0.3052 -0.0525 -0.2624
 7127TIP3    H142796   5.267   5.148  15.483  1.1972  1.1123 -1.4752
 7127TIP3    H242797   5.380   5.219  15.555  0.6412 -0.5970  1.2521
 7128TIP3   OH242798   4.199   5.087   0.340  0.3893  0.0133 -1.2301
 7128TIP3    H142799   4.113   5.113   0.306 -1.3930  0.6359  3.0456
 7128TIP3    H242800   4.228   5.162   0.392  0.9303 -1.9913  1.6297
 7129TIP3   OH242801   1.356   4.737  14.567  0.7062  0.1057 -0.0392
 7129TIP3    H142802   1.262   4.723  14.577  0.8274 -0.5330  0.3030
 7129TIP3    H242803   1.395   4.682  14.635  1.3883 -0.9150 -1.2121
 7130TIP3   OH242804   4.069   3.343  11.207  0.8344  0.0462 -0.5216
 7130TIP3    H142805   4.032   3.287  11.138  0.9887 -2.3032  1.1706
 7130TIP3    H242806   3.997   3.402  11.231  0.6096  0.5193 -2.2569
 7131TIP3   OH242807   6.225   6.107   5.898  0.2499 -0.8033  0.0538
 7131TIP3    H142808   6.278   6.168   5.846  0.0629 -2.3476 -2.0767
 7131TIP3    H242809   6.213   6.031   5.841 -0.5995 -2.3212  2.1296
 7132TIP3   OH242810   1.426   0.054  14.302  0.1470  0.3172 -0.0735
 7132TIP3    H142811   1.394  -0.031  14.270  0.5716  0.0014  0.3408
 7132TIP3    H242812   1.419   0.112  14.226 -3.2897  0.8081  0.4508
 7133TIP3   OH242813   3.226   1.044   2.392  0.0850  0.2041 -0.0263
 7133TIP3    H142814   3.163   0.980   2.425  0.3130 -1.0700 -1.8971
 7133TIP3    H242815   3.240   1.105   2.465 -0.3289 -1.7305  1.7423
 7134TIP3   OH242816   6.579   3.753  11.862  0.1957  0.3352 -0.3164
 7134TIP3    H142817   6.561   3.660  11.875 -0.8731  0.4813 -0.6523
 7134TIP3    H242818   6.568   3.766  11.768  0.5435  0.7645 -0.3002
 7135TIP3   OH242819   1.923   2.266   3.672 -0.1003  0.4996 -0.2294
 7135TIP3    H142820   1.964   2.217   3.601 -0.0191  0.3233 -0.0609
 7135TIP3    H242821   1.944   2.217   3.751 -0.5809  0.4417 -0.1325
 7136TIP3   OH242822   3.124   2.813  16.305  0.4052  0.1180  0.1130
 7136TIP3    H142823   3.074   2.890  16.280  0.9914  0.8015  0.9668
 7136TIP3    H242824   3.087   2.742  16.254 -1.5012  0.5842  0.7714
 7137TIP3   OH242825   3.419   5.057  11.820 -0.3349  0.0050  0.1919
 7137TIP3    H142826   3.443   5.124  11.884  1.9485 -0.9886  0.4656
 7137TIP3    H242827   3.451   5.090  11.737  2.7771 -1.5618  0.6381
 7138TIP3   OH242828   2.703   1.334  11.420  0.6172  0.2980 -0.2335
 7138TIP3    H142829   2.608   1.340  11.415  0.4215 -0.4917  1.7866
 7138TIP3    H242830   2.721   1.247  11.456  2.1533  0.1479 -1.2286
 7139TIP3   OH242831   1.318   2.496   5.718  0.2888  0.3257  0.1854
 7139TIP3    H142832   1.406   2.474   5.749  0.0543  0.8038  1.2500
 7139TIP3    H242833   1.282   2.412   5.688  0.4997 -0.2196  1.3623
 7140TIP3   OH242834   1.602   2.101  12.224  0.2449 -0.1940 -0.1159
 7140TIP3    H142835   1.551   2.107  12.305 -1.7463  0.8238 -1.3595
 7140TIP3    H242836   1.659   2.025  12.236 -0.1437 -0.1883  2.1331
 7141TIP3   OH242837   6.289   4.921  15.963  0.4658  0.3476  0.2738
 7141TIP3    H142838   6.266   4.830  15.984 -0.5829  0.9321  1.8244
 7141TIP3    H242839   6.385   4.922  15.966  0.5360 -0.9239 -0.8076
 7142TIP3   OH242840   1.583   1.352  12.900 -0.2314  0.1415  0.5220
 7142TIP3    H142841   1.635   1.287  12.852 -0.5145 -0.5881  1.1761
 7142TIP3    H242842   1.540   1.403  12.832  1.2974  0.7569 -0.0458
 7143TIP3   OH242843   4.985   0.573   0.640 -0.5539 -0.1012  0.0655
 7143TIP3    H142844   4.982   0.668   0.635  0.2335 -0.1021 -0.6988
 7143TIP3    H242845   5.075   0.552   0.665 -0.7240 -0.6399  0.2477
 7144TIP3   OH242846   1.116   5.921   2.159 -0.4875 -0.8180  0.2724
 7144TIP3    H142847   1.172   5.963   2.093 -1.6183 -1.7786 -1.3995
 7144TIP3    H242848   1.169   5.919   2.238  1.1141  0.0075 -0.7205
 7145TIP3   OH242849   5.809   5.516   4.012  0.3594 -0.3289  0.5751
 7145TIP3    H142850   5.867   5.451   4.051  1.2486 -0.6462 -1.1941
 7145TIP3    H242851   5.761   5.469   3.944  0.9788  0.8162 -0.7019
 7146TIP3   OH242852   2.576   2.060  14.923 -0.2586  0.7114  0.8198
 7146TIP3    H142853   2.491   2.045  14.881  0.7864  0.5068 -1.4032
 7146TIP3    H242854   2.563   2.137  14.979 -1.8443  0.8092  0.3517
 7147TIP3   OH242855   4.266   0.841   3.908  0.3394  0.0406  0.3930
 7147TIP3    H142856   4.240   0.919   3.956  1.2399 -0.0064  0.9776
 7147TIP3    H242857   4.327   0.796   3.966  1.0607 -0.2747 -0.5781
 7148TIP3   OH242858   2.563   1.113   2.746 -0.2627 -0.1668  0.4075
 7148TIP3    H142859   2.554   1.193   2.797  2.1951  0.0904  0.5450
 7148TIP3    H242860   2.497   1.122   2.677 -1.0013  1.2879  1.2454
 7149TIP3   OH242861   3.318   0.437  14.551  0.0209  0.2068  0.5057
 7149TIP3    H142862   3.405   0.430  14.591 -0.2231  2.0685  1.4878
 7149TIP3    H242863   3.288   0.525  14.574 -3.0398 -1.1018  2.1226
 7150TIP3   OH242864   1.057   2.744   3.122 -0.2382 -0.2186 -0.2473
 7150TIP3    H142865   1.144   2.782   3.107 -0.0955 -0.9082 -1.2549
 7150TIP3    H242866   1.060   2.713   3.212 -0.2557  1.8449  0.5208
 7151TIP3   OH242867   5.380   0.428  16.826  0.3508  0.0254  0.0729
 7151TIP3    H142868   5.447   0.439  16.759  1.0222  0.7077  0.8357
 7151TIP3    H242869   5.297   0.433  16.778  0.8350 -0.8178 -0.8753
 7152TIP3   OH242870   1.959   5.702   3.107  0.7015  0.0833 -0.1082
 7152TIP3    H142871   1.902   5.676   3.180  1.4946 -0.0755  0.4618
 7152TIP3    H242872   1.898   5.723   3.036 -0.1113  0.9908  0.8339
 7153TIP3   OH242873   0.182   0.410   5.866  0.2331  0.5421 -0.2729
 7153TIP3    H142874   0.183   0.421   5.961 -0.1874  2.2702 -0.4265
 7153TIP3    H242875   0.231   0.485   5.833  1.7631 -0.8709 -1.4017
 7154TIP3   OH242876   3.622   5.422   0.078  0.2442  0.3372 -0.0326
 7154TIP3    H142877   3.552   5.474   0.038 -0.5247 -0.1860  0.5977
 7154TIP3    H242878   3.640   5.352   0.015 -2.1027 -1.4629  1.1395
 7155TIP3   OH242879   2.349   2.186   2.946 -0.3902 -0.1177 -0.3100
 7155TIP3    H142880   2.298   2.222   3.018 -1.0092  2.4919 -1.9500
 7155TIP3    H242881   2.291   2.121   2.906 -1.2237  0.5821 -0.2625
 7156TIP3   OH242882   4.393   1.013  13.393  0.2242  0.1404  0.0402
 7156TIP3    H142883   4.306   0.974  13.403 -0.2056  0.9989 -0.2187
 7156TIP3    H242884   4.428   0.973  13.313  0.4298 -0.8491  0.6165
 7157TIP3   OH242885   5.931   1.555   5.328  0.4276 -0.3614  0.3158
 7157TIP3    H142886   5.964   1.501   5.257 -1.9573  0.0450 -1.2393
 7157TIP3    H242887   5.939   1.501   5.406  3.7919 -0.5639 -0.0363
 7158TIP3   OH242888   6.716   4.722   1.820 -0.1547 -0.2508  0.5351
 7158TIP3    H142889   6.631   4.680   1.829 -1.2008  1.5675 -0.1752
 7158TIP3    H242890   6.740   4.709   1.728 -1.3945  2.1226 -0.2276
 7159TIP3   OH242891   5.826   6.359   3.780 -0.1480  0.1542 -0.1280
 7159TIP3    H142892   5.886   6.432   3.793 -1.6684  1.7794 -1.6215
 7159TIP3    H242893   5.878   6.281   3.799  2.9010  1.3594 -2.6060
 7160TIP3   OH242894   3.673   3.930   1.931  0.2866  1.0886 -0.3054
 7160TIP3    H142895   3.757   3.907   1.970 -0.3245  1.3960  1.2592
 7160TIP3    H242896   3.630   3.986   1.996 -1.1868  0.8235 -0.9922
 7161TIP3   OH242897   3.422   2.691  13.348 -0.0446  0.4908 -0.1931
 7161TIP3    H142898   3.417   2.603  13.387  1.4218 -1.1268 -3.3027
 7161TIP3    H242899   3.396   2.679  13.257 -1.9823  3.7988 -0.2531
 7162TIP3   OH242900   1.294   0.412   2.278 -0.0509 -0.0277  0.2872
 7162TIP3    H142901   1.321   0.350   2.210  1.7578 -1.3128  2.0550
 7162TIP3    H242902   1.273   0.492   2.230  0.7784 -0.9750 -1.8148
 7163TIP3   OH242903   4.761   3.775  14.306  0.1373  0.3048 -0.1075
 7163TIP3    H142904   4.806   3.791  14.223 -1.4064  1.3344 -0.7903
 7163TIP3    H242905   4.797   3.840  14.366  1.8303 -0.9510  0.3000
 7164TIP3   OH242906   0.003   5.068  11.438 -0.1896  0.0335  0.1213
 7164TIP3    H142907  -0.081   5.023  11.445 -0.8274  1.4417  2.7821
 7164TIP3    H242908  -0.018   5.160  11.452  1.5734  0.7346 -1.3615
 7165TIP3   OH242909   1.700   2.466  13.371 -0.5017 -0.2520 -0.0679
 7165TIP3    H142910   1.771   2.416  13.411 -0.1780  1.8064  2.1561
 7165TIP3    H242911   1.621   2.439  13.418 -0.9462 -1.2402 -1.3270
 7166TIP3   OH242912   4.938   2.524  13.298 -0.0254 -0.1867 -0.5145
 7166TIP3    H142913   4.884   2.584  13.350  0.1697 -2.1515  2.1479
 7166TIP3    H242914   4.877   2.488  13.234 -1.6171 -1.2025  1.4417
 7167TIP3   OH242915   1.305   3.556  11.365 -0.0837  0.0317 -0.6678
 7167TIP3    H142916   1.226   3.544  11.419  1.4082 -0.9179  1.4603
 7167TIP3    H242917   1.336   3.643  11.389  1.4520 -0.9914  1.3763
 7168TIP3   OH242918   0.926   2.468   5.001 -0.1242 -0.3428  0.0860
 7168TIP3    H142919   0.868   2.476   5.076 -0.7128 -0.9548 -0.2958
 7168TIP3    H242920   0.980   2.547   5.004  1.1310 -1.1967  2.1953
 7169TIP3   OH242921   5.710   4.147  11.546 -0.0555  0.1856  0.4610
 7169TIP3    H142922   5.788   4.191  11.579 -0.6225  1.8549 -0.3239
 7169TIP3    H242923   5.676   4.205  11.478 -1.1307 -1.2495 -0.2928
 7170TIP3   OH242924   0.635   1.958   0.614 -0.9523 -0.7404 -0.0678
 7170TIP3    H142925   0.550   1.995   0.639 -0.8553  0.0798 -0.8919
 7170TIP3    H242926   0.625   1.933   0.522 -0.4806 -1.1915 -0.0051
 7171TIP3   OH242927   4.665   0.070  12.010  0.4380 -0.3738 -0.3382
 7171TIP3    H142928   4.608   0.145  12.023  1.6969  0.5360  0.1508
 7171TIP3    H242929   4.622  -0.001  12.058  1.3303  1.1315  3.0035
 7172TIP3   OH242930   1.191   6.785   1.181 -0.3318  0.2595 -0.5667
 7172TIP3    H142931   1.274   6.831   1.170  0.4607 -0.7572  0.8317
 7172TIP3    H242932   1.140   6.841   1.239 -0.8661  1.1495 -1.8602
 7173TIP3   OH242933   4.032   6.012   5.694  0.3544 -0.0552  0.1937
 7173TIP3    H142934   4.087   5.982   5.766  0.8794 -1.0596 -0.5969
 7173TIP3    H242935   4.026   5.936   5.636 -1.7199  0.0929  0.1650
 7174TIP3   OH242936   5.998   5.975   1.824  0.0309 -0.2660 -0.1416
 7174TIP3    H142937   6.072   6.036   1.821 -1.2918  1.5723  1.7373
 7174TIP3    H242938   5.937   6.007   1.758 -0.7496  0.6368  0.9764
 7175TIP3   OH242939   0.710   0.461  15.944 -0.0702 -0.3355  0.4506
 7175TIP3    H142940   0.635   0.492  15.893  0.4473 -1.4951 -1.0812
 7175TIP3    H242941   0.757   0.403  15.884  1.1636 -0.8992  1.9181
 7176TIP3   OH242942   3.052   5.496  10.507  0.2522  0.5225 -0.2073
 7176TIP3    H142943   3.078   5.419  10.456  0.3694  0.7906 -0.5581
 7176TIP3    H242944   2.970   5.525  10.466  0.0872  0.4461  0.0715
 7177TIP3   OH242945   3.796   0.835   1.532 -0.2691  0.3713  0.0162
 7177TIP3    H142946   3.712   0.825   1.576 -1.6472  0.4861 -2.3988
 7177TIP3    H242947   3.822   0.745   1.511  0.1250  0.3538  0.5424
 7178TIP3   OH242948   1.592   2.027   1.549 -0.0888  0.1294  0.4331
 7178TIP3    H142949   1.617   1.960   1.484 -0.7233  0.0123  0.3008
 7178TIP3    H242950   1.557   1.977   1.622 -0.2127  0.3014  0.4915
 7179TIP3   OH242951   6.727   6.038  16.430 -0.1431 -0.3403  0.9113
 7179TIP3    H142952   6.676   6.112  16.396  1.4151  0.6378  0.6295
 7179TIP3    H242953   6.667   5.963  16.424 -1.3906  0.6743  0.1877
 7180TIP3   OH242954   2.392   1.947   0.580  0.0427  0.0215 -0.1541
 7180TIP3    H142955   2.362   2.020   0.526  0.8295  0.3457 -0.1572
 7180TIP3    H242956   2.436   1.988   0.655  1.1251 -0.4360 -0.5202
 7181TIP3   OH242957   4.425   3.252  14.864 -0.1098  0.2700 -0.0677
 7181TIP3    H142958   4.421   3.192  14.938 -0.4794  0.1928 -0.1488
 7181TIP3    H242959   4.372   3.210  14.796 -0.0143  0.4799 -0.2734
 7182TIP3   OH242960   1.018   3.950   0.364 -0.0678 -0.3683 -0.0094
 7182TIP3    H142961   0.968   3.908   0.294  1.1022 -0.1689 -1.0101
 7182TIP3    H242962   0.957   4.013   0.403 -0.6250 -0.1867 -1.1317
 7183TIP3   OH242963   4.585   4.718  14.145 -0.1520 -0.1110  0.5492
 7183TIP3    H142964   4.491   4.737  14.153 -0.2110 -0.1663  0.0178
 7183TIP3    H242965   4.596   4.689  14.055  0.1658 -1.2537  0.9305
 7184TIP3   OH242966   6.157   0.765  15.945 -0.5349  0.8730  0.6971
 7184TIP3    H142967   6.144   0.680  15.904 -0.2969  1.0288  0.2794
 7184TIP3    H242968   6.248   0.763  15.974 -0.9393  0.4539  1.9780
 7185TIP3   OH242969   0.322   1.732   5.880 -0.2976  0.0992 -0.0035
 7185TIP3    H142970   0.350   1.823   5.893  0.5042 -0.2753  1.0739
 7185TIP3    H242971   0.279   1.709   5.962  0.5076 -0.8361  0.1757
 7186TIP3   OH242972   2.218   1.257  11.704  0.0012  0.4739  0.4159
 7186TIP3    H142973   2.300   1.277  11.750  1.9800 -1.4175 -1.9774
 7186TIP3    H242974   2.193   1.340  11.663  0.7871  1.0660  1.0888
 7187TIP3   OH242975   5.409   5.009  14.834  0.3006  0.3315  0.4771
 7187TIP3    H142976   5.417   4.949  14.908 -0.2117  0.1664  0.3977
 7187TIP3    H242977   5.444   4.960  14.760 -1.6475 -0.5284  0.0584
 7188TIP3   OH242978   5.588   0.885   4.488  0.0061  0.5382 -0.2087
 7188TIP3    H142979   5.585   0.790   4.497  1.1354  0.2628 -2.1493
 7188TIP3    H242980   5.662   0.913   4.541  0.7863  0.0873 -1.0266
 7189TIP3   OH242981   4.687   2.650  14.214 -0.2590  0.8930  0.0815
 7189TIP3    H142982   4.687   2.657  14.118 -2.5205  0.2791 -0.0268
 7189TIP3    H242983   4.727   2.565  14.231 -1.4345  0.2007 -0.4619
 7190TIP3   OH242984   2.318   3.294  15.199 -0.2621  0.1194  0.5140
 7190TIP3    H142985   2.333   3.245  15.118  0.6005  0.8405  0.2154
 7190TIP3    H242986   2.381   3.366  15.196  0.3626 -0.3075  2.2324
 7191TIP3   OH242987   5.833   3.883  14.544 -0.3927  0.1027  0.3400
 7191TIP3    H142988   5.877   3.922  14.620  0.4823  0.6839 -0.4385
 7191TIP3    H242989   5.889   3.905  14.470 -1.7607  0.4537 -0.6369
 7192TIP3   OH242990   1.728   5.514  15.497  0.4936 -0.1501  0.0668
 7192TIP3    H142991   1.755   5.600  15.530 -0.2773 -0.4007  1.4596
 7192TIP3    H242992   1.636   5.508  15.521  0.9255 -2.0142  1.5264
 7193TIP3   OH242993   1.602   2.190  16.297  0.4355 -0.2240  0.6322
 7193TIP3    H142994   1.697   2.183  16.308  0.9883 -2.6439 -3.4694
 7193TIP3    H242995   1.591   2.262  16.235 -0.3136 -0.6000  0.3216
 7194TIP3   OH242996   2.503   2.030  15.505  0.0471  0.7140  0.0277
 7194TIP3    H142997   2.598   2.029  15.499  0.0024  1.7942 -1.3441
 7194TIP3    H242998   2.484   2.072  15.589  0.7847  1.6470 -0.2606
 7195TIP3   OH242999   6.138   6.616  12.155  0.2184 -0.1295 -0.3975
 7195TIP3    H143000   6.123   6.708  12.176  0.0190 -0.3186  0.3450
 7195TIP3    H243001   6.164   6.615  12.063  0.5292  0.7010 -0.3233
 7196TIP3   OH243002   2.348   3.742  14.827  0.4663 -0.1459  0.4568
 7196TIP3    H143003   2.398   3.685  14.885 -0.5605 -1.3138  0.2474
 7196TIP3    H243004   2.302   3.802  14.885  2.2853  1.1226  0.6363
 7197TIP3   OH243005   2.248   2.313   1.147  0.8803  0.2598  0.2958
 7197TIP3    H143006   2.277   2.376   1.080  1.7229  0.5665  0.9266
 7197TIP3    H243007   2.329   2.282   1.187  0.4490 -0.9045  0.2990
 7198TIP3   OH243008   3.241   1.822  11.757  0.5188  0.1907 -0.3118
 7198TIP3    H143009   3.150   1.809  11.783  0.8060  0.4113  0.9007
 7198TIP3    H243010   3.292   1.794  11.834  1.5441 -1.2426 -1.4515
 7199TIP3   OH243011   1.993   5.640   4.192  0.3263  0.5212  0.2397
 7199TIP3    H143012   2.062   5.682   4.141 -0.6950  0.4022 -1.2960
 7199TIP3    H243013   1.982   5.555   4.151  0.8169 -0.3863  1.9154
 7200TIP3   OH243014   2.264   2.808  16.665 -0.5203  0.0770  0.4227
 7200TIP3    H143015   2.183   2.841  16.704 -0.8871 -0.5387  0.1986
 7200TIP3    H243016   2.320   2.785  16.740 -1.0556 -0.7003  0.5988
 7201TIP3   OH243017   2.604   4.220   4.901  0.3142 -0.1843 -0.3389
 7201TIP3    H143018   2.658   4.219   4.822 -1.9136  0.0927 -1.9633
 7201TIP3    H243019   2.591   4.313   4.920 -2.3233 -0.1364 -2.0249
 7202TIP3   OH243020   4.993   5.127  11.454  0.2524 -0.3613  0.1712
 7202TIP3    H143021   5.022   5.074  11.528  1.7176 -0.3986 -0.3802
 7202TIP3    H243022   4.986   5.065  11.381  0.3017 -0.0870 -0.0717
 7203TIP3   OH243023   2.740   4.990  16.278  0.3087  0.2456 -0.1233
 7203TIP3    H143024   2.778   4.993  16.190  1.1866 -4.3079 -0.1314
 7203TIP3    H243025   2.645   4.989  16.263  0.3207  2.3652 -0.7045
 7204TIP3   OH243026   1.558   2.713  16.874 -0.2994  0.1633  0.3138
 7204TIP3    H143027   1.649   2.742  16.866  0.1933 -1.1159  1.0372
 7204TIP3    H243028   1.556   2.663  16.955 -2.0361  1.4844  1.1289
 7205TIP3   OH243029   1.395   6.326   0.662 -0.1604  0.3108  0.1671
 7205TIP3    H143030   1.477   6.326   0.711 -0.2810  1.8016  0.4083
 7205TIP3    H243031   1.332   6.284   0.721  0.5350 -1.4304 -0.2714
 7206TIP3   OH243032   5.107   1.988   3.274 -0.1882  0.1290  0.8908
 7206TIP3    H143033   5.038   1.921   3.274 -1.8253  1.7206  0.4488
 7206TIP3    H243034   5.188   1.939   3.272 -1.3091 -1.9065 -2.5047
 7207TIP3   OH243035   4.456   5.696   4.233 -0.3843 -0.2057  0.3206
 7207TIP3    H143036   4.461   5.665   4.143 -1.7104 -1.1085  0.5312
 7207TIP3    H243037   4.518   5.768   4.237 -2.0535  1.5154 -1.9866
 7208TIP3   OH243038   5.065   3.713   5.078  1.0662  0.1841 -0.2861
 7208TIP3    H143039   5.091   3.643   5.137  1.3849 -0.0984 -0.7558
 7208TIP3    H243040   5.020   3.669   5.006  0.7573  0.5149 -0.3013
 7209TIP3   OH243041   1.555   5.676  15.938  0.0129  0.6987 -0.3010
 7209TIP3    H143042   1.516   5.616  16.002  0.7231 -0.0314 -0.5451
 7209TIP3    H243043   1.649   5.661  15.945  0.1370  1.0577 -1.0914
 7210TIP3   OH243044   1.245   1.787  16.252 -0.7203  0.3658  0.3376
 7210TIP3    H143045   1.155   1.818  16.254 -0.5017  0.9748  1.0071
 7210TIP3    H243046   1.257   1.741  16.335 -0.7116 -0.5967 -0.1791
 7211TIP3   OH243047   4.526   6.145  12.029 -0.2639  0.0231  0.5156
 7211TIP3    H143048   4.578   6.212  11.984 -0.9077 -0.0628 -0.3910
 7211TIP3    H243049   4.436   6.175  12.022 -0.4848 -0.5429  0.8040
 7212TIP3   OH243050   1.278   2.959   3.789  0.5159  0.2938 -0.0031
 7212TIP3    H143051   1.235   3.012   3.855  0.8701  0.6900 -0.0864
 7212TIP3    H243052   1.315   3.022   3.727  2.1022  0.0263  0.6178
 7213TIP3   OH243053   3.816   5.896   0.894  0.5121  0.1604 -0.2386
 7213TIP3    H143054   3.838   5.816   0.846 -0.5176  1.1104 -2.3914
 7213TIP3    H243055   3.724   5.884   0.920  1.1908 -0.5674  2.0900
 7214TIP3   OH243056   6.523   4.410  11.358 -0.0134 -0.7114  0.6895
 7214TIP3    H143057   6.618   4.416  11.367 -0.0254  1.1570  0.0149
 7214TIP3    H243058   6.499   4.332  11.408  1.9181 -1.5279  0.4413
 7215TIP3   OH243059   1.596   5.826   1.672  0.0361 -0.0041 -0.5869
 7215TIP3    H143060   1.649   5.831   1.593  1.2198  0.9537  0.2243
 7215TIP3    H243061   1.542   5.905   1.670  0.9246  0.6440  0.1143
 7216TIP3   OH243062   4.354   1.949   2.183 -0.5601  0.4703  0.3409
 7216TIP3    H143063   4.296   1.907   2.120 -1.1314  1.1557  0.3941
 7216TIP3    H243064   4.438   1.906   2.171 -0.8131  0.1851 -0.4734
 7217TIP3   OH243065   4.038   2.190  15.829 -0.0758 -0.3463  0.2293
 7217TIP3    H143066   3.979   2.244  15.882 -1.0913 -0.2231 -0.9868
 7217TIP3    H243067   4.023   2.219  15.740  1.9443 -0.2245 -0.1182
 7218TIP3   OH243068   4.792   3.205  11.427  0.1873  0.3380  0.1164
 7218TIP3    H143069   4.709   3.236  11.391  0.4645  0.5097 -0.3912
 7218TIP3    H243070   4.767   3.134  11.487 -0.3886  1.0164  0.6914
 7219TIP3   OH243071   1.614   3.248   0.432 -0.1522  0.3881 -0.5135
 7219TIP3    H143072   1.693   3.276   0.385 -0.4669 -0.1420 -1.3699
 7219TIP3    H243073   1.557   3.213   0.364 -0.1297 -1.5640  0.4048
 7220TIP3   OH243074   1.005   5.132  15.324 -0.1433 -0.1298  0.4181
 7220TIP3    H143075   0.938   5.200  15.331 -0.4258 -0.1416 -1.5007
 7220TIP3    H243076   0.962   5.052  15.352 -0.6085  0.0548  0.2425
 7221TIP3   OH243077   1.609   1.697   4.699  0.0387 -0.0956 -0.2102
 7221TIP3    H143078   1.589   1.617   4.748  2.4754  0.0303  1.1725
 7221TIP3    H243079   1.547   1.697   4.626 -1.1658 -2.3288  0.7112
 7222TIP3   OH243080   6.567   2.288  14.225 -0.0169  0.2717  0.4829
 7222TIP3    H143081   6.593   2.199  14.201 -0.9502  0.4591 -1.4495
 7222TIP3    H243082   6.611   2.304  14.308  2.7388 -0.8366 -0.6306
 7223TIP3   OH243083   5.596   1.896  11.010 -0.6747 -0.1839  0.5548
 7223TIP3    H143084   5.610   1.949  11.088  0.7438 -1.2058  1.0416
 7223TIP3    H243085   5.681   1.896  10.965 -0.0761 -3.3284  1.4423
 7224TIP3   OH243086   1.026   0.481   4.924  0.1897  0.1923  0.1804
 7224TIP3    H143087   1.052   0.572   4.938  0.0194  0.1077  1.0504
 7224TIP3    H243088   0.940   0.486   4.881  1.1500  0.4589 -1.8512
 7225TIP3   OH243089   1.474   5.235  16.298  0.1995 -0.5190  0.4357
 7225TIP3    H143090   1.533   5.282  16.357 -0.1697 -0.8070  1.0498
 7225TIP3    H243091   1.440   5.303  16.240  0.0590 -0.1037  0.9880
 7226TIP3   OH243092   0.959   2.098  15.640  0.4626 -0.5443 -0.2709
 7226TIP3    H143093   0.895   2.051  15.587 -0.8962  2.1036 -1.1523
 7226TIP3    H243094   1.028   2.122  15.578 -0.6408  1.6799 -0.7550
 7227TIP3   OH243095   4.218   2.521   0.716 -0.1339 -0.5678 -0.3595
 7227TIP3    H143096   4.281   2.471   0.664  1.4236  0.7885  0.1228
 7227TIP3    H243097   4.192   2.593   0.658 -0.3189 -0.4588 -0.1429
 7228TIP3   OH243098   0.429   6.535  11.350  0.4505  0.1367  0.2104
 7228TIP3    H143099   0.460   6.492  11.430  0.2273 -1.3394 -0.4732
 7228TIP3    H243100   0.439   6.628  11.369 -1.1163 -0.0799  2.5906
 7229TIP3   OH243101   1.834   4.967  14.938 -0.0421  0.9548 -0.0187
 7229TIP3    H143102   1.760   4.936  14.885  0.7135  2.2742 -1.9673
 7229TIP3    H243103   1.802   5.048  14.978  0.2481  1.3937 -0.6628
 7230TIP3   OH243104   6.157   5.870  15.168 -0.0190  0.5341  0.1564
 7230TIP3    H143105   6.122   5.789  15.130  0.4550 -0.1491  1.1308
 7230TIP3    H243106   6.252   5.865  15.152  0.1649  0.3144  1.2604
 7231TIP3   OH243107   4.596   5.655   5.866 -0.1152 -0.0680 -0.1874
 7231TIP3    H143108   4.547   5.603   5.930  0.1532 -0.5548 -0.3715
 7231TIP3    H243109   4.651   5.591   5.820 -1.1596  0.0843 -1.7261
 7232TIP3   OH243110   2.092   4.123  15.922  0.4740  0.3842 -0.6147
 7232TIP3    H143111   2.128   4.162  16.002 -0.7021  3.0068 -1.2380
 7232TIP3    H243112   2.061   4.198  15.871 -1.6383 -1.4051 -2.1573
 7233TIP3   OH243113   1.453   2.689   5.909  0.6030  0.0448 -0.1832
 7233TIP3    H143114   1.447   2.784   5.911  0.0246  0.0001  0.5478
 7233TIP3    H243115   1.425   2.665   5.821  0.4532  0.5274 -0.2667
 7234TIP3   OH243116   2.457   3.469   3.433 -0.4293  0.3161 -0.4873
 7234TIP3    H143117   2.478   3.559   3.411 -0.0925  0.2212 -0.5620
 7234TIP3    H243118   2.522   3.417   3.385 -1.1463 -0.0088 -1.1221
 7235TIP3   OH243119   3.571   1.260   1.767  0.0372 -0.2749  0.0238
 7235TIP3    H143120   3.501   1.224   1.712 -1.9632  1.9567  0.9016
 7235TIP3    H243121   3.555   1.222   1.853 -1.4579  1.7077  0.7083
 7236TIP3   OH243122   2.582   4.631  12.944 -0.4574 -0.1835 -0.1417
 7236TIP3    H143123   2.605   4.569  13.013  0.5561  2.1778  1.7473
 7236TIP3    H243124   2.487   4.629  12.941 -0.4882 -0.8147  0.8387
 7237TIP3   OH243125   1.539   6.397   4.748 -0.0249  0.3364  0.0506
 7237TIP3    H143126   1.505   6.320   4.793 -0.9723  0.3510 -0.6112
 7237TIP3    H243127   1.492   6.471   4.787 -0.0428  0.4521 -0.1840
 7238TIP3   OH243128   0.778   2.834   5.589 -0.2777  0.0310  0.0205
 7238TIP3    H143129   0.768   2.742   5.614  1.0376  0.2868  1.6034
 7238TIP3    H243130   0.853   2.834   5.530  1.3530  0.3644  2.0036
 7239TIP3   OH243131   0.981   3.086   1.144 -0.3898  0.0820 -0.6471
 7239TIP3    H143132   0.954   3.077   1.052  0.2758  2.5627 -1.1618
 7239TIP3    H243133   1.074   3.108   1.139 -0.2235 -0.2587  0.6798
 7240TIP3   OH243134   6.265   3.055  15.599 -0.2483 -0.1976  0.0231
 7240TIP3    H143135   6.289   3.115  15.670 -0.6174 -0.6133  0.5184
 7240TIP3    H243136   6.200   2.997  15.640 -1.2726  0.2211 -0.9492
 7241TIP3   OH243137   1.477   2.456  16.286 -0.2704  0.5322 -0.3177
 7241TIP3    H143138   1.513   2.406  16.360 -1.9832  0.4090  0.4652
 7241TIP3    H243139   1.389   2.480  16.313 -1.2828 -0.2307 -2.6407
 7242TIP3   OH243140   3.956   0.864   2.842  0.1865 -0.5717  0.7292
 7242TIP3    H143141   3.866   0.863   2.873  0.4971 -1.2284  1.6448
 7242TIP3    H243142   3.995   0.942   2.880 -0.5774  0.9964 -1.4916
 7243TIP3   OH243143   2.987   4.295   5.606 -0.1114 -0.2210  0.0036
 7243TIP3    H143144   2.911   4.322   5.554  0.0681 -1.3428 -0.8869
 7243TIP3    H243145   3.000   4.366   5.668 -1.6947  0.1474 -0.0371
 7244TIP3   OH243146   1.123   3.402   2.652  0.2605  0.2735 -0.5625
 7244TIP3    H143147   1.202   3.406   2.706  1.2264  1.8342 -2.0193
 7244TIP3    H243148   1.076   3.483   2.671 -0.9926 -0.5704  0.1773
 7245TIP3   OH243149   0.744   4.001  13.365 -0.7552  0.9223  0.0098
 7245TIP3    H143150   0.821   3.948  13.349  0.9439  3.1150  0.4350
 7245TIP3    H243151   0.728   4.047  13.283 -0.5030  1.8059  0.4456
 7246TIP3   OH243152   3.651   1.145  17.192  0.0852  0.5574  0.0256
 7246TIP3    H143153   3.701   1.195  17.127 -0.1157 -2.2653 -2.5159
 7246TIP3    H243154   3.715   1.083  17.228 -0.0521  1.4480  1.9277
 7247TIP3   OH243155   5.783   3.181  11.808  0.6554 -0.3174  0.0175
 7247TIP3    H143156   5.829   3.145  11.883  0.6528 -2.2553 -0.8732
 7247TIP3    H243157   5.781   3.276  11.825  0.0409 -0.7343  2.7901
 7248TIP3   OH243158   1.662   0.075  15.077  0.1823  0.4334 -0.5246
 7248TIP3    H143159   1.585   0.125  15.103 -0.4146  0.4956 -2.3109
 7248TIP3    H243160   1.714   0.068  15.157 -1.3422  0.9739  0.5560
 7249TIP3   OH243161   6.570   4.778   4.194 -0.3407  0.5844 -0.4183
 7249TIP3    H143162   6.624   4.771   4.272  0.2093  2.2234 -0.6109
 7249TIP3    H243163   6.515   4.700   4.195  0.5798 -0.0711  0.8874
 7250TIP3   OH243164   4.382   4.643  10.510 -0.1548 -0.2233 -0.6394
 7250TIP3    H143165   4.334   4.673  10.587 -2.2444  0.6420 -2.1821
 7250TIP3    H243166   4.358   4.551  10.501 -0.8566 -0.0268 -0.8776
 7251TIP3   OH243167   1.044   3.988  14.845 -0.2291  0.5249 -0.0268
 7251TIP3    H143168   1.119   4.020  14.894  1.1242  0.6182 -2.0435
 7251TIP3    H243169   1.005   4.066  14.806  0.0703  0.2555 -0.8951
 7252TIP3   OH243170   1.026   3.355   5.704 -0.6346  0.2112 -0.3856
 7252TIP3    H143171   0.978   3.292   5.759 -0.3664  0.4898  0.1715
 7252TIP3    H243172   1.080   3.300   5.648 -0.0311 -0.0558  0.4343
 7253TIP3   OH243173   6.528   1.764   2.357  0.2948 -0.0108 -0.2343
 7253TIP3    H143174   6.587   1.839   2.369 -0.2386  0.3217  0.4094
 7253TIP3    H243175   6.441   1.798   2.377 -0.4830  0.0792 -3.3186
 7254TIP3   OH243176   0.710   5.701  14.396 -0.4894 -0.2706 -0.2301
 7254TIP3    H143177   0.637   5.639  14.390 -0.0541 -0.8581  0.3238
 7254TIP3    H243178   0.787   5.649  14.371 -0.2700  0.3735 -0.9382
 7255TIP3   OH243179   6.458   0.589   0.566 -0.0518 -0.1743  0.5434
 7255TIP3    H143180   6.480   0.615   0.476  0.4975  2.1875  1.2843
 7255TIP3    H243181   6.372   0.627   0.582 -0.0656 -0.4243  1.0796
 7256TIP3   OH243182   6.381   3.253  12.777  0.0632  0.6251  0.4312
 7256TIP3    H143183   6.466   3.255  12.733 -0.4077 -1.5051 -0.6985
 7256TIP3    H243184   6.398   3.290  12.864  2.3016 -0.3871  0.4910
 7257TIP3   OH243185   3.496   6.368  13.821 -0.0784  0.1821 -0.0656
 7257TIP3    H143186   3.480   6.345  13.912  0.1911  0.5742  0.0806
 7257TIP3    H243187   3.503   6.463  13.820  0.6638  0.1318 -0.3701
 7258TIP3   OH243188   0.592   5.110   6.525  0.2784  0.1916  0.4941
 7258TIP3    H143189   0.547   5.048   6.467  0.0108  0.2520  0.6330
 7258TIP3    H243190   0.626   5.056   6.597  0.4676  0.1391  0.3658
 7259TIP3   OH243191   3.816   4.235   3.817  0.4835  0.4817  0.0457
 7259TIP3    H143192   3.850   4.317   3.780  1.2220  0.7858  1.3714
 7259TIP3    H243193   3.848   4.233   3.907 -1.0552 -0.3729  0.6156
 7260TIP3   OH243194   2.995   1.711  14.925  0.2497  0.4775 -0.4840
 7260TIP3    H143195   2.910   1.751  14.946 -0.6470 -0.1648 -2.5948
 7260TIP3    H243196   3.057   1.758  14.981 -1.3816  1.4423  0.6459
 7261TIP3   OH243197   1.857   4.471   1.124  0.4955  1.1759 -0.5088
 7261TIP3    H143198   1.872   4.404   1.191 -2.7525  1.4268  0.6539
 7261TIP3    H243199   1.939   4.521   1.121  1.7312 -0.5995  1.1839
 7262TIP3   OH243200   0.145   5.926  13.385 -0.3327  0.0157 -0.4646
 7262TIP3    H143201   0.168   5.847  13.434  2.7360  1.7796  1.2123
 7262TIP3    H243202   0.192   5.997  13.429 -2.1593  2.6932 -2.4733
 7263TIP3   OH243203   3.660   0.652   2.125  0.1608 -0.1468 -0.2802
 7263TIP3    H143204   3.653   0.746   2.108 -0.3364  0.0827  1.0579
 7263TIP3    H243205   3.665   0.645   2.220  0.6501 -1.4571 -0.3831
 7264TIP3   OH243206   2.739   6.506  17.218  0.0963  0.1347  0.3980
 7264TIP3    H143207   2.652   6.473  17.194 -0.6407 -0.9808  3.9868
 7264TIP3    H243208   2.799   6.461  17.159 -1.5474 -1.4129 -0.1836
 7265TIP3   OH243209   3.537   1.088   0.319 -0.1898  0.3689  0.5213
 7265TIP3    H143210   3.618   1.100   0.368  0.0630 -1.0234  0.4824
 7265TIP3    H243211   3.561   1.107   0.228  0.0575  0.0714  0.5257
 7266TIP3   OH243212   6.031   5.086  17.092  0.0226 -0.5762  0.4960
 7266TIP3    H143213   6.071   5.092  17.178  2.0556 -1.8550 -0.2997
 7266TIP3    H243214   5.972   5.162  17.088  0.0986 -0.3290  2.8621
 7267TIP3   OH243215   0.055   1.487  10.610 -0.5898  0.3936 -0.5500
 7267TIP3    H143216   0.020   1.490  10.521  2.6450 -1.5516 -2.0700
 7267TIP3    H243217   0.110   1.409  10.611  0.3651  0.9764  2.8388
 7268TIP3   OH243218   5.765   0.531   5.137 -0.5521 -0.0186  0.2657
 7268TIP3    H143219   5.770   0.625   5.152  0.2118  0.5454 -2.8560
 7268TIP3    H243220   5.686   0.519   5.084 -0.8293 -1.2220  0.8983
 7269TIP3   OH243221   5.663   4.637   4.254 -0.1482 -0.1995  0.3474
 7269TIP3    H143222   5.571   4.649   4.229 -0.2284  1.7535  1.3838
 7269TIP3    H243223   5.665   4.654   4.348  1.4182  0.7714  0.1721
 7270TIP3   OH243224   3.143   0.735   4.406 -0.1874 -0.1110 -0.6729
 7270TIP3    H143225   3.053   0.767   4.398 -0.6494 -0.2583  2.6083
 7270TIP3    H243226   3.197   0.803   4.366 -1.7086 -0.3125 -3.2754
 7271TIP3   OH243227   1.839   3.446   5.711 -0.5795 -0.6804  0.4245
 7271TIP3    H143228   1.781   3.497   5.767  0.4117 -1.3306  2.1319
 7271TIP3    H243229   1.866   3.507   5.643  0.0314  0.9180  2.0068
 7272TIP3   OH243230   5.518   5.169   3.732  0.1400  0.3719  0.0810
 7272TIP3    H143231   5.502   5.075   3.733  0.5383  0.2957 -0.3759
 7272TIP3    H243232   5.442   5.206   3.689  0.6620  0.1117 -1.1035
 7273TIP3   OH243233   4.027   5.707  12.608  0.3734  0.6208 -0.3826
 7273TIP3    H143234   4.063   5.625  12.574 -2.0092 -0.6517 -0.0887
 7273TIP3    H243235   3.945   5.719  12.559 -0.4101  1.6561  1.1078
 7274TIP3   OH243236   1.633   1.083   2.111 -0.1732  0.7323  0.2291
 7274TIP3    H143237   1.601   1.038   2.189 -1.2743 -1.3830 -1.3363
 7274TIP3    H243238   1.570   1.153   2.097 -0.3248  0.7389  0.8944
 7275TIP3   OH243239   0.356   4.204   5.867  0.0363 -0.7059  0.0954
 7275TIP3    H143240   0.431   4.178   5.813  0.7886 -0.7132  1.0962
 7275TIP3    H243241   0.356   4.300   5.864  0.1587 -0.7028  0.1905
 7276TIP3   OH243242   1.543   6.010  15.106 -0.1341 -0.4748 -0.0077
 7276TIP3    H143243   1.533   5.915  15.096 -0.7106 -0.5099  0.8231
 7276TIP3    H243244   1.506   6.046  15.025  2.6222 -1.0339 -1.6113
 7277TIP3   OH243245   3.583   1.012   5.710 -0.5342  0.7771  0.0925
 7277TIP3    H143246   3.554   0.998   5.620  2.3375 -1.0033 -0.7104
 7277TIP3    H243247   3.582   1.108   5.721 -2.9752  0.9424 -1.0075
 7278TIP3   OH243248   4.893   2.630   2.790  0.0254 -0.1672 -0.1400
 7278TIP3    H143249   4.860   2.715   2.761  0.3695  0.4989  1.3302
 7278TIP3    H243250   4.937   2.648   2.873  0.7082 -1.6758 -0.1363
 7279TIP3   OH243251   2.362   1.555  15.468  0.2667 -0.3326  0.4110
 7279TIP3    H143252   2.341   1.624  15.532 -0.5866 -1.0130  0.8964
 7279TIP3    H243253   2.419   1.598  15.405  0.1253  0.7019  0.9511
 7280TIP3   OH243254   2.478   4.550  13.281 -0.0766 -0.3867  0.0120
 7280TIP3    H143255   2.500   4.497  13.205  2.1659  0.6168 -0.1219
 7280TIP3    H243256   2.391   4.586  13.261  0.0381 -0.9514 -1.6147
 7281TIP3   OH243257   0.360   4.646  17.169 -0.6605  0.4162  0.2890
 7281TIP3    H143258   0.425   4.663  17.238 -0.9347  0.5275  0.5207
 7281TIP3    H243259   0.389   4.701  17.096  1.3759 -1.9363 -0.8154
 7282TIP3   OH243260   2.202   1.680  13.045  0.2459  0.3247  0.1245
 7282TIP3    H143261   2.228   1.609  13.104 -0.1180 -0.5936 -0.7928
 7282TIP3    H243262   2.254   1.666  12.966  0.7728  1.5798  0.2273
 7283TIP3   OH243263   3.705   2.777  17.074 -0.3921 -0.0451 -0.7060
 7283TIP3    H143264   3.658   2.761  17.156 -1.3856 -0.1495 -1.2810
 7283TIP3    H243265   3.760   2.853  17.093 -0.5624 -0.1056  0.0756
 7284TIP3   OH243266   1.013   4.444   2.812 -0.1374  0.5124  0.3856
 7284TIP3    H143267   1.098   4.467   2.849 -0.7176  1.8306  0.9834
 7284TIP3    H243268   0.995   4.356   2.846  1.2625 -0.0560 -0.2883
 7285TIP3   OH243269   5.352   6.576  16.531 -0.1259 -0.2477  0.2803
 7285TIP3    H143270   5.369   6.583  16.437 -2.3012  2.2965 -0.0769
 7285TIP3    H243271   5.303   6.656  16.551 -2.1162 -1.9867  3.0203
 7286TIP3   OH243272   3.768   1.620   4.158 -0.2603  0.2067 -0.3176
 7286TIP3    H143273   3.787   1.541   4.108  0.8195 -0.3986  1.0052
 7286TIP3    H243274   3.704   1.592   4.223  2.3172 -0.4391  2.1435
 7287TIP3   OH243275   6.344   5.605   3.592 -0.6239  0.3394 -0.7071
 7287TIP3    H143276   6.285   5.598   3.517 -1.2165 -1.6442 -0.1446
 7287TIP3    H243277   6.380   5.693   3.587 -1.9171  0.8303 -2.3604
 7288TIP3   OH243278   1.356   2.932  16.052 -0.4497 -0.3704  0.2037
 7288TIP3    H143279   1.414   2.869  16.094  1.6062  0.3607 -1.3628
 7288TIP3    H243280   1.371   3.014  16.099 -2.0523 -0.6510  1.3082
 7289TIP3   OH243281   2.101   3.282   2.861 -0.0420  0.4427 -0.1300
 7289TIP3    H143282   2.195   3.275   2.848 -0.1328 -0.1875 -0.5053
 7289TIP3    H243283   2.078   3.368   2.826  0.4585  0.8089  0.4192
 7290TIP3   OH243284   3.419   5.550  17.170 -0.4434  0.4897 -0.0523
 7290TIP3    H143285   3.360   5.597  17.230 -0.5344 -0.6030  0.7428
 7290TIP3    H243286   3.362   5.519  17.100 -0.9585 -1.0069  0.9755
 7291TIP3   OH243287   1.893   1.357   0.973  0.1792  0.5919  0.3644
 7291TIP3    H143288   1.929   1.443   0.950  1.2023  0.3994  1.2003
 7291TIP3    H243289   1.838   1.375   1.050  1.8158  0.2437  1.6594
 7292TIP3   OH243290   5.798   2.728   5.348  0.1671  0.3039 -0.7433
 7292TIP3    H143291   5.833   2.746   5.261  0.4874  0.2989 -0.6142
 7292TIP3    H243292   5.807   2.810   5.396  0.3489  0.1975 -0.5936
 7293TIP3   OH243293   1.297   2.367   0.364  0.1765 -0.0763  0.1767
 7293TIP3    H143294   1.292   2.300   0.431 -0.4853  0.1077  0.3163
 7293TIP3    H243295   1.266   2.447   0.407 -1.4233 -0.2046 -0.6560
 7294TIP3   OH243296   0.068   0.477   5.573 -0.0648  0.3994 -0.3894
 7294TIP3    H143297   0.141   0.457   5.632 -0.5552 -0.7986 -0.1638
 7294TIP3    H243298   0.098   0.449   5.487 -0.4564 -0.6019 -0.2048
 7295TIP3   OH243299   1.177   1.545   5.848  0.3600  0.0916  0.2469
 7295TIP3    H143300   1.195   1.458   5.882 -0.0231  0.0432  0.3240
 7295TIP3    H243301   1.113   1.582   5.909 -2.0281 -0.7948 -1.5604
 7296TIP3   OH243302   5.694   2.772   5.071 -0.6555 -0.7710  0.1779
 7296TIP3    H143303   5.719   2.681   5.084 -1.2357 -1.0400 -0.5266
 7296TIP3    H243304   5.613   2.768   5.019  0.0204  0.1607 -0.9974
 7297TIP3   OH243305   6.384   0.743   1.444  0.1731  0.0588  0.2105
 7297TIP3    H143306   6.417   0.682   1.510  0.6395  0.0952  0.0179
 7297TIP3    H243307   6.363   0.688   1.369 -0.3665  0.0162  0.3863
 7298TIP3   OH243308   6.775   5.894  12.806  0.1277 -0.0419 -0.1912
 7298TIP3    H143309   6.719   5.914  12.881  2.4489 -0.9976  1.9458
 7298TIP3    H243310   6.824   5.816  12.832  2.6112  0.8523 -1.7932
 7299TIP3   OH243311   3.519   4.090   4.787  0.0988 -0.0003 -0.1544
 7299TIP3    H143312   3.457   4.070   4.858  1.6763 -1.5653  0.8580
 7299TIP3    H243313   3.469   4.144   4.726 -2.0995 -0.7940  0.8575
 7300TIP3   OH243314   6.181   1.554  11.680  0.2566  0.3873  0.1202
 7300TIP3    H143315   6.121   1.611  11.632 -0.2470 -2.2808 -2.7165
 7300TIP3    H243316   6.129   1.522  11.755 -2.4921 -2.5016 -2.6821
 7301TIP3   OH243317   4.380   4.772  16.979  0.0719 -0.0319 -0.0389
 7301TIP3    H143318   4.398   4.679  16.996  0.4759  0.1124  0.3206
 7301TIP3    H243319   4.350   4.806  17.063 -0.8627 -0.0191 -0.3649
 7302TIP3   OH243320   4.607   4.810   5.826  0.0792 -0.0336 -0.0438
 7302TIP3    H143321   4.575   4.885   5.876 -0.0531 -0.0428 -0.1121
 7302TIP3    H243322   4.588   4.734   5.882  1.5333  0.0932  0.6756
 7303TIP3   OH243323   0.289   1.425   0.890  0.0442  0.2811  0.0679
 7303TIP3    H143324   0.202   1.463   0.883  0.5797  1.2442 -2.1059
 7303TIP3    H243325   0.294   1.362   0.817  2.1484  2.4662 -1.8583
 7304TIP3   OH243326   4.170   6.777  11.108  0.1630  0.0341  0.6382
 7304TIP3    H143327   4.213   6.807  11.028 -0.8310  0.1903  0.1414
 7304TIP3    H243328   4.238   6.782  11.175  0.9849  0.0162 -0.1651
 7305TIP3   OH243329   2.993   3.200  16.822 -0.0173 -0.4260 -0.1577
 7305TIP3    H143330   2.923   3.234  16.766 -1.4881 -0.1696  1.7363
 7305TIP3    H243331   3.005   3.110  16.793 -0.3388 -0.1484 -1.2204
 7306TIP3   OH243332   3.251   5.534   2.213  0.2036 -0.4862  0.7648
 7306TIP3    H143333   3.217   5.464   2.268 -1.5009 -1.8461 -1.8364
 7306TIP3    H243334   3.239   5.613   2.265 -0.4705 -1.7816  2.6758
 7307TIP3   OH243335   2.067   1.478  12.486 -0.4172  0.2682 -0.6748
 7307TIP3    H143336   2.138   1.416  12.469 -1.4773 -0.6757 -1.8693
 7307TIP3    H243337   2.077   1.500  12.579  0.8650 -0.5670 -0.5824
 7308TIP3   OH243338   1.143   2.809   2.250 -0.4264 -0.1113 -0.3356
 7308TIP3    H143339   1.173   2.725   2.283 -1.7968 -0.1687  0.8359
 7308TIP3    H243340   1.089   2.787   2.174 -0.9154 -0.3152  0.0654
 7309TIP3   OH243341   2.039   5.865  13.332  0.1485  0.1429  0.5605
 7309TIP3    H143342   2.068   5.907  13.412  1.2692  0.3301  0.0703
 7309TIP3    H243343   2.119   5.848  13.283 -0.5903  1.0895 -1.0472
 7310TIP3   OH243344   5.998   3.920   1.121  0.6054 -0.0008  0.3520
 7310TIP3    H143345   5.970   3.843   1.072  0.8912  0.7346 -1.0365
 7310TIP3    H243346   6.085   3.940   1.087  0.6140  0.8166  0.8123
 7311TIP3   OH243347   2.659   2.486  10.944 -0.2625 -0.0481  0.0912
 7311TIP3    H143348   2.743   2.505  10.902  0.1404 -1.3468  0.2582
 7311TIP3    H243349   2.675   2.499  11.037 -0.0098 -1.0650  0.1970
 7312TIP3   OH243350   1.214   5.080  13.940  0.0447  0.3372  0.4352
 7312TIP3    H143351   1.195   4.994  13.980 -2.4416  0.8081  0.4507
 7312TIP3    H243352   1.232   5.137  14.015  0.5996  0.0842  0.5003
 7313TIP3   OH243353   0.653   3.748  16.540  0.1434  0.1210  0.7860
 7313TIP3    H143354   0.661   3.836  16.576  1.5593 -0.3544  1.7310
 7313TIP3    H243355   0.595   3.703  16.601  1.4210 -0.2794  1.7651
 7314TIP3   OH243356   2.033   5.428   4.464 -0.0424  0.0809 -0.3846
 7314TIP3    H143357   1.974   5.454   4.394 -1.0698 -0.5883  0.2061
 7314TIP3    H243358   2.060   5.339   4.441 -0.7919 -0.3402  0.3030
 7315TIP3   OH243359   3.037   2.758  14.096  0.3540 -0.3694 -0.2128
 7315TIP3    H143360   3.120   2.728  14.058  0.2614  0.9830 -1.5701
 7315TIP3    H243361   2.985   2.787  14.021  0.7424  3.8380  0.9095
 7316TIP3   OH243362   3.535   3.634  16.780 -0.2134  0.6618 -0.8655
 7316TIP3    H143363   3.465   3.612  16.843 -1.0606 -0.2100 -2.0602
 7316TIP3    H243364   3.502   3.711  16.734 -0.8414 -0.2977 -2.0672
 7317TIP3   OH243365   1.142   5.919   3.906 -0.1730  0.5800 -0.2138
 7317TIP3    H143366   1.072   5.948   3.848 -0.2773  0.8644  0.0525
 7317TIP3    H243367   1.188   6.000   3.930  0.8482  0.3156 -1.1504
 7318TIP3   OH243368   0.700   4.586  14.543 -0.1782  0.8190 -0.0142
 7318TIP3    H143369   0.745   4.502  14.536  0.3716  0.9355  1.7959
 7318TIP3    H243370   0.611   4.563  14.570  0.0020  0.8225  0.5849
 7319TIP3   OH243371   3.314   2.710   5.958 -0.3508 -0.0690  0.9354
 7319TIP3    H143372   3.260   2.752   6.025  1.3162 -0.6318  2.7344
 7319TIP3    H243373   3.396   2.689   6.004  0.2090 -2.0354 -0.8505
 7320TIP3   OH243374   4.112   2.069   0.142  1.1011  0.2912 -0.2447
 7320TIP3    H143375   4.181   2.040   0.082  2.7681  1.6243  0.9161
 7320TIP3    H243376   4.156   2.131   0.200 -0.6809 -0.1717  1.7173
 7321TIP3   OH243377   5.756   4.378  11.109  0.2821  0.1641  0.5744
 7321TIP3    H143378   5.751   4.335  11.023  0.9923 -0.8625  1.0303
 7321TIP3    H243379   5.777   4.469  11.088 -0.6624  0.1830 -0.3890
 7322TIP3   OH243380   3.622   6.594   5.535 -0.3057 -0.0841 -0.2948
 7322TIP3    H143381   3.528   6.574   5.536 -0.5081  0.8112 -0.2749
 7322TIP3    H243382   3.665   6.509   5.537 -1.1238 -0.5269 -0.8307
 7323TIP3   OH243383   3.630   0.242   2.239  0.1020 -0.0615  0.1285
 7323TIP3    H143384   3.710   0.294   2.231 -0.0462  0.0670 -0.5217
 7323TIP3    H243385   3.642   0.194   2.321  0.7935  0.0420  0.0964
 7324TIP3   OH243386   5.109   2.901   0.418 -0.4547  0.1016 -0.2973
 7324TIP3    H143387   5.057   2.821   0.429  0.1651 -0.1857  0.6619
 7324TIP3    H243388   5.050   2.972   0.444 -0.8038 -0.0919 -0.5437
 7325TIP3   OH243389   2.336   6.109   3.772  0.0643 -0.1073 -0.2515
 7325TIP3    H143390   2.406   6.154   3.724  0.6260 -1.3036 -0.5710
 7325TIP3    H243391   2.295   6.179   3.824  1.0079  0.7514 -0.6221
 7326TIP3   OH243392   4.524   3.294   3.544 -0.3674 -0.0603 -0.0673
 7326TIP3    H143393   4.456   3.237   3.508 -0.1703 -0.0330 -0.4944
 7326TIP3    H243394   4.583   3.310   3.470 -0.1916  0.3555  0.1616
 7327TIP3   OH243395   4.551   0.368   5.989  1.3672 -0.0649  0.0887
 7327TIP3    H143396   4.598   0.301   6.039  2.3967  1.5581  1.4294
 7327TIP3    H243397   4.493   0.408   6.054 -0.1220 -0.4240 -0.9828
 7328TIP3   OH243398   5.939   0.474   5.515  0.2337  0.5946  0.0522
 7328TIP3    H143399   5.867   0.499   5.573 -0.9633 -1.2984 -0.5262
 7328TIP3    H243400   5.989   0.410   5.566 -0.4103 -0.5382 -0.6962
 7329TIP3   OH243401   5.727   5.094  16.199  0.0308  0.8157  0.3966
 7329TIP3    H143402   5.718   5.038  16.276 -1.9311  0.8162  0.2079
 7329TIP3    H243403   5.775   5.171  16.231 -0.3318  0.5987  1.5043
 7330TIP3   OH243404   6.762   4.998   0.471 -0.3661 -0.6837  0.2352
 7330TIP3    H143405   6.670   4.983   0.491 -1.0722  2.1178 -0.5336
 7330TIP3    H243406   6.778   4.944   0.393 -1.7136 -0.2716 -0.3626
 7331TIP3   OH243407   5.302   0.182   3.960  1.1445 -0.1770 -0.6693
 7331TIP3    H143408   5.392   0.203   3.935  0.5522  0.2958 -2.5686
 7331TIP3    H243409   5.286   0.237   4.037  2.4114 -0.1198 -0.4245
 7332TIP3   OH243410   5.168   0.141  12.696 -0.2568 -0.1060  0.4601
 7332TIP3    H143411   5.128   0.100  12.773 -1.8131  0.9760  0.2661
 7332TIP3    H243412   5.129   0.228  12.692  0.6143  0.2533 -0.9478
 7333TIP3   OH243413   0.157   4.032   2.752  0.3496  0.0187 -0.1464
 7333TIP3    H143414   0.252   4.027   2.740  0.4594 -0.9872  0.9616
 7333TIP3    H243415   0.141   4.122   2.779  0.8426  0.4934 -1.3615
 7334TIP3   OH243416   4.671   0.022   0.564  0.3497  0.4668  0.1794
 7334TIP3    H143417   4.582   0.027   0.529  0.0320 -1.1160  0.6920
 7334TIP3    H243418   4.659   0.025   0.659  0.9176  1.0379  0.2422
 7335TIP3   OH243419   2.022   4.776   0.134  0.2408  0.0558  0.0259
 7335TIP3    H143420   2.002   4.851   0.078 -0.2112 -0.4518 -0.4979
 7335TIP3    H243421   2.049   4.816   0.217 -0.0346  0.8009 -0.2297
 7336TIP3   OH243422   0.571   6.057  11.414 -0.0153  0.1283  0.2432
 7336TIP3    H143423   0.642   5.994  11.398  0.2509  0.1634  1.2204
 7336TIP3    H243424   0.614   6.142  11.411 -0.3668  0.2759 -1.0257
 7337TIP3   OH243425   6.557   1.134  16.862  0.2226  0.8615 -0.8852
 7337TIP3    H143426   6.574   1.186  16.940  0.1233  0.7672 -0.8002
 7337TIP3    H243427   6.618   1.168  16.796 -0.3671  1.5997 -1.0622
 7338TIP3   OH243428   4.247   6.760  10.778 -0.2702 -0.2104  0.0133
 7338TIP3    H143429   4.266   6.681  10.828  1.5939 -0.2639 -0.7114
 7338TIP3    H243430   4.275   6.832  10.834 -1.4289 -0.0638  0.4338
 7339TIP3   OH243431   4.117   1.606  13.237  0.7120  0.0504  0.1941
 7339TIP3    H143432   4.071   1.690  13.236  0.4249 -0.1049  0.2151
 7339TIP3    H243433   4.097   1.567  13.152 -0.5954 -0.7645  0.8408
 7340TIP3   OH243434   3.199   6.215  11.907 -0.2920 -0.0764  0.3914
 7340TIP3    H143435   3.234   6.182  11.824  0.6839  0.9756  0.3543
 7340TIP3    H243436   3.137   6.148  11.935 -0.6900 -0.4149 -1.2140
 7341TIP3   OH243437   6.488   3.000   6.282  0.7408  0.1112 -0.0556
 7341TIP3    H143438   6.533   2.947   6.347  0.1096  0.1433  0.4188
 7341TIP3    H243439   6.421   3.047   6.331  1.7839  1.9806 -0.3348
 7342TIP3   OH243440   5.495   2.623  10.793 -0.4622  0.2126  0.5018
 7342TIP3    H143441   5.574   2.614  10.741 -0.6498  2.5592 -0.3564
 7342TIP3    H243442   5.443   2.546  10.773  1.7968 -1.7198  1.5920
 7343TIP3   OH243443   6.092   4.566  15.183 -0.1156  0.1224  0.6926
 7343TIP3    H143444   6.182   4.586  15.209  0.0237 -0.6302  0.8133
 7343TIP3    H243445   6.101   4.526  15.096 -0.4204  0.8854  0.2960
 7344TIP3   OH243446   6.205   1.517   3.887  0.1714  0.1141  0.3222
 7344TIP3    H143447   6.260   1.583   3.928  1.8449 -1.2203  0.3119
 7344TIP3    H243448   6.231   1.517   3.795  1.2017 -1.4848  0.5795
 7345TIP3   OH243449   3.388   2.449  11.987 -0.5284 -0.1103  0.1446
 7345TIP3    H143450   3.376   2.355  12.002 -2.4161 -0.0998 -0.9463
 7345TIP3    H243451   3.473   2.470  12.027  0.4176 -2.4796 -0.4577
 7346TIP3   OH243452   2.464   4.815  16.965 -0.3241  0.0448 -0.0750
 7346TIP3    H143453   2.457   4.839  16.872  0.4899 -0.7349 -0.3519
 7346TIP3    H243454   2.534   4.749  16.968 -0.3830  0.0098  1.0864
 7347TIP3   OH243455   2.853   5.722  11.991 -0.0290  0.1404  0.3169
 7347TIP3    H143456   2.786   5.737  12.057  0.2944 -0.8913  0.9114
 7347TIP3    H243457   2.825   5.772  11.915  0.0573  2.1073  1.5277
 7348TIP3   OH243458   0.959   5.996   6.573  0.5236 -0.9997 -0.4229
 7348TIP3    H143459   0.903   6.016   6.648 -2.4209  0.2943 -2.7608
 7348TIP3    H243460   0.946   5.902   6.557 -0.5356 -0.8391 -0.5624
 7349TIP3   OH243461   0.415   1.299  16.714 -0.2793 -0.3570 -0.0660
 7349TIP3    H143462   0.383   1.219  16.672  0.7095 -1.1055  0.5542
 7349TIP3    H243463   0.511   1.291  16.711 -0.1501  1.2661 -0.8484
 7350TIP3   OH243464   4.140   3.265  13.058 -0.0385 -0.2686  0.0827
 7350TIP3    H143465   4.123   3.198  12.991 -0.9639 -1.1712  1.1641
 7350TIP3    H243466   4.077   3.334  13.039 -1.2465 -1.1332  0.7888
 7351TIP3   OH243467   5.386   5.249   1.524  0.1846  0.1415 -0.5672
 7351TIP3    H143468   5.372   5.325   1.581  0.1585 -0.3261  0.0528
 7351TIP3    H243469   5.307   5.197   1.533  0.7485 -0.6354  0.0580
 7352TIP3   OH243470   3.807   2.065   4.258 -0.7794  0.4643 -0.0527
 7352TIP3    H143471   3.833   2.051   4.167 -1.0612 -0.6329  0.0249
 7352TIP3    H243472   3.821   2.159   4.273 -1.9192  0.9143 -1.6100
 7353TIP3   OH243473   6.065   3.534   3.064  0.0922 -0.0842 -0.1058
 7353TIP3    H143474   5.990   3.541   3.123  0.3642 -0.7705  0.3243
 7353TIP3    H243475   6.033   3.570   2.981 -0.3844  0.6022  0.3648
 7354TIP3   OH243476   1.648   5.126  16.672  0.5419  1.0330  0.2369
 7354TIP3    H143477   1.688   5.102  16.589 -0.7963  0.2239 -0.1897
 7354TIP3    H243478   1.652   5.222  16.674 -0.0060  1.1008 -1.0682
 7355TIP3   OH243479   3.180   4.700  15.603 -0.2171  0.1038 -0.0375
 7355TIP3    H143480   3.209   4.694  15.512  0.9885 -0.4881  0.3522
 7355TIP3    H243481   3.191   4.611  15.637 -2.5797 -0.1612  0.1580
 7356TIP3   OH243482   4.251   6.567  14.223 -0.5164  0.2900 -0.3783
 7356TIP3    H143483   4.333   6.590  14.179 -1.0623  0.2769 -1.4377
 7356TIP3    H243484   4.232   6.642  14.279  0.4067  0.1287  0.1631
 7357TIP3   OH243485   3.665   5.832  14.131  0.1313 -0.0999  0.1017
 7357TIP3    H143486   3.596   5.766  14.136 -0.7276  0.6224 -1.4742
 7357TIP3    H243487   3.691   5.833  14.039  0.1646  1.6853  0.0892
 7358TIP3   OH243488   0.681   3.326  12.493  0.4474 -0.2340 -0.2851
 7358TIP3    H143489   0.591   3.353  12.472  0.5929  1.2389  0.7512
 7358TIP3    H243490   0.732   3.348  12.415  0.2325  0.8625 -0.1362
 7359TIP3   OH243491   5.848   5.985   6.536  0.0530 -0.4299 -0.3135
 7359TIP3    H143492   5.861   5.891   6.549 -2.2213 -0.5171  2.4848
 7359TIP3    H243493   5.755   5.993   6.513  0.2502  1.1292 -0.6787
 7360TIP3   OH243494   0.946   0.138   5.256  0.1791  0.4023 -0.2648
 7360TIP3    H143495   0.894   0.192   5.315 -0.5097  1.1159 -1.4827
 7360TIP3    H243496   0.924   0.048   5.281 -0.9825  0.6943 -0.1725
 7361TIP3   OH243497   1.662   6.751   0.374  0.0448 -0.3177 -0.4730
 7361TIP3    H143498   1.740   6.695   0.373 -0.0022 -0.5318  1.9621
 7361TIP3    H243499   1.589   6.691   0.389  0.0282  0.2678  2.5337
 7362TIP3   OH243500   0.983   6.457   3.346 -0.3545 -0.3635 -0.2872
 7362TIP3    H143501   0.990   6.425   3.435 -0.1859 -3.0975 -1.1847
 7362TIP3    H243502   1.044   6.402   3.296 -0.4144  1.1023 -2.0986
 7363TIP3   OH243503   2.563   1.073  15.399  0.2196  0.0097 -0.0900
 7363TIP3    H143504   2.538   0.984  15.426  3.1333 -1.1810 -0.9433
 7363TIP3    H243505   2.659   1.071  15.394  0.4784  3.5047  0.7337
 7364TIP3   OH243506   4.895   4.179   1.442 -0.2712  0.6811  0.5027
 7364TIP3    H143507   4.929   4.256   1.396 -1.4039  0.5794 -0.5733
 7364TIP3    H243508   4.816   4.155   1.393 -1.1932  0.1811  2.1649
 7365TIP3   OH243509   2.251   0.721  12.273  0.3709 -0.1669  0.4140
 7365TIP3    H143510   2.221   0.641  12.317 -2.3476  0.6233  0.1408
 7365TIP3    H243511   2.229   0.791  12.334 -0.4464  0.6524 -0.7765
 7366TIP3   OH243512   0.621   5.320   0.232  0.3182  0.2639 -0.1519
 7366TIP3    H143513   0.539   5.291   0.192  1.4243 -1.3727 -1.3808
 7366TIP3    H243514   0.599   5.335   0.324 -0.7954 -2.8996  0.2328
 7367TIP3   OH243515   0.656   2.762  11.187  0.5773  0.1720 -0.0056
 7367TIP3    H143516   0.640   2.715  11.269 -0.9386  0.6727  0.0191
 7367TIP3    H243517   0.577   2.747  11.135  0.8676  1.1232 -0.7460
 7368TIP3   OH243518   6.331   1.895  14.912  0.2359 -0.1246  0.7202
 7368TIP3    H143519   6.308   1.804  14.894  0.0665  0.2109 -0.9639
 7368TIP3    H243520   6.305   1.910  15.003  0.2596 -1.7498  1.0091
 7369TIP3   OH243521   3.879   3.345   4.499 -0.3079 -1.5244  0.8675
 7369TIP3    H143522   3.794   3.302   4.499 -1.9319  1.4001  2.3898
 7369TIP3    H243523   3.932   3.296   4.562 -0.9682 -3.1124  0.2277
 7370TIP3   OH243524   3.225   5.581   3.936 -0.2914  0.2160  0.3541
 7370TIP3    H143525   3.225   5.509   3.873  1.3822  0.0267  0.5258
 7370TIP3    H243526   3.316   5.611   3.938 -0.6242  1.2217  1.5538
 7371TIP3   OH243527   6.646   0.972  12.496 -0.0550  0.2255 -0.0150
 7371TIP3    H143528   6.700   0.964  12.574 -1.0665  2.1764  0.9734
 7371TIP3    H243529   6.632   0.882  12.467 -0.7852 -0.7177  2.8790
 7372TIP3   OH243530   4.061   5.364  14.157 -0.0454 -0.4434 -0.2649
 7372TIP3    H143531   4.003   5.294  14.127 -0.7237 -0.0769  0.1719
 7372TIP3    H243532   4.003   5.439  14.170  0.2262 -0.5543  1.9007
 7373TIP3   OH243533   3.616   0.273  16.700 -0.2457  0.0933 -0.2682
 7373TIP3    H143534   3.647   0.362  16.680 -0.9961 -0.1178 -2.6826
 7373TIP3    H243535   3.694   0.225  16.727  0.9630  0.4661 -2.8595
 7374TIP3   OH243536   5.766   2.946  14.924 -0.7464  0.2989 -0.1832
 7374TIP3    H143537   5.784   2.861  14.884 -1.9787  1.1785 -2.7977
 7374TIP3    H243538   5.672   2.944  14.945 -0.7852  1.0114 -0.2530
 7375TIP3   OH243539   4.797   2.019  11.041  0.2186  0.1158  0.0912
 7375TIP3    H143540   4.719   1.972  11.012  0.4146 -0.1919  0.0656
 7375TIP3    H243541   4.845   2.038  10.960  0.5337 -0.3362  0.1684
 7376TIP3   OH243542   3.467   4.107   3.980 -0.6625  0.2750 -0.2055
 7376TIP3    H143543   3.417   4.174   3.933 -1.5287 -0.0992  0.1669
 7376TIP3    H243544   3.500   4.151   4.058  0.9809  0.9682 -1.2294
 7377TIP3   OH243545   2.685   5.685  13.930 -0.0386  0.4071 -0.0728
 7377TIP3    H143546   2.730   5.765  13.903 -1.2404  1.0876 -0.1320
 7377TIP3    H243547   2.651   5.705  14.017  1.0939 -0.6566  0.6388
 7378TIP3   OH243548   1.882   6.176   5.023 -0.0503 -0.6371  0.4638
 7378TIP3    H143549   1.935   6.112   4.975 -0.7857  0.0344 -1.3565
 7378TIP3    H243550   1.797   6.135   5.032  0.0678 -0.7353  1.1755
 7379TIP3   OH243551   6.697   5.297   6.205 -0.5456 -0.0124  0.0888
 7379TIP3    H143552   6.634   5.364   6.229  1.3175  0.9741  2.6423
 7379TIP3    H243553   6.754   5.339   6.142 -1.1431 -0.2187 -0.6033
 7380TIP3   OH243554   2.860   3.197   2.251  0.1529 -0.5613  0.0582
 7380TIP3    H143555   2.910   3.222   2.173 -0.7934  2.1041  0.2175
 7380TIP3    H243556   2.891   3.255   2.320 -0.9318 -1.0386  0.9773
 7381TIP3   OH243557   5.592   2.499  12.455 -0.0995  0.1168  0.1531
 7381TIP3    H143558   5.636   2.545  12.383  0.5937  3.4891  2.4734
 7381TIP3    H243559   5.653   2.430  12.480 -0.1592 -0.8230 -2.1480
 7382TIP3   OH243560   1.486   4.212   5.072 -0.9251 -0.2743  0.4535
 7382TIP3    H143561   1.514   4.300   5.048 -2.6974  0.3656  0.5681
 7382TIP3    H243562   1.503   4.207   5.166  1.8270 -1.1488 -0.0016
 7383TIP3   OH243563   2.184   0.789  13.785 -0.7645  0.0626  0.0317
 7383TIP3    H143564   2.193   0.882  13.806  1.2022 -0.1044  0.1448
 7383TIP3    H243565   2.206   0.784  13.692 -0.3033 -0.3422  0.1578
 7384TIP3   OH243566   5.589   2.930   6.305  0.3823 -0.6303  0.5343
 7384TIP3    H143567   5.567   2.839   6.285  1.9320 -0.4967 -2.4443
 7384TIP3    H243568   5.684   2.935   6.296  0.2364  1.5037 -0.7759
 7385TIP3   OH243569   2.168   1.369   4.506 -0.2691 -0.0961 -0.2254
 7385TIP3    H143570   2.163   1.464   4.515 -0.3070 -0.0175 -1.0575
 7385TIP3    H243571   2.122   1.350   4.424  1.8030 -0.5766 -1.3385
 7386TIP3   OH243572   0.413   2.413  12.316  0.2626  0.2439  0.7748
 7386TIP3    H143573   0.509   2.406  12.311  0.1700 -1.4074  0.7836
 7386TIP3    H243574   0.397   2.505  12.338  1.8411  0.5660  0.7202
 7387TIP3   OH243575   6.025   2.379   0.682 -0.3959 -0.8226 -0.3349
 7387TIP3    H143576   5.962   2.336   0.739 -0.7495 -0.4442 -0.4347
 7387TIP3    H243577   5.989   2.370   0.594 -0.7587  0.1508 -0.2982
 7388TIP3   OH243578   2.065   0.120  13.071  0.0819  0.2533  0.0097
 7388TIP3    H143579   1.994   0.057  13.059 -0.0255  0.2862  0.4623
 7388TIP3    H243580   2.145   0.067  13.065  0.1564  0.5381 -2.8559
 7389TIP3   OH243581   1.898   3.395  11.879  0.3948 -0.2663  0.2777
 7389TIP3    H143582   1.823   3.344  11.848  1.3029 -1.8996  0.7200
 7389TIP3    H243583   1.969   3.333  11.887  1.3178  0.8953  1.6702
 7390TIP3   OH243584   3.902   4.777   4.657  0.0451  0.5515  0.5216
 7390TIP3    H143585   3.825   4.828   4.632 -0.8576 -1.2999 -0.6749
 7390TIP3    H243586   3.897   4.771   4.752 -1.8158 -0.3029  0.4034
 7391TIP3   OH243587   4.730   4.340   2.830 -0.1776 -0.0405 -0.0455
 7391TIP3    H143588   4.672   4.282   2.879  1.3315 -1.8343 -0.2600
 7391TIP3    H243589   4.702   4.333   2.739  1.4551 -2.4505 -0.4611
 7392TIP3   OH243590   4.322   5.725   2.206  0.7079  0.1706  0.8353
 7392TIP3    H143591   4.413   5.703   2.225  0.4021 -0.7645  1.2821
 7392TIP3    H243592   4.273   5.647   2.232 -0.1862  0.5390  0.2930
 7393TIP3   OH243593   3.578   2.896   4.694 -0.2390 -0.7096  0.3190
 7393TIP3    H143594   3.557   2.882   4.602  2.2373 -1.6737 -0.1844
 7393TIP3    H243595   3.528   2.974   4.719 -0.1211  0.2568 -2.1663
 7394TIP3   OH243596   1.866   6.090   5.839  0.2387 -0.2828  0.2309
 7394TIP3    H143597   1.802   6.028   5.804 -0.6826 -0.1931  1.7044
 7394TIP3    H243598   1.825   6.176   5.828  0.6265 -0.1057  0.1183
 7395TIP3   OH243599   3.229   0.950  14.765  0.1529 -0.3895 -0.1003
 7395TIP3    H143600   3.213   0.912  14.851  0.5733 -0.6661 -0.1440
 7395TIP3    H243601   3.142   0.973  14.732 -0.0687 -0.9308  0.1040
 7396TIP3   OH243602   0.884   1.442  16.332  0.3319  0.0108 -0.5986
 7396TIP3    H143603   0.847   1.529  16.315  0.0455 -0.1803 -0.9699
 7396TIP3    H243604   0.971   1.460  16.368 -0.2436  0.4758  0.6024
 7397TIP3   OH243605   3.391   3.680   2.950 -0.5008  0.1100 -0.6611
 7397TIP3    H143606   3.340   3.619   2.896 -1.8907  2.1053 -1.7115
 7397TIP3    H243607   3.336   3.697   3.026  0.5309 -1.0202  0.3974
 7398TIP3   OH243608   1.357   5.620   6.839 -0.3180  0.2320  0.0252
 7398TIP3    H143609   1.322   5.708   6.852 -0.1256  0.4069 -0.6035
 7398TIP3    H243610   1.368   5.612   6.744  0.7430 -0.0415  0.1539
 7399TIP3   OH243611   2.749   5.200  15.589 -0.3972  0.0150 -0.2796
 7399TIP3    H143612   2.678   5.146  15.554  0.0892 -1.4828  0.9035
 7399TIP3    H243613   2.712   5.238  15.669 -0.4556  0.7632 -0.6550
 7400TIP3   OH243614   4.272   2.191  13.403 -0.0594 -0.3962  0.9800
 7400TIP3    H143615   4.223   2.274  13.407 -1.0859 -0.9467  0.2762
 7400TIP3    H243616   4.238   2.140  13.477  0.3038 -0.3398  1.1887
 7401TIP3   OH243617   1.603   2.439   1.807  0.2996 -0.3939  0.0424
 7401TIP3    H143618   1.666   2.368   1.797  1.3830  0.7107 -1.4451
 7401TIP3    H243619   1.549   2.433   1.728 -1.2497 -1.0818  1.1149
 7402TIP3   OH243620   4.010   6.493   5.288  0.0585 -0.0664  0.7881
 7402TIP3    H143621   3.987   6.583   5.269  2.1669  0.7845  1.8976
 7402TIP3    H243622   3.955   6.470   5.363  0.1486  0.6325  1.0791
 7403TIP3   OH243623   6.755   6.684  15.834  0.0993 -0.1041  0.2303
 7403TIP3    H143624   6.745   6.741  15.758  0.2409 -0.1172  0.2011
 7403TIP3    H243625   6.719   6.735  15.907 -0.0954 -0.1176  0.1444
 7404TIP3   OH243626   4.394   5.975   3.120 -0.3169  0.8303  0.2904
 7404TIP3    H143627   4.467   5.918   3.096 -0.8439  0.4295 -0.4080
 7404TIP3    H243628   4.323   5.914   3.141 -1.5093  1.1708 -2.3603
 7405TIP3   OH243629   5.310   3.683   4.631 -0.0837 -0.5369  0.4148
 7405TIP3    H143630   5.340   3.595   4.654 -0.8701 -0.3986  2.1789
 7405TIP3    H243631   5.223   3.690   4.672 -1.2338  0.1175 -1.9790
 7406TIP3   OH243632   3.533   1.078   6.206 -0.1292 -0.0147 -0.1363
 7406TIP3    H143633   3.574   1.025   6.274 -1.7869 -1.0033  0.1647
 7406TIP3    H243634   3.584   1.158   6.204  0.3037 -0.1742  1.9149
 7407TIP3   OH243635   5.626   5.880  13.676 -0.0207 -0.0042  0.2773
 7407TIP3    H143636   5.635   5.874  13.772 -0.7346 -0.2846  0.3313
 7407TIP3    H243637   5.559   5.815  13.654 -0.8974  1.0385 -0.2402
 7408TIP3   OH243638   1.790   2.691  12.005  0.1246  0.1965 -0.1968
 7408TIP3    H143639   1.853   2.743  12.055 -0.2445 -0.0722  0.5575
 7408TIP3    H243640   1.753   2.753  11.943 -0.8927  1.0680  1.2219
 7409TIP3   OH243641   5.871   3.477  11.837 -0.0790 -0.0396 -0.6917
 7409TIP3    H143642   5.920   3.531  11.899  0.7023 -1.3819 -0.1196
 7409TIP3    H243643   5.918   3.487  11.754  1.0064 -1.0679 -0.2191
 7410TIP3   OH243644   6.308   5.168  12.029  0.1220 -0.3701  0.2383
 7410TIP3    H143645   6.306   5.148  12.123  0.0867 -3.1932 -0.2771
 7410TIP3    H243646   6.401   5.171  12.008  0.1265 -1.0439  0.1430
 7411TIP3   OH243647   0.528   4.971   2.146 -0.6216  0.1427 -0.2378
 7411TIP3    H143648   0.451   5.024   2.166  0.6452  1.3656  1.6944
 7411TIP3    H243649   0.547   4.990   2.054 -1.9044  0.7554 -0.3909
 7412TIP3   OH243650   2.132   2.125  12.594  0.5283 -0.0829 -0.1027
 7412TIP3    H143651   2.173   2.203  12.556 -1.1391  0.4368 -0.9087
 7412TIP3    H243652   2.112   2.069  12.519 -1.6533  0.3917  0.0806
 7413TIP3   OH243653   4.447   3.050   4.219  0.0985 -0.1872  0.4105
 7413TIP3    H143654   4.385   3.035   4.290  0.1059  1.3798  0.8081
 7413TIP3    H243655   4.399   3.103   4.155 -0.9506 -4.1631 -2.4188
 7414TIP3   OH243656   3.315   1.648  11.187 -0.3933  0.2619  0.9580
 7414TIP3    H143657   3.299   1.578  11.123  3.2382  1.2883 -1.3906
 7414TIP3    H243658   3.370   1.606  11.254  0.8848  0.5224  0.1120
 7415TIP3   OH243659   2.040   4.560   6.181 -0.3692 -0.1900  0.3404
 7415TIP3    H143660   1.984   4.508   6.240  0.2446 -1.5772 -0.2389
 7415TIP3    H243661   2.116   4.582   6.233 -0.8658  0.6075  0.7485
 7416TIP3   OH243662   4.824   1.486  12.957 -0.2048 -0.5608 -0.5123
 7416TIP3    H143663   4.910   1.481  12.999 -0.6215  2.6242  1.0136
 7416TIP3    H243664   4.775   1.413  12.994  0.6925 -0.1586  1.6073
 7417TIP3   OH243665   6.665   5.230  12.478  0.9203  0.1023  0.0587
 7417TIP3    H143666   6.682   5.137  12.490  0.9047  0.3418  2.1698
 7417TIP3    H243667   6.692   5.271  12.560 -0.7557  1.7219 -0.1225
 7418TIP3   OH243668   4.604   5.859  13.461 -0.6706  0.1052 -1.3688
 7418TIP3    H143669   4.578   5.790  13.523 -0.8839 -0.5670 -2.1909
 7418TIP3    H243670   4.521   5.896  13.431 -0.5648  1.9396  0.3498
 7419TIP3   OH243671   3.064   0.767   4.918  0.3558  0.8393  0.7703
 7419TIP3    H143672   3.131   0.791   4.854  1.1775 -1.1681  0.8101
 7419TIP3    H243673   3.029   0.685   4.885 -0.1724  0.4778  2.1953
 7420TIP3   OH243674   2.661   4.232   3.675  0.1893 -0.1890 -0.0132
 7420TIP3    H143675   2.668   4.152   3.728 -1.3950  0.9223  2.0208
 7420TIP3    H243676   2.659   4.303   3.739 -1.0560  1.3001 -1.6161
 7421TIP3   OH243677   0.982   5.762   5.594  0.1930  0.2076 -0.3577
 7421TIP3    H143678   0.890   5.760   5.570 -0.0907 -1.2703  0.7547
 7421TIP3    H243679   0.986   5.816   5.673  0.4638  1.1733 -1.0079
 7422TIP3   OH243680   5.689   1.916   1.719  0.3124  0.2198 -0.1904
 7422TIP3    H143681   5.649   1.997   1.752 -1.8689 -1.0332  0.4083
 7422TIP3    H243682   5.737   1.881   1.794 -0.4774 -0.0698  0.1946
 7423TIP3   OH243683   3.982   0.717  12.442  0.6854 -0.1611 -0.3582
 7423TIP3    H143684   4.045   0.707  12.371 -1.5459 -0.9119 -2.3518
 7423TIP3    H243685   3.946   0.629  12.454  2.1021 -0.4354  2.9090
 7424TIP3   OH243686   1.000   4.287  15.955 -0.3521 -0.0026  0.4150
 7424TIP3    H143687   1.010   4.230  15.879 -0.8851  1.8489 -1.1140
 7424TIP3    H243688   0.910   4.320  15.949 -0.7534 -0.5885  2.4440
 7425TIP3   OH243689   4.790   1.563   2.961  0.4710  0.6826 -0.1780
 7425TIP3    H143690   4.736   1.496   3.004  1.1441  0.3464  0.1640
 7425TIP3    H243691   4.877   1.523   2.957  0.4999  0.8378 -1.5578
 7426TIP3   OH243692   1.147   4.405   2.122  0.2120  0.4944  0.9567
 7426TIP3    H143693   1.121   4.335   2.063  0.1064  0.2772  1.2587
 7426TIP3    H243694   1.080   4.472   2.111  1.1970  1.2851 -0.5710
 7427TIP3   OH243695   3.654   2.958  14.136 -0.0081  0.5142 -0.4920
 7427TIP3    H143696   3.617   2.934  14.221  0.8285 -2.3297 -0.8264
 7427TIP3    H243697   3.713   3.030  14.155  0.3771 -0.2498  1.4109
 7428TIP3   OH243698   2.965   6.428  14.216  0.3654 -0.0595  0.2365
 7428TIP3    H143699   3.009   6.415  14.300 -1.4192  1.1905  1.4318
 7428TIP3    H243700   3.019   6.492  14.169  2.6712 -2.4832 -0.6729
 7429TIP3   OH243701   6.233   1.355   2.900 -0.5667  0.2690 -0.0870
 7429TIP3    H143702   6.220   1.313   2.814 -0.8433  2.0862 -0.9798
 7429TIP3    H243703   6.311   1.313   2.936  0.4714  0.5215 -1.9300
 7430TIP3   OH243704   6.089   2.647  11.569 -0.0752 -0.0009 -0.5237
 7430TIP3    H143705   6.134   2.730  11.554  1.1575 -0.2623  1.4824
 7430TIP3    H243706   6.159   2.581  11.568 -0.8064 -0.7946 -0.2575
 7431TIP3   OH243707   6.694   6.408  13.164  0.1533  0.3266  0.3659
 7431TIP3    H143708   6.698   6.381  13.256  0.2827 -3.4695 -0.5918
 7431TIP3    H243709   6.600   6.419  13.147  0.2060  4.9219  1.7244
 7432TIP3   OH243710   2.082   4.784  13.463  0.3158 -0.3138  0.1321
 7432TIP3    H143711   2.053   4.842  13.392 -1.9127  0.4018  1.5154
 7432TIP3    H243712   2.131   4.840  13.522  0.7068 -0.5260  0.0127
 7433TIP3   OH243713   0.745   4.797   0.276  0.1181 -0.0380 -0.0713
 7433TIP3    H143714   0.724   4.716   0.323  0.6474  0.0129  0.2655
 7433TIP3    H243715   0.742   4.865   0.343  1.6008 -0.0716  0.0649
 7434TIP3   OH243716   4.699   5.377  15.545  0.1816 -0.1326  0.6401
 7434TIP3    H143717   4.694   5.337  15.458  1.0180 -0.3202  0.6673
 7434TIP3    H243718   4.783   5.348  15.580 -0.4919 -0.6960  1.8407
 7435TIP3   OH243719   1.476   1.825   2.860 -0.7761  0.3864 -0.7292
 7435TIP3    H143720   1.469   1.741   2.906  2.9790  0.3988  0.2138
 7435TIP3    H243721   1.460   1.803   2.768 -1.5137 -1.0219 -0.2975
 7436TIP3   OH243722   1.084   3.292   3.445  0.6706  0.3098  0.0708
 7436TIP3    H143723   1.013   3.283   3.381  1.4385  0.1194 -0.7702
 7436TIP3    H243724   1.039   3.316   3.526 -0.4477 -0.7077 -0.2093
 7437TIP3   OH243725   5.604   4.075   2.703 -0.8745 -0.3585 -0.0537
 7437TIP3    H143726   5.633   4.166   2.704  0.2398 -0.6147 -2.6556
 7437TIP3    H243727   5.672   4.028   2.751  0.0387 -0.1616 -1.1130
 7438TIP3   OH243728   5.552   2.472  16.331 -0.2917  0.1296 -0.1948
 7438TIP3    H143729   5.467   2.429  16.321 -0.2834  0.0120  0.2309
 7438TIP3    H243730   5.574   2.503  16.243 -0.1178 -1.0718 -0.5880
 7439TIP3   OH243731   4.011   3.028   1.580  0.8111  0.4262 -0.3789
 7439TIP3    H143732   3.917   3.006   1.579  0.5429  1.5291 -0.1337
 7439TIP3    H243733   4.028   3.064   1.494  1.3669 -1.1334 -0.9535
 7440TIP3   OH243734   0.350   3.644   0.028  0.0866 -0.0743  0.2036
 7440TIP3    H143735   0.393   3.679   0.106 -0.6197 -0.7278  0.9045
 7440TIP3    H243736   0.349   3.718  -0.033  0.6237  0.4579  0.8129
 7441TIP3   OH243737   4.186   1.429   1.203 -0.2642 -0.5156 -0.2404
 7441TIP3    H143738   4.263   1.487   1.202 -0.1159 -0.7042  0.1047
 7441TIP3    H243739   4.114   1.487   1.227 -0.3492 -0.1998 -1.2259
 7442TIP3   OH243740   6.494   1.739  13.129  0.0572  0.1005 -0.0166
 7442TIP3    H143741   6.436   1.681  13.178  1.8033 -0.7610  1.1405
 7442TIP3    H243742   6.444   1.765  13.052 -0.6986 -3.2443 -0.7916
 7443TIP3   OH243743   5.260   1.986  16.626 -0.1760 -0.1571 -0.0077
 7443TIP3    H143744   5.316   1.960  16.552 -0.4152  1.0301 -0.6372
 7443TIP3    H243745   5.270   1.915  16.690  0.8075 -0.7355 -0.7685
 7444TIP3   OH243746   3.583   5.883  14.640  0.1471  0.0831 -0.1349
 7444TIP3    H143747   3.622   5.805  14.601  1.2478  1.3508 -1.7426
 7444TIP3    H243748   3.500   5.853  14.677  0.1248 -1.6689 -1.4692
 7445TIP3   OH243749   5.119   6.407   0.017 -0.6317  0.3273  0.0001
 7445TIP3    H143750   5.194   6.435  -0.036 -0.7110 -1.3465 -1.0429
 7445TIP3    H243751   5.044   6.410  -0.043 -0.5846 -2.3911 -0.2964
 7446TIP3   OH243752   0.488   4.753   0.170 -0.1658 -0.2160 -0.4596
 7446TIP3    H143753   0.465   4.704   0.249 -0.1064 -1.3155 -1.1067
 7446TIP3    H243754   0.581   4.773   0.180 -0.2061 -0.1689 -0.1642
 7447TIP3   OH243755   2.182   3.311  14.709 -0.1910 -0.3345 -0.2281
 7447TIP3    H143756   2.273   3.333  14.728 -0.6251  0.0161  1.7317
 7447TIP3    H243757   2.186   3.226  14.664  1.0534 -1.2881  1.5560
 7448TIP3   OH243758   6.341   6.188  11.387 -0.3924 -0.1751 -0.3470
 7448TIP3    H143759   6.335   6.106  11.337 -0.8215 -1.1205  1.2083
 7448TIP3    H243760   6.427   6.223  11.363  1.0856 -2.5265  1.0357
 7449TIP3   OH243761   3.786   1.312   2.852 -0.2169  0.0399  0.6401
 7449TIP3    H143762   3.845   1.345   2.919 -1.7656  0.6148  1.7940
 7449TIP3    H243763   3.758   1.390   2.804 -1.7377  0.1167  1.5764
 7450TIP3   OH243764   6.266   5.929  15.923 -0.2772  0.4513 -0.4551
 7450TIP3    H143765   6.240   5.837  15.933 -1.9949  0.9480  0.2030
 7450TIP3    H243766   6.258   5.965  16.012  1.0886  1.0907 -0.5673
 7451TIP3   OH243767   6.163   5.237   5.796 -0.4644  0.0271 -0.2099
 7451TIP3    H143768   6.243   5.289   5.783 -0.1998  0.0748  1.3986
 7451TIP3    H243769   6.113   5.286   5.861 -1.3209 -0.5455 -0.4222
 7452TIP3   OH243770   1.168   5.904  14.315 -0.9080  0.1704 -0.4139
 7452TIP3    H143771   1.147   5.913  14.408  1.6426 -0.3175  0.2876
 7452TIP3    H243772   1.104   5.960  14.271 -1.6003  1.1776  1.6937
 7453TIP3   OH243773   1.845   6.483  16.157 -0.6039  0.1432  0.9755
 7453TIP3    H143774   1.849   6.532  16.076 -1.0256 -0.7888  0.3696
 7453TIP3    H243775   1.754   6.451  16.162 -0.5123 -0.0434  1.6688
 7454TIP3   OH243776   3.214   4.196   5.841  0.6188  0.3645 -0.7095
 7454TIP3    H143777   3.178   4.171   5.926  1.3366 -0.5979 -0.6746
 7454TIP3    H243778   3.238   4.288   5.852 -1.1402  0.8496 -0.5227
 7455TIP3   OH243779   5.853   3.173  15.385 -0.1457 -0.2460 -0.5968
 7455TIP3    H143780   5.916   3.180  15.456 -1.3005 -1.2494  0.5791
 7455TIP3    H243781   5.870   3.088  15.345 -0.3084 -0.2193 -0.7271
 7456TIP3   OH243782   0.855   1.673  12.665 -0.5338  0.3033 -0.0511
 7456TIP3    H143783   0.825   1.757  12.630  1.9696  0.5624 -1.8552
 7456TIP3    H243784   0.882   1.693  12.754 -1.8015  0.9240  0.2233
 7457TIP3   OH243785   4.195   2.193  12.399  0.5095  0.3287  0.0055
 7457TIP3    H143786   4.150   2.196  12.315  0.1409  2.3556  0.2288
 7457TIP3    H243787   4.286   2.173  12.377  0.2196 -0.2057 -0.7626
 7458TIP3   OH243788   4.557   1.121   2.450  0.2106  0.9166  0.1864
 7458TIP3    H143789   4.525   1.184   2.385  1.3579  1.6286  0.2875
 7458TIP3    H243790   4.541   1.164   2.534 -0.8116  0.2081  0.3719
 7459TIP3   OH243791   3.855   0.270   5.264  0.7797 -0.0124  0.6881
 7459TIP3    H143792   3.827   0.216   5.338  0.2501 -0.5418  0.1057
 7459TIP3    H243793   3.940   0.304   5.292  1.7659 -2.1837  0.5692
 7460TIP3   OH243794   4.498   0.782  14.000  0.2855 -0.1590 -0.2236
 7460TIP3    H143795   4.591   0.797  13.984  0.0185 -0.2406 -1.9997
 7460TIP3    H243796   4.453   0.834  13.934 -0.8877 -1.5920 -0.6152
 7461TIP3   OH243797   6.471   1.705   4.228 -0.2773 -0.4291 -0.0249
 7461TIP3    H143798   6.551   1.754   4.210  0.8196 -2.0018  0.3809
 7461TIP3    H243799   6.475   1.684   4.321 -1.4990  0.0050  0.1517
 7462TIP3   OH243800   6.518   1.865  14.000  0.5182 -0.1497  0.8849
 7462TIP3    H143801   6.450   1.860  14.066 -0.6323 -2.0034 -0.3397
 7462TIP3    H243802   6.558   1.778  14.000 -0.1763 -0.5389 -1.4684
 7463TIP3   OH243803   5.359   6.189   1.502 -0.0464 -0.4936  0.1690
 7463TIP3    H143804   5.341   6.234   1.585 -0.6212 -1.6373  0.6835
 7463TIP3    H243805   5.451   6.163   1.509  0.1231  0.0612  0.1143
 7464TIP3   OH243806   0.992   0.909   6.165  0.5573  0.4129 -0.0969
 7464TIP3    H143807   0.956   0.894   6.078  0.6573 -0.2930 -0.0294
 7464TIP3    H243808   1.049   0.985   6.156 -1.2682  1.8339 -0.1003
 7465TIP3   OH243809   2.334   6.640  16.326 -0.3964  0.2076 -0.3531
 7465TIP3    H143810   2.287   6.603  16.401  0.1921  1.1968  0.5383
 7465TIP3    H243811   2.312   6.582  16.253  0.1464 -1.6573  0.8722
 7466TIP3   OH243812   3.741   2.392  13.354 -0.8976 -0.2298 -0.6392
 7466TIP3    H143813   3.701   2.305  13.359 -3.8826  1.0833  1.0872
 7466TIP3    H243814   3.814   2.389  13.415 -1.6776 -1.2406  0.2810
 7467TIP3   OH243815   1.159   1.809  13.106  0.1059 -0.0176 -0.8657
 7467TIP3    H143816   1.198   1.810  13.194  1.0914 -2.2756 -1.2098
 7467TIP3    H243817   1.205   1.879  13.059  2.3612 -1.2299 -0.6341
 7468TIP3   OH243818   1.371   0.897   0.575  0.3400 -0.1698 -0.5563
 7468TIP3    H143819   1.466   0.904   0.575  0.4504 -1.4147 -0.5108
 7468TIP3    H243820   1.350   0.849   0.655 -0.2480 -0.6780 -1.0036
 7469TIP3   OH243821   4.888   1.426   4.540  0.5210  0.1575  0.3393
 7469TIP3    H143822   4.938   1.362   4.590 -1.8945 -1.1817  1.1906
 7469TIP3    H243823   4.882   1.503   4.597  1.3717  0.2580  0.3072
 7470TIP3   OH243824   5.061   3.489  17.194  0.1527  0.0662 -0.2103
 7470TIP3    H143825   5.082   3.580  17.177 -2.1764  0.6349 -0.3576
 7470TIP3    H243826   5.033   3.487  17.286 -0.2576 -0.3965 -0.3366
 7471TIP3   OH243827   4.549   3.868   3.534 -0.5722 -0.5300 -0.7977
 7471TIP3    H143828   4.531   3.891   3.625  2.9330  0.8626 -0.3264
 7471TIP3    H243829   4.621   3.805   3.538  1.7106  1.7667 -2.5624
 7472TIP3   OH243830   4.659   5.153  15.286 -0.7323 -0.2418  0.0664
 7472TIP3    H143831   4.581   5.170  15.339 -1.0273  0.5091 -0.6041
 7472TIP3    H243832   4.681   5.062  15.305 -0.9942 -0.0711  1.2677
 7473TIP3   OH243833   2.037   2.890   1.210 -0.2571 -0.2062 -0.1655
 7473TIP3    H143834   1.972   2.846   1.265 -1.1395 -1.0240 -1.7768
 7473TIP3    H243835   2.080   2.820   1.162  0.7056  0.4602 -0.3156
 7474TIP3   OH243836   4.423   3.840  14.485  0.1453 -0.2000 -0.2782
 7474TIP3    H143837   4.479   3.762  14.476  1.3744  0.7783 -1.4804
 7474TIP3    H243838   4.483   3.914  14.475 -1.0125  0.9206  0.7576
 7475TIP3   OH243839   0.135   1.110   5.532 -0.2736 -0.5871 -0.6615
 7475TIP3    H143840   0.210   1.053   5.514 -1.1743 -1.5027 -1.6773
 7475TIP3    H243841   0.064   1.049   5.553 -0.6823  0.2776  0.5643
 7476TIP3   OH243842   5.337   0.081  16.740 -0.5299  0.4574 -0.2028
 7476TIP3    H143843   5.421   0.073  16.694 -0.8003  0.2010 -0.6573
 7476TIP3    H243844   5.361   0.079  16.833  0.0010  0.7753 -0.3284
 7477TIP3   OH243845   5.868   1.133   3.128  0.1303 -0.1367 -0.4179
 7477TIP3    H143846   5.952   1.123   3.174 -0.3345  1.0972  0.7930
 7477TIP3    H243847   5.887   1.109   3.038  1.7510 -0.0438 -0.1363
 7478TIP3   OH243848   1.299   4.654  13.217  0.4781 -0.2597 -0.1036
 7478TIP3    H143849   1.251   4.584  13.262  0.2543  0.2925  0.5339
 7478TIP3    H243850   1.325   4.714  13.287 -0.2342  0.8295 -0.7511
 7479TIP3   OH243851   3.843   1.120   3.148  0.0056  0.7677  0.4191
 7479TIP3    H143852   3.835   1.103   3.242  1.8551 -0.6104  0.3851
 7479TIP3    H243853   3.825   1.213   3.139 -2.3692  0.5294  1.8108
 7480TIP3   OH243854   6.687   5.856  13.099  0.1304 -0.1266  0.2944
 7480TIP3    H143855   6.659   5.877  13.188 -0.3901 -1.5083  0.4749
 7480TIP3    H243856   6.774   5.817  13.110  0.2453  0.0862  0.1495
 7481TIP3   OH243857   4.927   6.486  12.813  0.2537 -0.0948  0.2113
 7481TIP3    H143858   4.848   6.453  12.856  0.0416  0.4322  0.2316
 7481TIP3    H243859   4.913   6.580  12.807  0.3678 -0.1287 -0.8340
 7482TIP3   OH243860   2.421   4.344  13.440 -0.2709  0.1756 -0.8281
 7482TIP3    H143861   2.455   4.424  13.399 -0.6121 -0.1526 -1.7728
 7482TIP3    H243862   2.467   4.339  13.524  0.5229  0.8142 -1.2088
 7483TIP3   OH243863   4.512   6.060  16.781 -0.1190  0.3930 -0.0930
 7483TIP3    H143864   4.474   6.055  16.693 -0.9827  1.6337  0.1854
 7483TIP3    H243865   4.604   6.036  16.769 -0.6644 -1.4475 -0.9962
 7484TIP3   OH243866   3.648   1.893  14.317 -0.5827  0.4606 -0.7307
 7484TIP3    H143867   3.623   1.976  14.358  1.4952 -1.0649  4.4213
 7484TIP3    H243868   3.565   1.848  14.301 -1.6259  1.7852  0.6902
 7485TIP3   OH243869   0.418   5.537   1.539 -0.4391 -0.4989  0.2858
 7485TIP3    H143870   0.424   5.442   1.532  1.1801 -0.3657 -0.6521
 7485TIP3    H243871   0.325   5.555   1.544 -0.8388 -2.0636 -0.8279
 7486TIP3   OH243872   4.441   3.402   0.660  0.1454 -0.2708 -0.6112
 7486TIP3    H143873   4.419   3.379   0.569 -3.8395  1.5546 -0.3655
 7486TIP3    H243874   4.394   3.484   0.675  1.8467  0.2623  2.7331
 7487TIP3   OH243875   4.330   4.616   3.487 -0.6438 -0.2747 -0.2032
 7487TIP3    H143876   4.360   4.632   3.398 -0.6332 -0.7369 -0.2860
 7487TIP3    H243877   4.386   4.544   3.519 -2.2571 -1.8262 -0.6896
 7488TIP3   OH243878   0.853   0.006  15.341 -0.5434 -0.5161  0.6286
 7488TIP3    H143879   0.844   0.018  15.246  0.6261  0.8251  0.6589
 7488TIP3    H243880   0.787  -0.060  15.363 -0.9940 -0.6783 -1.0784
 7489TIP3   OH243881   6.741   4.152   1.921  1.2181 -0.4762 -0.3117
 7489TIP3    H143882   6.761   4.153   1.827 -0.6619  0.2101 -0.7493
 7489TIP3    H243883   6.794   4.223   1.957  0.5026  0.5612 -1.2189
 7490TIP3   OH243884   2.540   2.741  13.078 -0.4526  0.5572  0.1010
 7490TIP3    H143885   2.522   2.805  13.010  0.0023  2.3413  1.5824
 7490TIP3    H243886   2.548   2.793  13.158 -1.1517 -1.4622  1.5617
 7491TIP3   OH243887   5.159   4.538   4.000 -0.1469  0.0266 -0.1572
 7491TIP3    H143888   5.155   4.513   4.093  2.1962  0.7671  0.2057
 7491TIP3    H243889   5.072   4.575   3.982 -0.1137  1.5392  2.2727
 7492TIP3   OH243890   0.279   6.195  16.025 -0.2024  0.0892  0.1929
 7492TIP3    H143891   0.338   6.196  16.100 -3.0878 -3.0808  2.9027
 7492TIP3    H243892   0.201   6.242  16.056 -0.4460  1.2531 -1.9967
 7493TIP3   OH243893   5.366   3.561   4.235 -0.0735  0.5118  0.7623
 7493TIP3    H143894   5.353   3.513   4.317  2.8158  0.1163  1.0863
 7493TIP3    H243895   5.363   3.494   4.167  0.1236  0.4488  0.8155
 7494TIP3   OH243896   5.787   3.064  13.884 -0.2383 -0.7203  0.2192
 7494TIP3    H143897   5.734   3.086  13.808 -0.9925 -1.4524  0.5142
 7494TIP3    H243898   5.755   3.121  13.954 -0.5721 -1.0829  0.3673
 7495TIP3   OH243899   2.157   2.563  13.499 -0.3442  0.3680 -0.4290
 7495TIP3    H143900   2.215   2.495  13.533  0.1519  0.3159 -1.3406
 7495TIP3    H243901   2.089   2.573  13.566  0.1214 -0.3305  0.1594
 7496TIP3   OH243902   2.982   0.834   5.305  0.0310 -0.1036 -0.4286
 7496TIP3    H143903   2.901   0.859   5.349 -0.4205 -0.6331 -0.9460
 7496TIP3    H243904   3.002   0.747   5.337  1.4347  0.7364  1.1246
 7497TIP3   OH243905   4.723   4.294  12.423  0.5594 -0.2232  0.7465
 7497TIP3    H143906   4.692   4.205  12.439 -0.1129 -0.4834 -1.6818
 7497TIP3    H243907   4.646   4.349  12.435  0.0725 -0.4105 -1.2180
 7498TIP3   OH243908   2.107   4.159  15.247 -0.4256 -0.1080  0.4266
 7498TIP3    H143909   2.175   4.215  15.210 -0.6844 -0.7709 -1.1276
 7498TIP3    H243910   2.153   4.109  15.315  0.6197 -0.3952 -0.4541
 7499TIP3   OH243911   4.835   1.128  14.136 -0.2225 -0.0111 -0.5335
 7499TIP3    H143912   4.820   1.114  14.229  0.2809  0.5145 -0.3728
 7499TIP3    H243913   4.748   1.141  14.099 -0.5660 -1.6536 -0.3873
 7500TIP3   OH243914   5.301   4.582  16.160  0.3256 -0.2675  0.1160
 7500TIP3    H143915   5.213   4.550  16.138  0.3167  1.1929 -2.2919
 7500TIP3    H243916   5.356   4.550  16.088  0.8046  2.7547 -0.9925
 7501TIP3   OH243917   5.518   5.804  11.083  0.2085  0.1089 -0.2723
 7501TIP3    H143918   5.434   5.839  11.052  0.8855  1.1175 -1.0138
 7501TIP3    H243919   5.543   5.740  11.016  0.2750  0.1729 -0.3083
 7502TIP3   OH243920   2.640   0.674  14.517 -0.0843  0.4525  0.5022
 7502TIP3    H143921   2.633   0.629  14.433  3.4518  1.6362 -0.5850
 7502TIP3    H243922   2.643   0.604  14.582  0.2399 -0.6540 -0.6763
 7503TIP3   OH243923   4.969   5.669   0.177 -0.4176  0.0882  0.3111
 7503TIP3    H143924   4.953   5.736   0.243  2.2006  1.5582 -0.4154
 7503TIP3    H243925   5.063   5.672   0.161 -0.6315 -1.7661 -1.8826
 7504TIP3   OH243926   0.528   6.177  14.302  0.7229  0.1143 -0.1474
 7504TIP3    H143927   0.503   6.089  14.330 -0.5585  0.5269  0.0692
 7504TIP3    H243928   0.474   6.193  14.225  1.7315  0.3162 -0.8395
 7505TIP3   OH243929   2.518   4.425   1.095  0.3575 -0.0521 -0.9841
 7505TIP3    H143930   2.574   4.450   1.168 -2.2936  1.6077  0.6701
 7505TIP3    H243931   2.461   4.356   1.130  0.6697 -1.0265 -2.2982
 7506TIP3   OH243932   0.938   5.232   4.715  0.2499 -0.1510  0.7994
 7506TIP3    H143933   0.889   5.152   4.695 -1.1963  1.1848 -1.3709
 7506TIP3    H243934   0.922   5.247   4.808  0.8020 -2.4977  1.3441
 7507TIP3   OH243935   0.438   6.006   0.255 -0.6513 -0.2182 -0.3106
 7507TIP3    H143936   0.357   6.056   0.273 -1.3296 -0.5584 -2.1898
 7507TIP3    H243937   0.459   6.028   0.164  1.3440 -0.2250  0.1203
 7508TIP3   OH243938   3.461   3.951   1.763 -0.4620  0.2898 -0.1203
 7508TIP3    H143939   3.488   3.924   1.675 -0.7893  0.3225 -0.2326
 7508TIP3    H243940   3.538   3.936   1.818 -0.1629  0.5398 -0.4679
 7509TIP3   OH243941   4.715   5.098   2.233 -0.3275  0.5205  0.2798
 7509TIP3    H143942   4.654   5.137   2.171 -0.7808 -0.9509 -0.2275
 7509TIP3    H243943   4.802   5.122   2.200 -0.5865  0.5346 -0.3856
 7510TIP3   OH243944   6.667   2.087   0.835  0.1710  0.5396  0.2356
 7510TIP3    H143945   6.582   2.046   0.854  0.5802 -0.8977 -0.8350
 7510TIP3    H243946   6.704   2.107   0.921  0.0604 -1.6535  0.8567
 7511TIP3   OH243947   5.295   1.921  17.114  0.1677 -0.0181  0.1965
 7511TIP3    H143948   5.240   2.000  17.110 -1.0573 -0.8679 -0.1518
 7511TIP3    H243949   5.280   1.886  17.202 -0.9225 -0.9691 -0.3364
 7512TIP3   OH243950   5.610   1.019   5.275 -0.2417  0.9423  0.0302
 7512TIP3    H143951   5.542   1.052   5.216 -0.7715 -0.3143 -0.1019
 7512TIP3    H243952   5.691   1.055   5.241 -0.6321  0.8556 -1.0279
 7513TIP3   OH243953   6.174   6.760   3.099  0.8469 -0.0528 -0.3431
 7513TIP3    H143954   6.252   6.756   3.153 -0.7152 -1.7449  2.0014
 7513TIP3    H243955   6.115   6.818   3.147 -0.1857 -0.7196 -0.7592
 7514TIP3   OH243956   4.909   6.715  15.358  0.2729 -0.3179  0.1106
 7514TIP3    H143957   5.004   6.709  15.351  0.2289 -2.1559  0.4775
 7514TIP3    H243958   4.890   6.689  15.449 -0.5177  1.2526  0.4322
 7515TIP3   OH243959   4.965   0.601  15.430 -0.5273 -0.4413 -0.3121
 7515TIP3    H143960   4.970   0.676  15.370  1.2526  0.3644  0.7541
 7515TIP3    H243961   5.012   0.531  15.384 -1.0878 -0.5194 -0.7761
 7516TIP3   OH243962   6.003   4.983  11.425 -0.3815  0.3050  0.1991
 7516TIP3    H143963   5.919   4.977  11.380 -0.4523 -0.1412  0.3836
 7516TIP3    H243964   6.048   4.902  11.402  1.2997  1.8205 -2.4300
 7517TIP3   OH243965   3.006   2.751  16.566 -0.7303 -0.2892  0.2507
 7517TIP3    H143966   2.929   2.707  16.530 -0.2119 -1.3252  0.3525
 7517TIP3    H243967   3.066   2.758  16.493 -0.1953 -1.1890  0.5946
 7518TIP3   OH243968   3.786   2.845  14.904 -0.5122  0.4903 -0.6294
 7518TIP3    H143969   3.732   2.826  14.827 -0.0282 -0.3674 -0.7687
 7518TIP3    H243970   3.872   2.808  14.882  0.3064  2.2832 -0.6401
 7519TIP3   OH243971   4.425   1.620   4.327  0.3928 -0.1334  0.3166
 7519TIP3    H143972   4.489   1.682   4.292  1.3141 -1.4003 -0.3122
 7519TIP3    H243973   4.357   1.676   4.365  1.0691  1.2611 -0.4245
 7520TIP3   OH243974   5.110   0.038  12.449 -0.1898 -0.0475 -0.0051
 7520TIP3    H143975   5.133   0.111  12.392  1.1902 -0.3910  0.0618
 7520TIP3    H243976   5.154   0.057  12.532  1.0435 -1.3910 -0.2891
 7521TIP3   OH243977   2.249   6.342   4.120  0.2762 -0.1508 -0.1805
 7521TIP3    H143978   2.194   6.264   4.123 -0.6453  0.5016  0.1388
 7521TIP3    H243979   2.252   6.374   4.210  0.7451  0.1294 -0.2887
 7522TIP3   OH243980   2.253   4.175   1.009 -0.7199 -0.6715 -0.0948
 7522TIP3    H143981   2.159   4.195   1.004 -0.9788 -1.7808  0.1729
 7522TIP3    H243982   2.280   4.210   1.094 -0.9966 -0.7623  0.0333
 7523TIP3   OH243983   3.569   0.548  14.603 -0.3132 -0.0614  0.5783
 7523TIP3    H143984   3.585   0.578  14.693 -4.3278 -1.0128  1.8205
 7523TIP3    H243985   3.555   0.629  14.554 -1.3855  0.4548  1.6608
 7524TIP3   OH243986   1.840   1.420  10.907 -0.9909  0.1539 -0.0779
 7524TIP3    H143987   1.921   1.469  10.917 -0.8429  0.4965 -2.4683
 7524TIP3    H243988   1.857   1.358  10.836 -2.4029 -0.6844  0.2700
 7525TIP3   OH243989   0.249   3.790   4.755  0.1632 -0.2730 -0.4671
 7525TIP3    H143990   0.208   3.724   4.699  1.1755 -1.6328  0.3708
 7525TIP3    H243991   0.311   3.742   4.808  3.2883  1.7470 -2.0138
 7526TIP3   OH243992   4.034   4.910  15.757 -0.3637 -0.2021 -0.1911
 7526TIP3    H143993   4.086   4.934  15.833 -0.7748  0.2421 -0.0469
 7526TIP3    H243994   3.988   4.830  15.783 -2.1452  1.0612  0.8324
 7527TIP3   OH243995   0.608   5.996   2.133  0.7247 -0.6688 -0.2633
 7527TIP3    H143996   0.703   5.992   2.130  0.7043 -0.5595 -2.0393
 7527TIP3    H243997   0.580   5.992   2.041 -0.8554  2.2205 -0.0421
 7528TIP3   OH243998   0.522   4.812  16.483 -0.0937  0.3973 -0.5626
 7528TIP3    H143999   0.496   4.721  16.470  0.2650 -0.0936  1.7627
 7528TIP3    H244000   0.501   4.831  16.575  0.7703  2.3463 -0.7056
 7529TIP3   OH244001   2.895   1.561  15.492 -0.4942  0.4713 -0.1435
 7529TIP3    H144002   2.949   1.627  15.535 -0.8842  1.5898 -1.2858
 7529TIP3    H244003   2.893   1.588  15.400 -0.2264 -1.4492 -0.7722
 7530TIP3   OH244004   6.204   4.610   6.123  0.4432  0.1285 -0.0433
 7530TIP3    H144005   6.211   4.698   6.087 -0.9432 -0.5422 -2.1391
 7530TIP3    H244006   6.151   4.562   6.059  1.7775 -2.4354  0.6385
 7531TIP3   OH244007   4.858   3.463  10.291  0.9155 -0.0401  0.4214
 7531TIP3    H144008   4.850   3.499  10.202  2.8631  1.3655  0.7491
 7531TIP3    H244009   4.952   3.458  10.306  0.7378 -3.3426  1.2664
 7532TIP3   OH244010   0.937   6.551  13.356 -0.5203 -0.4668 -0.0881
 7532TIP3    H144011   0.935   6.471  13.409 -1.9561 -0.6992 -0.4432
 7532TIP3    H244012   0.902   6.524  13.271  1.0723  0.0625 -0.9482
 7533TIP3   OH244013   0.837   2.013  10.999 -0.5600 -0.1355  0.3410
 7533TIP3    H144014   0.772   2.022  11.068  0.3309  1.8452  0.9864
 7533TIP3    H244015   0.811   2.077  10.932  1.3278  1.6243  1.1764
 7534TIP3   OH244016   1.684   5.213  10.869  0.2677 -0.3888  0.5084
 7534TIP3    H144017   1.682   5.135  10.925 -0.7214 -0.1878  0.7754
 7534TIP3    H244018   1.646   5.282  10.923  0.9536  0.2367  0.2015
 7535TIP3   OH244019   5.817   6.535  12.601  0.7487  0.1888 -0.0874
 7535TIP3    H144020   5.754   6.605  12.586  1.4898  1.0659  0.7856
 7535TIP3    H244021   5.765   6.462  12.634 -0.0693  0.2189 -1.2556
 7536TIP3   OH244022   2.904   0.288   5.370  0.5507 -0.2742 -0.1675
 7536TIP3    H144023   2.928   0.324   5.456 -1.1510  1.2151 -0.2636
 7536TIP3    H244024   2.921   0.194   5.378  1.5009 -0.0087  1.4025
 7537TIP3   OH244025   1.747   2.350  14.437  0.2120  0.3311  0.6368
 7537TIP3    H144026   1.665   2.303  14.453 -1.2855  2.1787 -0.9965
 7537TIP3    H244027   1.775   2.320  14.350  0.6416  0.5579  0.6955
 7538TIP3   OH244028   1.739   2.602  10.549  0.1442 -0.6919  0.3409
 7538TIP3    H144029   1.776   2.517  10.525  1.0325 -0.4033  0.6276
 7538TIP3    H244030   1.815   2.660  10.555 -0.3587 -0.0772  0.9841
 7539TIP3   OH244031   6.306   1.600  15.844  0.0052  0.4228  0.0907
 7539TIP3    H144032   6.211   1.590  15.842  0.0732 -0.2339 -1.6944
 7539TIP3    H244033   6.325   1.661  15.773  0.8502  1.6341  1.2906
 7540TIP3   OH244034   4.012   1.801   3.801 -0.2488  0.2472  0.1797
 7540TIP3    H144035   3.997   1.805   3.896  0.1646  0.7247  0.2271
 7540TIP3    H244036   4.107   1.801   3.792 -0.2396 -1.4246 -0.1797
 7541TIP3   OH244037   1.771   1.893   4.809 -0.5457 -0.3630 -0.0989
 7541TIP3    H144038   1.710   1.821   4.792 -0.7836 -0.3178  0.5383
 7541TIP3    H244039   1.829   1.894   4.733  0.1584 -1.9494  0.3762
 7542TIP3   OH244040   4.214   3.539   1.771  0.1537 -0.0861 -0.0082
 7542TIP3    H144041   4.306   3.518   1.789 -0.0079 -0.6062  0.2369
 7542TIP3    H244042   4.171   3.531   1.856 -0.7176 -3.0533 -0.6121
 7543TIP3   OH244043   5.834   3.840   5.861 -0.3846  0.4163  0.3510
 7543TIP3    H144044   5.897   3.895   5.813 -0.5378  1.0110  0.8200
 7543TIP3    H244045   5.888   3.776   5.907 -0.2125  0.0811 -0.3062
 7544TIP3   OH244046   4.626   3.648  15.411 -0.1738  0.8144  0.1430
 7544TIP3    H144047   4.695   3.600  15.457 -0.0217  1.2403  0.3751
 7544TIP3    H244048   4.588   3.704  15.479 -1.1024  0.2024  0.1340
 7545TIP3   OH244049   3.390   1.186  14.833  0.0181  0.7169 -0.7729
 7545TIP3    H144050   3.436   1.146  14.907 -0.5716  0.8336 -0.3379
 7545TIP3    H244051   3.334   1.116  14.799 -1.3399  1.2484  0.2573
 7546TIP3   OH244052   4.857   2.705   5.576  0.3325  0.2722 -0.4641
 7546TIP3    H144053   4.837   2.733   5.665 -0.0391 -0.5298 -0.2913
 7546TIP3    H244054   4.834   2.612   5.573  0.3767  0.2739 -1.3808
 7547TIP3   OH244055   4.539   2.101  11.116 -0.1917 -0.6240  0.1334
 7547TIP3    H144056   4.508   2.066  11.200  0.0799 -0.0782  0.4641
 7547TIP3    H244057   4.488   2.053  11.050 -1.5223  0.0143  0.6509
 7548TIP3   OH244058   0.890   4.708  15.100  0.3971 -0.5004  0.1360
 7548TIP3    H144059   0.918   4.661  15.022  2.3927  0.9324 -0.0667
 7548TIP3    H244060   0.822   4.768  15.069  0.2527 -0.8419 -0.2249
 7549TIP3   OH244061   3.806   3.214   4.097 -0.4567  0.9535  0.5848
 7549TIP3    H144062   3.783   3.300   4.131 -1.4658  0.5315  1.0098
 7549TIP3    H244063   3.723   3.178   4.064  0.0356  0.3363 -0.0120
 7550TIP3   OH244064   5.530   2.200   0.868 -0.2818 -0.0463 -0.7689
 7550TIP3    H144065   5.550   2.123   0.815 -0.4039 -0.0818 -0.7622
 7550TIP3    H244066   5.535   2.169   0.958 -0.3871 -0.0598 -0.7676
 7551TIP3   OH244067   2.481   5.798  16.521 -0.3454 -0.2047 -0.2504
 7551TIP3    H144068   2.421   5.854  16.570  0.6687  1.1152 -0.4458
 7551TIP3    H244069   2.568   5.822  16.554  0.0897 -2.2504  0.2102
 7552TIP3   OH244070   4.370   6.613  17.026 -0.2574 -0.4816  0.0633
 7552TIP3    H144071   4.412   6.684  17.076 -0.3438 -0.0594 -0.4506
 7552TIP3    H244072   4.424   6.604  16.948 -1.3983  0.4353 -0.8699
 7553TIP3   OH244073   1.639   4.574  15.616  0.1185 -0.1381  0.5722
 7553TIP3    H144074   1.683   4.491  15.635  0.0460  0.0139  1.4438
 7553TIP3    H244075   1.703   4.624  15.565 -0.2611 -1.1578 -0.9856
 7554TIP3   OH244076   4.412   1.413   5.744  0.4419 -0.5065 -0.6160
 7554TIP3    H144077   4.345   1.351   5.772  0.8104  0.0959  1.7582
 7554TIP3    H244078   4.483   1.357   5.711  0.3450 -1.3171  0.5049
 7555TIP3   OH244079   4.097   3.059   0.192  0.1570  0.0710  0.0681
 7555TIP3    H144080   4.166   3.033   0.252  0.5901  2.4414  0.7097
 7555TIP3    H244081   4.137   3.126   0.136 -1.5978  1.6540  0.5806
 7556TIP3   OH244082   0.473   4.602  14.255 -0.2113 -0.4453 -0.0931
 7556TIP3    H144083   0.536   4.672  14.239 -1.3911  0.6668  0.0266
 7556TIP3    H244084   0.447   4.572  14.168 -0.4448 -0.0419 -0.1658
 7557TIP3   OH244085   4.106   0.804   5.753  0.0061  0.2131  0.1052
 7557TIP3    H144086   4.188   0.843   5.782 -0.5882  1.1064  0.6113
 7557TIP3    H244087   4.054   0.877   5.719 -0.5062 -0.3662 -0.4026
 7558TIP3   OH244088   3.935   4.152  13.814  0.0478 -0.0344  0.6409
 7558TIP3    H144089   3.969   4.233  13.851 -0.2509  0.5907 -0.4312
 7558TIP3    H244090   3.942   4.163  13.720  1.0127 -1.7028  0.4733
 7559TIP3   OH244091   2.098   0.628   3.065 -0.0735  0.1021  0.0465
 7559TIP3    H144092   2.142   0.672   2.992  1.0881  0.5798  1.0040
 7559TIP3    H244093   2.117   0.535   3.052  0.4363  0.2211 -0.0670
 7560TIP3   OH244094   2.190   5.650  14.744  0.5609 -0.3285  0.5279
 7560TIP3    H144095   2.202   5.716  14.813 -2.1053  0.1973  0.5726
 7560TIP3    H244096   2.130   5.586  14.782 -1.1632  0.1084 -1.3444
 7561TIP3   OH244097   1.588   3.943  11.849 -0.3518 -0.0194 -0.5578
 7561TIP3    H144098   1.520   4.000  11.813  0.9381  0.8317 -1.7340
 7561TIP3    H244099   1.595   3.969  11.941 -1.3752  0.0949 -0.5000
 7562TIP3   OH244100   1.176   2.079  10.317  0.2369  0.0984 -0.1777
 7562TIP3    H144101   1.141   2.157  10.360 -1.1476 -1.5241  1.8390
 7562TIP3    H244102   1.119   2.065  10.241  0.7291  1.2146 -0.7711
 7563TIP3   OH244103   2.756   0.103  11.371  0.1431 -0.5940 -0.4401
 7563TIP3    H144104   2.792   0.134  11.454  1.4183 -0.5446 -0.9862
 7563TIP3    H244105   2.803   0.153  11.304 -3.2128  1.8813 -1.2041
 7564TIP3   OH244106   4.242   5.306   6.203 -0.3375  0.2214 -0.0627
 7564TIP3    H144107   4.163   5.358   6.216  0.1589  1.1770 -0.8165
 7564TIP3    H244108   4.314   5.366   6.223  0.2787  0.1531 -1.9199
 7565TIP3   OH244109   4.876   0.258   3.542 -0.2090 -0.1040 -0.4364
 7565TIP3    H144110   4.964   0.230   3.566  0.5734 -0.3129 -3.2494
 7565TIP3    H244111   4.870   0.349   3.572  0.6165 -0.3659  0.5618
 7566TIP3   OH244112   5.852   5.839   1.184 -0.0977  0.3686 -0.3121
 7566TIP3    H144113   5.837   5.910   1.246  2.0709  1.1849 -0.6312
 7566TIP3    H244114   5.936   5.861   1.143 -1.0766 -0.5448 -2.9900
 7567TIP3   OH244115   3.254   4.134   2.245 -0.2970 -0.5046 -0.0066
 7567TIP3    H144116   3.314   4.184   2.300 -1.0909  2.0975 -1.3601
 7567TIP3    H244117   3.177   4.120   2.299 -0.6182  1.0204 -0.0404
 7568TIP3   OH244118   4.361   3.314   3.020 -0.1308  0.7312  0.2303
 7568TIP3    H144119   4.309   3.356   3.089 -1.2845 -0.4826  0.1461
 7568TIP3    H244120   4.300   3.253   2.979  1.3088 -0.5230 -0.0961
 7569TIP3   OH244121   5.217   6.183   5.909  0.9645 -0.0547 -0.1798
 7569TIP3    H144122   5.253   6.098   5.934 -0.1291 -0.5533 -0.2217
 7569TIP3    H244123   5.123   6.167   5.901  0.7055  1.2310  0.0975
 7570TIP3   OH244124   5.666   2.850   2.983 -0.3434 -0.1704  0.1198
 7570TIP3    H144125   5.736   2.883   3.039  0.5215  0.5794 -1.3176
 7570TIP3    H244126   5.613   2.928   2.962 -0.6726 -0.4389 -0.0555
 7571TIP3   OH244127   4.387   1.599  16.471 -0.4217 -0.0574 -0.5280
 7571TIP3    H144128   4.405   1.680  16.519 -1.2801  0.4830 -1.0963
 7571TIP3    H244129   4.406   1.621  16.379  1.8035 -1.2560 -0.4174
 7572TIP3   OH244130   2.795   3.931  12.857 -0.0947 -0.6300 -0.2849
 7572TIP3    H144131   2.876   3.914  12.905 -0.2338 -0.9845 -0.1705
 7572TIP3    H244132   2.823   3.980  12.780 -0.1462  2.2945  1.4093
 7573TIP3   OH244133   4.322   2.388  15.469 -0.2481  0.2135  0.3735
 7573TIP3    H144134   4.306   2.477  15.436 -1.1241  0.1606  0.6522
 7573TIP3    H244135   4.291   2.390  15.559  0.8627 -0.0384  0.7871
 7574TIP3   OH244136   1.041   3.515  12.255 -0.0049 -0.4022  0.2038
 7574TIP3    H144137   1.080   3.560  12.180 -0.2391 -0.2133  0.1951
 7574TIP3    H244138   1.105   3.528  12.325 -0.3088  0.4054  0.3469
 7575TIP3   OH244139   5.429   2.026   4.666  0.0077  0.8418 -0.5960
 7575TIP3    H144140   5.410   2.057   4.754  1.9970 -0.6863  0.4662
 7575TIP3    H244141   5.351   1.977   4.640 -0.0919  0.1200  0.9330
 7576TIP3   OH244142   2.642   2.858  15.957  0.7686  0.5477  0.3922
 7576TIP3    H144143   2.638   2.826  15.866  0.5296  1.3536  0.1052
 7576TIP3    H244144   2.679   2.945  15.949 -2.4589  2.1063  0.6367
 7577TIP3   OH244145   4.434   4.329   3.719  0.6231 -0.0098 -0.3796
 7577TIP3    H144146   4.524   4.296   3.715  0.8884  0.2374  2.0365
 7577TIP3    H244147   4.414   4.334   3.812 -1.2742  1.6696 -0.7916
 7578TIP3   OH244148   5.149   2.355   0.096 -0.6122 -0.2115  0.2876
 7578TIP3    H144149   5.226   2.409   0.117 -0.2977 -0.1563 -0.9151
 7578TIP3    H244150   5.092   2.364   0.172  1.5912 -2.2000  2.3443
 7579TIP3   OH244151   2.856   1.983   0.610  0.0027  0.0696 -0.5475
 7579TIP3    H144152   2.848   1.935   0.528  0.8101  0.9971 -1.2007
 7579TIP3    H244153   2.826   2.072   0.589  0.6543  0.4354  0.0243
 7580TIP3   OH244154   1.952   6.074   5.510 -0.1058 -0.1932  0.0587
 7580TIP3    H144155   2.023   6.062   5.446 -0.2732  1.6258 -0.5387
 7580TIP3    H244156   1.994   6.062   5.595  0.1235 -2.6877 -0.3214
 7581TIP3   OH244157   5.098   4.446  12.318 -0.0758  0.2314  0.4151
 7581TIP3    H144158   5.003   4.441  12.327 -0.1113  0.3474  0.1187
 7581TIP3    H244159   5.119   4.538  12.336  0.3854 -0.4417  4.0999
 7582TIP3   OH244160   1.501   6.124   4.032 -0.4652 -0.0166  0.0605
 7582TIP3    H144161   1.437   6.102   4.100 -1.3490  2.1913  0.0185
 7582TIP3    H244162   1.536   6.209   4.059 -1.6922  1.5295 -2.7798
 7583TIP3   OH244163   0.246   0.424   0.272  0.7250  0.3651 -0.3679
 7583TIP3    H144164   0.177   0.364   0.299 -0.4874  0.9500 -1.9897
 7583TIP3    H244165   0.201   0.494   0.225  2.2683  1.6891  0.0282
 7584TIP3   OH244166   1.180   2.671  11.353  0.0696  0.2421  0.2074
 7584TIP3    H144167   1.098   2.681  11.305  0.0862  2.9898  0.6165
 7584TIP3    H244168   1.157   2.687  11.444  0.5560 -2.1039  0.8087
 7585TIP3   OH244169   2.353   4.167  11.270 -0.0911 -0.0850 -0.5161
 7585TIP3    H144170   2.351   4.121  11.354  0.2158  0.0430 -0.4384
 7585TIP3    H244171   2.446   4.174  11.249 -0.1101  0.8720 -0.3235
 7586TIP3   OH244172   3.352   6.474   4.709 -0.3015 -0.1321  0.4403
 7586TIP3    H144173   3.439   6.476   4.671 -0.7972 -1.2157 -0.8293
 7586TIP3    H244174   3.293   6.490   4.636 -1.3019 -2.4893  0.6148
 7587TIP3   OH244175   5.213   4.041  13.700  0.1138  0.1633  0.2927
 7587TIP3    H144176   5.161   4.059  13.622  0.5978  1.3149  0.2133
 7587TIP3    H244177   5.264   4.121  13.714  1.6874 -0.8225  0.4966
 7588TIP3   OH244178   2.253   0.139  13.753  0.1640  0.1720  0.6584
 7588TIP3    H144179   2.336   0.185  13.751  0.9969 -1.2943  0.0778
 7588TIP3    H244180   2.206   0.177  13.828  1.1163  1.3781  0.6657
 7589TIP3   OH244181   5.299   4.038   1.781  0.1244 -1.1021 -0.4183
 7589TIP3    H144182   5.325   3.956   1.823  0.6583 -0.6458  0.1675
 7589TIP3    H244183   5.246   4.082   1.847  3.0442  0.7781  0.8839
 7590TIP3   OH244184   6.391   0.751  13.541 -0.4615  0.6578  0.2097
 7590TIP3    H144185   6.412   0.764  13.633  0.3822  1.3000 -0.0614
 7590TIP3    H244186   6.368   0.838  13.509 -1.4754  0.3212 -0.0265
 7591TIP3   OH244187   5.359   6.278  15.598 -0.0784  0.1163 -0.0840
 7591TIP3    H144188   5.329   6.228  15.522 -0.4996  1.9929 -1.2208
 7591TIP3    H244189   5.442   6.238  15.623  0.2191 -0.3620 -1.7389
 7592TIP3   OH244190   4.726   0.320  11.804  0.3482 -0.8746  0.5754
 7592TIP3    H144191   4.771   0.365  11.876 -1.0528  0.3985  0.7247
 7592TIP3    H244192   4.732   0.382  11.730  0.0703 -1.3048  0.1864
 7593TIP3   OH244193   1.810   2.914   1.801 -0.0112 -0.0124  0.0849
 7593TIP3    H144194   1.764   2.981   1.751 -2.3319 -1.7064 -0.2116
 7593TIP3    H244195   1.902   2.925   1.778 -0.5044  2.0393 -1.1398
 7594TIP3   OH244196   3.523   0.335   1.145 -0.1212  0.6068 -0.4339
 7594TIP3    H144197   3.480   0.261   1.101 -0.7408  0.2814  0.6871
 7594TIP3    H244198   3.457   0.404   1.144 -0.2182  0.5290  0.1475
 7595TIP3   OH244199   2.341   4.874   2.369  0.1448  0.1620 -0.1131
 7595TIP3    H144200   2.318   4.839   2.283  0.2626 -1.1460  0.3679
 7595TIP3    H244201   2.423   4.922   2.353 -1.1195  2.1260 -1.1932
 7596TIP3   OH244202   0.792   3.205   5.868 -0.1816  0.5219 -0.1948
 7596TIP3    H144203   0.748   3.269   5.924  0.6434  1.3157 -0.4280
 7596TIP3    H244204   0.823   3.138   5.929 -0.9758  0.3711  0.0620
 7597TIP3   OH244205   3.120   4.794  12.720  0.1201 -0.5554 -0.1679
 7597TIP3    H144206   3.134   4.751  12.805 -0.5719 -2.9574 -1.1748
 7597TIP3    H244207   3.188   4.758  12.663  0.0844  0.4255 -0.8519
 7598TIP3   OH244208   3.412   1.069   1.948  0.4310 -0.8197  0.0568
 7598TIP3    H144209   3.367   1.049   2.030  3.0156 -0.3724  1.6998
 7598TIP3    H244210   3.342   1.099   1.889 -1.6426 -2.0469  1.7392
 7599TIP3   OH244211   2.183   3.620  13.650 -0.1386  0.0648  0.1695
 7599TIP3    H144212   2.253   3.566  13.613 -0.5375 -1.3967  1.4297
 7599TIP3    H244213   2.130   3.647  13.575  0.3586 -0.8982 -0.5451
 7600TIP3   OH244214   6.510   1.973   3.659 -0.0265 -0.4467  0.3499
 7600TIP3    H144215   6.568   1.897   3.657  0.4320 -0.0775 -1.4638
 7600TIP3    H244216   6.452   1.961   3.584 -0.1635  0.8181  0.2407
 7601TIP3   OH244217   2.332   3.479  15.530 -0.9119  0.1220 -0.0539
 7601TIP3    H144218   2.249   3.477  15.482 -0.7790 -2.1128 -0.3012
 7601TIP3    H244219   2.308   3.512  15.617 -2.0483 -0.4206 -0.1354
 7602TIP3   OH244220   4.203   1.463   5.008  0.3523  0.0781 -0.6377
 7602TIP3    H144221   4.109   1.469   4.989  0.1491  1.6199  0.6690
 7602TIP3    H244222   4.245   1.470   4.922 -0.7191 -3.5209 -1.6268
 7603TIP3   OH244223   2.260   4.484  12.587 -0.3858  0.2690 -0.2424
 7603TIP3    H144224   2.311   4.521  12.514  1.0346  0.4603  0.7952
 7603TIP3    H244225   2.237   4.560  12.640 -1.3734  0.1251 -0.4496
 7604TIP3   OH244226   2.608   5.780   5.963  0.4453  0.4427 -0.1685
 7604TIP3    H144227   2.671   5.716   5.995 -0.0692  0.6186  1.2316
 7604TIP3    H244228   2.525   5.754   6.002 -0.6335 -0.4047 -2.7987
 7605TIP3   OH244229   6.076   3.574  16.325 -0.2836 -0.0168 -0.0771
 7605TIP3    H144230   6.125   3.502  16.364 -2.4709 -1.0501  0.9440
 7605TIP3    H244231   6.096   3.569  16.232  0.3562 -1.3410  0.1062
 7606TIP3   OH244232   6.497   1.731   1.748 -0.1708 -0.0437 -0.3971
 7606TIP3    H144233   6.555   1.807   1.738 -0.4677  0.2044 -0.2610
 7606TIP3    H244234   6.488   1.696   1.660  0.3152 -0.1796 -0.3967
 7607TIP3   OH244235   4.109   5.674  14.753 -0.1615 -0.0872  0.7385
 7607TIP3    H144236   4.100   5.755  14.804 -0.5847  0.1925  0.2243
 7607TIP3    H244237   4.037   5.619  14.784 -0.4860  0.1256  0.3719
 7608TIP3   OH244238   2.737   4.532  13.233 -0.1120 -0.8473 -1.0282
 7608TIP3    H144239   2.651   4.548  13.270  0.8684 -0.3573  1.2272
 7608TIP3    H244240   2.736   4.440  13.209 -2.0149 -0.3080 -3.3432
 7609TIP3   OH244241   5.989   4.516   0.838 -0.1117  0.1905 -0.0133
 7609TIP3    H144242   5.954   4.558   0.916 -0.8451 -0.1453 -0.1538
 7609TIP3    H244243   6.082   4.536   0.840  0.1400 -1.0094  1.6840
 7610TIP3   OH244244   3.489   5.087  12.249  0.0708  0.3058 -0.6943
 7610TIP3    H144245   3.459   5.132  12.170  0.3579  0.7685 -0.5419
 7610TIP3    H244246   3.560   5.031  12.218  0.3807  0.7091 -0.7143
 7611TIP3   OH244247   1.219   1.045   0.795 -0.0475  0.3845 -0.3281
 7611TIP3    H144248   1.262   0.990   0.729 -1.2414 -1.0993  0.0645
 7611TIP3    H244249   1.193   0.983   0.863 -0.0709  1.6925  0.8900
 7612TIP3   OH244250   0.917   3.411  15.799 -0.2443  0.4198  0.2314
 7612TIP3    H144251   0.837   3.360  15.798  0.4792 -0.7666 -0.7570
 7612TIP3    H244252   0.898   3.486  15.742 -0.4521 -0.2167 -0.5632
 7613TIP3   OH244253   0.146   0.359   4.060  0.2799  0.5785 -0.0743
 7613TIP3    H144254   0.073   0.354   4.121 -1.2496 -1.2515 -1.8920
 7613TIP3    H244255   0.193   0.275   4.071  1.0127  0.9562 -0.2227
 7614TIP3   OH244256   1.782   0.512   5.183 -0.0789  0.3023 -0.2172
 7614TIP3    H144257   1.819   0.599   5.194 -1.3660  1.3050 -2.9541
 7614TIP3    H244258   1.699   0.527   5.138  0.1038 -2.3908 -1.6412
 7615TIP3   OH244259   1.510   5.823   2.357  0.5214 -0.3353 -0.2124
 7615TIP3    H144260   1.578   5.756   2.349  0.5475 -0.2775 -0.4885
 7615TIP3    H244261   1.437   5.778   2.399  0.3522 -0.6759 -0.8609
 7616TIP3   OH244262   3.683   5.095   4.306  0.4014  0.2673  0.2124
 7616TIP3    H144263   3.672   5.063   4.217  2.0542  0.8649 -0.2361
 7616TIP3    H244264   3.648   5.184   4.305 -0.8975 -0.2019  0.5655
 7617TIP3   OH244265   1.943   2.143  14.933  0.6145  0.8994 -0.2051
 7617TIP3    H144266   1.852   2.125  14.909  0.8077 -0.9225  0.2648
 7617TIP3    H244267   1.946   2.126  15.028  1.7044 -0.3529 -0.4435
 7618TIP3   OH244268   6.498   2.724   2.633  0.0933 -0.2603  0.1194
 7618TIP3    H144269   6.572   2.669   2.607 -0.0132  0.4688 -1.9223
 7618TIP3    H244270   6.520   2.753   2.721  2.9938  1.0721 -0.9096
 7619TIP3   OH244271   5.396   5.650  16.789 -0.2577  0.0202  0.2721
 7619TIP3    H144272   5.405   5.591  16.714  1.2166 -0.0913  0.5210
 7619TIP3    H244273   5.441   5.607  16.861  0.9986  1.4920  0.4244
 7620TIP3   OH244274   5.944   1.938  13.859 -0.4805  0.6274 -0.5500
 7620TIP3    H144275   5.929   1.949  13.953  1.0054 -0.1756 -0.1807
 7620TIP3    H244276   5.919   2.022  13.821 -0.4520  1.2032  0.6563
 7621TIP3   OH244277   3.087   4.424  17.014 -0.4503 -0.4072  0.8885
 7621TIP3    H144278   3.055   4.335  17.028 -1.5630 -0.3335 -0.9026
 7621TIP3    H244279   3.019   4.466  16.962  1.5659  0.4295 -1.2429
 7622TIP3   OH244280   1.367   3.517   0.251  0.1222 -0.3913  0.0615
 7622TIP3    H144281   1.288   3.556   0.215  0.9493  2.0255  0.6725
 7622TIP3    H244282   1.354   3.519   0.346  0.9688  0.2467  0.1812
 7623TIP3   OH244283   2.574   1.410   5.036  0.3220 -0.0206 -0.2853
 7623TIP3    H144284   2.556   1.343   4.970 -2.4631 -1.1105  1.4084
 7623TIP3    H244285   2.669   1.417   5.038  0.5642 -1.5560 -2.8101
 7624TIP3   OH244286   5.258   6.247   5.635 -0.1446  0.0591  0.1491
 7624TIP3    H144287   5.317   6.319   5.657  0.0312  0.0691 -0.3395
 7624TIP3    H244288   5.277   6.179   5.699 -1.9616  1.3041  2.1592
 7625TIP3   OH244289   5.384   2.006   2.017  0.4543 -0.0066  0.2545
 7625TIP3    H144290   5.475   2.036   2.012  0.5869 -0.5457 -0.8981
 7625TIP3    H244291   5.383   1.945   2.091  1.5246 -1.5328 -0.9230
 7626TIP3   OH244292   3.932   3.359  16.946 -0.2010  0.4587  0.4510
 7626TIP3    H144293   3.996   3.356  16.875  0.3033  0.1513  0.9064
 7626TIP3    H244294   3.916   3.453  16.959  0.9284  0.5966  0.9901
 7627TIP3   OH244295   6.503   2.646  10.638 -0.6901  0.0276 -0.0805
 7627TIP3    H144296   6.579   2.660  10.582 -0.3166 -0.7818  0.2105
 7627TIP3    H244297   6.483   2.553  10.627 -1.2124  0.0832  0.3863
 7628TIP3   OH244298   2.842   6.044  14.775  0.0414 -0.6356  0.2254
 7628TIP3    H144299   2.760   6.093  14.765  0.0859 -0.3106  1.3466
 7628TIP3    H244300   2.823   5.958  14.736 -0.4097 -0.1389 -0.6969
 7629TIP3   OH244301   0.186   2.267  12.249  0.0037  0.1662  0.5832
 7629TIP3    H144302   0.259   2.329  12.239  1.0761 -1.1929 -0.4433
 7629TIP3    H244303   0.181   2.222  12.164  0.2031 -2.1272  1.7197
 7630TIP3   OH244304   3.719   5.464  11.103 -0.0144  0.2091 -0.0798
 7630TIP3    H144305   3.657   5.453  11.175  0.7106 -0.2719  0.4840
 7630TIP3    H244306   3.674   5.427  11.027  0.0134 -1.1902  0.5618
 7631TIP3   OH244307   2.135   1.326  13.322  0.3531  0.1098 -0.2335
 7631TIP3    H144308   2.094   1.304  13.406 -0.5344 -1.1468 -0.9722
 7631TIP3    H244309   2.062   1.349  13.265  0.8711  0.0615 -0.9209
 7632TIP3   OH244310   4.301   2.774   4.165  0.4404 -0.4560  0.1417
 7632TIP3    H144311   4.266   2.862   4.153  0.0268 -0.5685  0.4847
 7632TIP3    H244312   4.276   2.750   4.254 -0.5788 -1.4142 -0.3660
 7633TIP3   OH244313   4.496   4.668  16.472  0.6014  0.3567 -0.4260
 7633TIP3    H144314   4.582   4.684  16.433  0.8652  0.5168  0.2143
 7633TIP3    H244315   4.465   4.755  16.498 -1.0401  0.7388 -3.2356
 7634TIP3   OH244316   1.569   0.999  11.209  0.0211  0.2034 -0.1419
 7634TIP3    H144317   1.594   0.911  11.180 -1.4028 -0.3625  0.2684
 7634TIP3    H244318   1.620   1.014  11.288 -0.2601 -0.5592  0.1939
 7635TIP3   OH244319   6.053   0.278  10.511 -0.2352 -0.2129 -0.2097
 7635TIP3    H144320   6.088   0.283  10.600 -1.4888  2.6569  0.2390
 7635TIP3    H244321   6.014   0.190  10.506  3.9221 -2.3180  0.3205
 7636TIP3   OH244322   3.952   6.267  16.195 -0.3137 -0.4040  0.0029
 7636TIP3    H144323   3.915   6.353  16.214 -0.8267 -0.3985 -0.9446
 7636TIP3    H244324   4.043   6.273  16.226  0.3207  1.2457 -1.9494
 7637TIP3   OH244325   3.264   4.242   3.426  0.3376 -0.6517  0.1817
 7637TIP3    H144326   3.264   4.197   3.342 -1.0736  0.9894 -0.7555
 7637TIP3    H244327   3.194   4.201   3.476  0.6149 -1.0524  0.2475
 7638TIP3   OH244328   2.739   1.687  13.930  0.1877 -0.1702 -0.6900
 7638TIP3    H144329   2.666   1.713  13.987  0.9786  0.7790 -0.0657
 7638TIP3    H244330   2.697   1.643  13.856 -0.9759 -0.1138 -0.0915
 7639TIP3   OH244331   3.335   5.820   1.988  0.3133 -0.1030 -0.3235
 7639TIP3    H144332   3.394   5.771   1.931  0.4476 -1.0590  0.5913
 7639TIP3    H244333   3.386   5.834   2.068  0.1202  1.1826 -0.4074
 7640TIP3   OH244334   6.008   2.803   0.537 -0.3166 -0.4287 -0.2316
 7640TIP3    H144335   6.059   2.879   0.564  0.7445 -1.0883 -0.3133
 7640TIP3    H244336   6.006   2.809   0.441  0.4326 -0.8998 -0.2871
 7641TIP3   OH244337   4.595   3.237  11.895  0.0954  0.4780 -0.4785
 7641TIP3    H144338   4.566   3.293  11.967 -0.6603  0.0609 -0.4436
 7641TIP3    H244339   4.568   3.284  11.816 -0.2898  0.2985 -0.4558
 7642TIP3   OH244340   2.129   2.451   2.841 -0.3231  0.3604 -0.6597
 7642TIP3    H144341   2.196   2.495   2.892  0.2863  0.0649 -1.1869
 7642TIP3    H244342   2.065   2.420   2.905  1.5668 -2.0389  0.2313
 7643TIP3   OH244343   3.949   2.271   2.375  0.3531  0.1624 -0.7274
 7643TIP3    H144344   4.018   2.289   2.312 -0.4969  2.6745 -1.0796
 7643TIP3    H244345   3.902   2.354   2.383 -1.0447 -0.7359  1.4228
 7644TIP3   OH244346   3.091   3.108   4.313  0.4784  0.1204 -0.0073
 7644TIP3    H144347   3.170   3.162   4.304  0.6798 -0.1941 -0.1421
 7644TIP3    H244348   3.020   3.164   4.282  0.8022  0.0143 -0.9698
 7645TIP3   OH244349   6.696   2.827   5.630 -0.8636  0.0576 -0.7100
 7645TIP3    H144350   6.713   2.760   5.697  0.2647  0.5685 -0.4699
 7645TIP3    H244351   6.630   2.884   5.670 -0.3475  0.2419 -0.0952
 7646TIP3   OH244352   5.668   4.770  15.971 -0.3573 -0.1426  0.2810
 7646TIP3    H144353   5.590   4.717  15.952  2.1087 -3.7073 -1.0104
 7646TIP3    H244354   5.700   4.798  15.885  1.1119 -0.9259  0.5421
 7647TIP3   OH244355   1.403   4.319  11.455  0.3485 -0.2991  0.0238
 7647TIP3    H144356   1.388   4.324  11.550  0.6643 -0.4418  0.0831
 7647TIP3    H244357   1.488   4.361  11.442 -0.1183  0.5582 -0.3139
 7648TIP3   OH244358   5.001   3.154  14.328  0.2650  0.2258 -0.0528
 7648TIP3    H144359   4.923   3.146  14.274 -0.5508  0.1207  1.0902
 7648TIP3    H244360   5.055   3.078  14.304 -1.3214 -1.3752  1.1721
 7649TIP3   OH244361   4.052   2.481   3.815  0.2331  0.1456 -0.0248
 7649TIP3    H144362   4.136   2.525   3.801  0.1659 -0.2422 -1.9368
 7649TIP3    H244363   4.039   2.427   3.737 -1.5610 -0.1965  0.4463
 7650TIP3   OH244364   1.380   3.545   5.642 -0.0997 -0.4533 -0.6828
 7650TIP3    H144365   1.370   3.589   5.726 -0.4421 -0.9269 -0.4731
 7650TIP3    H244366   1.434   3.468   5.662  1.9754  0.7484 -1.3496
 7651TIP3   OH244367   6.215   0.376  12.389 -0.2715  0.0040  0.4915
 7651TIP3    H144368   6.123   0.387  12.367 -0.5289 -1.7321  0.5817
 7651TIP3    H244369   6.246   0.465  12.407 -1.8850  0.6309  0.3281
 7652TIP3   OH244370   1.055   2.871  13.337  0.5904 -0.1518 -0.1318
 7652TIP3    H144371   1.062   2.945  13.396  1.3988 -0.2894 -0.0362
 7652TIP3    H244372   1.013   2.802  13.389  0.3613  0.0528 -0.0444
 7653TIP3   OH244373   5.560   1.259  11.667  0.4682  0.1203 -0.0313
 7653TIP3    H144374   5.492   1.281  11.602 -0.6737 -1.6033  0.5225
 7653TIP3    H244375   5.564   1.164  11.666  2.2374  0.1625  0.6459
 7654TIP3   OH244376   5.864   0.563  16.282 -0.0296  0.3359  0.1136
 7654TIP3    H144377   5.922   0.625  16.238 -1.2904  0.3991 -1.5785
 7654TIP3    H244378   5.859   0.489  16.221  1.1748 -1.3326  1.9332
 7655TIP3   OH244379   4.941   0.532   0.919 -0.3371 -0.0197  0.3513
 7655TIP3    H144380   5.028   0.560   0.948 -1.3974  4.4123  0.0211
 7655TIP3    H244381   4.951   0.513   0.826  0.5977 -1.5432  0.7329
 7656TIP3   OH244382   5.650   0.813   6.143  0.1122  0.1669  0.6407
 7656TIP3    H144383   5.625   0.829   6.234  1.6184  0.3990  1.0248
 7656TIP3    H244384   5.725   0.755   6.148  0.2146  0.1819 -0.4671
 7657TIP3   OH244385   4.157   3.653   1.538 -0.4958 -0.6511 -0.4003
 7657TIP3    H144386   4.164   3.592   1.610 -1.8474  1.1484  1.3688
 7657TIP3    H244387   4.089   3.715   1.565 -0.5439  0.5362 -2.9009
 7658TIP3   OH244388   1.350   0.422  15.491  0.1616  0.0784  0.0897
 7658TIP3    H144389   1.424   0.483  15.496 -0.1800  0.5261 -0.2335
 7658TIP3    H244390   1.382   0.352  15.433  0.2703  0.3631 -0.1986
 7659TIP3   OH244391   5.462   5.943  14.521 -0.0607 -0.0678 -0.0307
 7659TIP3    H144392   5.483   5.905  14.436 -0.2278 -1.2677  0.4458
 7659TIP3    H244393   5.370   5.920  14.535  0.6684 -2.2336  1.6369
 7660TIP3   OH244394   4.008   1.250  11.944  0.3551 -0.5131 -0.8272
 7660TIP3    H144395   4.027   1.158  11.929  1.0714 -0.5342  0.1094
 7660TIP3    H244396   3.916   1.252  11.972 -0.0593 -0.7839 -2.1131
 7661TIP3   OH244397   0.780   2.600  11.739 -0.0215 -0.5076 -0.2333
 7661TIP3    H144398   0.836   2.573  11.666 -0.6382 -1.1076 -0.4897
 7661TIP3    H244399   0.753   2.518  11.780 -0.5127 -0.2094  0.0454
 7662TIP3   OH244400   2.471   3.282   0.327 -0.2697 -0.0813 -0.0700
 7662TIP3    H144401   2.435   3.274   0.415 -1.3229 -0.1789 -0.4973
 7662TIP3    H244402   2.516   3.366   0.326 -0.3727 -0.0169  0.5151
 7663TIP3   OH244403   4.871   1.321   2.388  0.2136  0.1288 -0.2270
 7663TIP3    H144404   4.795   1.378   2.377  1.1157  1.5000  0.2415
 7663TIP3    H244405   4.903   1.342   2.476  0.4891 -1.2471  0.0168
 7664TIP3   OH244406   4.977   2.578  13.629 -0.6093  0.0679 -0.1975
 7664TIP3    H144407   5.015   2.583  13.541  0.5422  0.1131  0.2874
 7664TIP3    H244408   4.888   2.547  13.615 -0.7793  1.0283 -1.4731
 7665TIP3   OH244409   1.083   4.897  13.543 -0.0943 -0.1834  0.3050
 7665TIP3    H144410   1.156   4.952  13.572  0.2630  0.3508 -1.4504
 7665TIP3    H244411   1.013   4.916  13.605  0.4153  1.3631  0.4671
 7666TIP3   OH244412   1.766   0.741   0.626  0.0055 -0.4687  0.0536
 7666TIP3    H144413   1.710   0.811   0.593  0.8333  1.5898  2.6721
 7666TIP3    H244414   1.855   0.773   0.612  0.4253 -1.4499  0.3989
 7667TIP3   OH244415   3.152   1.522   2.465  1.0088 -0.3340 -0.2366
 7667TIP3    H144416   3.214   1.581   2.423  0.8699  0.5184  0.7095
 7667TIP3    H244417   3.194   1.498   2.548  0.7712 -1.0432 -0.3122
 7668TIP3   OH244418   2.734   1.431  15.075 -0.4661  0.0435 -0.1810
 7668TIP3    H144419   2.764   1.374  15.005 -0.1549 -0.4504  0.3502
 7668TIP3    H244420   2.724   1.373  15.151 -0.6655  0.5948  0.2199
 7669TIP3   OH244421   1.360   4.573  16.001  0.4571  0.1283 -0.5904
 7669TIP3    H144422   1.410   4.642  15.958 -0.9907  1.9153  0.4911
 7669TIP3    H244423   1.301   4.541  15.934  0.5487  0.5252 -0.8645
 7670TIP3   OH244424   6.430   2.713   1.158  0.3020 -0.1797  0.1650
 7670TIP3    H144425   6.389   2.628   1.170  0.3837 -0.0192  1.7471
 7670TIP3    H244426   6.432   2.751   1.245 -0.5170  1.8273 -0.6399
 7671TIP3   OH244427   6.440   6.692  16.332 -0.2013 -0.0614 -0.0264
 7671TIP3    H144428   6.400   6.762  16.382 -0.7819  1.2432 -2.2091
 7671TIP3    H244429   6.476   6.734  16.254  0.4809 -2.0160 -0.8546
 7672TIP3   OH244430   5.321   0.749   5.688  0.0750 -0.0835  0.3015
 7672TIP3    H144431   5.267   0.686   5.736 -1.8307  0.4337 -1.0396
 7672TIP3    H244432   5.314   0.830   5.739  1.0658 -0.4489  1.0605
 7673TIP3   OH244433   0.248   1.333  16.463 -0.3417 -0.2681  0.0162
 7673TIP3    H144434   0.339   1.305  16.470  0.4293  1.9150 -0.4175
 7673TIP3    H244435   0.246   1.386  16.382 -1.0533  2.7310  1.8339
 7674TIP3   OH244436   5.718   1.308   3.290 -0.5592 -0.0394  0.0875
 7674TIP3    H144437   5.765   1.252   3.229 -0.4234  0.8441 -0.6327
 7674TIP3    H244438   5.628   1.276   3.288 -0.2942 -0.8152  0.3838
 7675TIP3   OH244439   5.071   6.731  12.979  0.3099 -0.0911  0.3859
 7675TIP3    H144440   5.143   6.677  12.946  0.2819 -0.3251  0.7058
 7675TIP3    H244441   5.063   6.706  13.071  0.8268  1.0260  0.7587
 7676TIP3   OH244442   2.865   6.260  11.194 -0.4577 -0.3013  0.3083
 7676TIP3    H144443   2.916   6.319  11.139  0.7428 -3.8210 -2.7531
 7676TIP3    H244444   2.779   6.302  11.202  0.1726  1.6583 -2.0663
 7677TIP3   OH244445   4.921   0.037   1.723 -0.2291  0.0057 -0.4123
 7677TIP3    H144446   4.833   0.009   1.700  0.3280 -0.7433 -1.7697
 7677TIP3    H244447   4.961   0.061   1.639  0.9800 -0.0307  0.1370
 7678TIP3   OH244448   4.707   0.185   4.373 -0.0291 -0.4095 -0.0739
 7678TIP3    H144449   4.743   0.264   4.333 -0.8945 -0.6357 -1.3680
 7678TIP3    H244450   4.686   0.211   4.462  0.4661  0.5852 -0.2314
 7679TIP3   OH244451   6.738   0.340   4.278  0.8564  0.3395  0.5112
 7679TIP3    H144452   6.797   0.266   4.289 -0.1179 -0.5400 -0.0221
 7679TIP3    H244453   6.740   0.385   4.363  1.8777  0.0220  0.6632
 7680TIP3   OH244454   2.389   0.577   3.109 -0.7159  0.0839 -0.1439
 7680TIP3    H144455   2.346   0.531   3.181 -1.3913 -0.5960 -0.9619
 7680TIP3    H244456   2.326   0.574   3.038  0.3611 -0.1937 -1.1095
 7681TIP3   OH244457   0.845   1.995  13.589  0.0274 -0.2747  1.0127
 7681TIP3    H144458   0.865   2.028  13.502 -1.1213 -0.1819  0.7754
 7681TIP3    H244459   0.810   1.907  13.574  2.2473 -1.3410  1.5763
 7682TIP3   OH244460   6.067   4.125   5.564  0.7076 -0.5423 -0.9747
 7682TIP3    H144461   6.094   4.216   5.575 -2.7862  0.3212  2.1805
 7682TIP3    H244462   6.115   4.077   5.631  0.5174 -0.5450 -0.8418
 7683TIP3   OH244463   1.721   0.693  12.779 -0.4139  0.5706  0.1323
 7683TIP3    H144464   1.810   0.725  12.792  0.7901 -2.2064 -0.6652
 7683TIP3    H244465   1.711   0.623  12.844 -2.0279  0.8087  0.1861
 7684TIP3   OH244466   5.845   0.962  12.791  0.1500 -0.3159  0.0427
 7684TIP3    H144467   5.909   0.962  12.720  0.1933 -0.9829  0.0719
 7684TIP3    H244468   5.808   0.874  12.789  0.4493 -0.4838  1.1082
 7685TIP3   OH244469   3.519   0.517   0.116 -0.8051 -0.5761  0.3787
 7685TIP3    H144470   3.496   0.465   0.039  0.4530  0.7867 -0.9698
 7685TIP3    H244471   3.498   0.607   0.092  0.3499 -0.0220  1.3214
 7686TIP3   OH244472   5.425   2.647  12.101  0.1113 -0.4593 -0.0586
 7686TIP3    H144473   5.477   2.568  12.109  3.1428  1.5157  1.4328
 7686TIP3    H244474   5.364   2.643  12.175  1.7292 -0.4470  1.3294
 7687TIP3   OH244475   3.736   3.045  17.204  0.4222 -0.0182 -0.1982
 7687TIP3    H144476   3.791   3.023  17.279  0.1552  1.6187  0.5310
 7687TIP3    H244477   3.647   3.049  17.240  0.4597  2.2863 -0.1838
 7688TIP3   OH244478   3.268   2.784  10.964  0.0592  0.0304  0.2929
 7688TIP3    H144479   3.181   2.750  10.986 -0.1809 -0.0590 -0.7422
 7688TIP3    H244480   3.302   2.722  10.900  1.1222 -0.2305  1.0889
 7689TIP3   OH244481   0.766   3.601   3.598  0.4143 -0.9591 -0.3984
 7689TIP3    H144482   0.705   3.673   3.614 -1.0211 -2.1724 -0.2414
 7689TIP3    H244483   0.850   3.633   3.632  0.0977  1.0402 -1.3065
 7690TIP3   OH244484   0.503   2.000   4.265 -0.1932 -0.0815  0.1234
 7690TIP3    H144485   0.423   1.960   4.299 -0.0148  0.8863  1.8133
 7690TIP3    H244486   0.480   2.092   4.252  0.8263  0.3887  1.4188
 7691TIP3   OH244487   6.317   3.536   5.347  0.3405 -0.2775 -0.1886
 7691TIP3    H144488   6.363   3.613   5.313  0.7423 -0.3649  0.1597
 7691TIP3    H244489   6.302   3.555   5.439 -0.9554  0.0575 -0.4412
 7692TIP3   OH244490   1.689   0.128   3.130  0.0878  0.0979 -0.8184
 7692TIP3    H144491   1.667   0.173   3.049 -4.0453  0.9561  0.4926
 7692TIP3    H244492   1.653   0.040   3.120  0.3996 -0.1033 -0.2646
 7693TIP3   OH244493   6.230   1.610  16.771  0.0896 -0.4040 -0.4895
 7693TIP3    H144494   6.287   1.676  16.733 -0.8558 -0.0299 -1.3014
 7693TIP3    H244495   6.199   1.559  16.697  0.6646 -1.6678  0.1079
 7694TIP3   OH244496   0.723   3.841   0.001  0.1050 -0.0148 -0.1604
 7694TIP3    H144497   0.732   3.767  -0.059  0.0011  0.1462 -0.3808
 7694TIP3    H244498   0.679   3.805   0.078  1.6368 -0.5705  0.4891
 7695TIP3   OH244499   0.721   4.051  14.595 -0.0664  0.2543  0.1872
 7695TIP3    H144500   0.707   3.981  14.659 -1.9641  1.8901  1.7033
 7695TIP3    H244501   0.688   4.016  14.513  0.1550 -1.0400  0.6283
 7696TIP3   OH244502   2.577   4.439  11.520 -0.3882 -0.5799  0.5380
 7696TIP3    H144503   2.512   4.500  11.555 -0.3157 -0.1937  0.0226
 7696TIP3    H244504   2.661   4.480  11.542 -0.3413 -0.4033  0.0436
 7697TIP3   OH244505   4.353   1.187   4.862 -1.1455 -0.5064 -0.5262
 7697TIP3    H144506   4.384   1.108   4.818  0.6266 -0.5427  0.6766
 7697TIP3    H244507   4.397   1.259   4.816 -1.0197 -0.3926 -0.2315
 7698TIP3   OH244508   4.459   5.186   2.098 -0.0431 -0.4055  0.7179
 7698TIP3    H144509   4.497   5.270   2.073 -0.5604  0.6186  3.0776
 7698TIP3    H244510   4.430   5.147   2.015  2.4165  0.5811 -0.7069
 7699TIP3   OH244511   2.528   3.984  11.403  0.0379 -0.2816  0.3830
 7699TIP3    H144512   2.601   4.025  11.355 -0.2216 -0.0998  0.1350
 7699TIP3    H244513   2.517   4.038  11.481  1.1416 -1.1880  1.1860
 7700TIP3   OH244514   3.172   6.296  17.083  0.2605 -0.4051  0.1326
 7700TIP3    H144515   3.264   6.300  17.110  0.6945  1.2127 -1.4478
 7700TIP3    H244516   3.157   6.203  17.063  1.8871 -0.5186 -0.7064
 7701TIP3   OH244517   2.114   3.377  14.200  0.4669  0.0109 -0.7781
 7701TIP3    H144518   2.152   3.415  14.279  0.7244  0.4246 -1.0966
 7701TIP3    H244519   2.188   3.334  14.156  0.1900 -0.8305 -0.4450
 7702TIP3   OH244520   2.885   3.514  14.282  0.3280 -0.5212  0.0454
 7702TIP3    H144521   2.835   3.442  14.242 -0.1062 -0.7505  0.9767
 7702TIP3    H244522   2.942   3.472  14.345  0.6443 -0.1143  0.0371
 7703TIP3   OH244523   2.424   2.739  11.422 -0.1977  0.1670 -0.0986
 7703TIP3    H144524   2.424   2.817  11.366 -1.0944  0.2389 -0.0194
 7703TIP3    H244525   2.401   2.667  11.364 -1.8916  0.3558  0.2880
 7704TIP3   OH244526   1.426   1.310   3.132  0.0408 -0.0322  0.7966
 7704TIP3    H144527   1.368   1.308   3.056  0.6234 -1.7744  0.3530
 7704TIP3    H244528   1.411   1.227   3.177  3.7839 -1.7442 -0.6586
 7705TIP3   OH244529   0.817   0.204  11.299  0.1483 -0.0967  0.1865
 7705TIP3    H144530   0.907   0.222  11.328  0.2020 -0.1911  0.0818
 7705TIP3    H244531   0.814   0.239  11.210 -0.1942  0.7318  0.5132
 7706TIP3   OH244532   2.562   4.599   2.244 -0.2179 -0.7306  0.4509
 7706TIP3    H144533   2.528   4.552   2.168  0.9429  0.1089 -0.6212
 7706TIP3    H244534   2.590   4.684   2.210 -1.1765  0.3304  2.1198
 7707TIP3   OH244535   4.844   2.126  13.532  0.2093 -0.6306  0.5566
 7707TIP3    H144536   4.764   2.172  13.508  0.1576 -0.6429  0.7080
 7707TIP3    H244537   4.819   2.068  13.604  0.3733 -0.5609  0.6728
 7708TIP3   OH244538   5.185   2.948  14.306  0.0488 -0.8657  0.3191
 7708TIP3    H144539   5.194   2.885  14.235 -0.9083  0.5410 -1.1282
 7708TIP3    H244540   5.268   2.997  14.305 -1.0333  1.1419 -1.9426
 7709TIP3   OH244541   0.228   2.982  10.504 -0.7763  0.0800  0.6941
 7709TIP3    H144542   0.300   2.936  10.548  1.0113 -1.2608 -3.1909
 7709TIP3    H244543   0.271   3.054  10.458 -1.5820 -1.2983 -2.5044
 7710TIP3   OH244544   4.412   5.443   0.660  0.1381 -0.0707 -0.9958
 7710TIP3    H144545   4.489   5.389   0.642  0.0637 -0.0099 -1.5174
 7710TIP3    H244546   4.380   5.413   0.745  0.6764 -0.1649 -0.8240
 7711TIP3   OH244547   4.507   4.402  11.698  0.6365 -0.3221 -0.0599
 7711TIP3    H144548   4.495   4.343  11.623  1.5393 -0.2820 -0.2400
 7711TIP3    H244549   4.447   4.475  11.681  2.2200  0.6486 -1.7477
 7712TIP3   OH244550   6.159   0.075   4.873  0.0695 -1.1190 -0.2758
 7712TIP3    H144551   6.142   0.099   4.964  1.0450  1.7394 -0.7756
 7712TIP3    H244552   6.086   0.017   4.850 -2.7722  1.6817  1.0150
 7713TIP3   OH244553   5.125   1.693  10.426 -0.2057  0.2586 -0.0652
 7713TIP3    H144554   5.201   1.741  10.394 -1.7085  1.9333 -1.3511
 7713TIP3    H244555   5.119   1.617  10.369  0.9317 -0.3183  0.5599
 7714TIP3   OH244556   4.173   0.106  15.353  0.5464 -0.0773  0.1810
 7714TIP3    H144557   4.150   0.111  15.261  1.6269  1.1876 -0.0518
 7714TIP3    H244558   4.137   0.186  15.391 -0.5164 -0.9266  1.0258
 7715TIP3   OH244559   2.276   0.625   1.123 -0.3700 -0.1541  0.0974
 7715TIP3    H144560   2.274   0.704   1.176  1.2959  0.1046 -0.1895
 7715TIP3    H244561   2.186   0.617   1.090 -0.3484  2.2973 -0.8285
 7716TIP3   OH244562   3.971   2.447   6.260 -0.1649 -0.1394 -0.5713
 7716TIP3    H144563   4.007   2.535   6.260  2.8460 -1.2333 -1.4896
 7716TIP3    H244564   4.000   2.409   6.343 -1.3668 -0.3279 -0.2196
 7717TIP3   OH244565   1.439   6.216   0.020  0.2029  0.3313  0.1043
 7717TIP3    H144566   1.461   6.187  -0.068  0.4139 -0.8150  0.5132
 7717TIP3    H244567   1.509   6.179   0.075 -0.1912  0.6210  0.8058
 7718TIP3   OH244568   1.569   4.816  11.934 -0.6595  0.2624  0.6708
 7718TIP3    H144569   1.525   4.900  11.947 -1.3421  0.1103 -0.4974
 7718TIP3    H244570   1.583   4.811  11.839  0.0344 -0.6161  0.8077
 7719TIP3   OH244571   6.111   1.000   0.319  0.1469 -0.3693 -0.7036
 7719TIP3    H144572   6.061   1.065   0.270  0.0850 -0.2202 -0.4464
 7719TIP3    H244573   6.186   1.049   0.354  0.1583 -0.4600 -0.6004
 7720TIP3   OH244574   3.122   0.158  13.141  0.0119  0.3331  0.0429
 7720TIP3    H144575   3.167   0.078  13.114 -0.5696 -0.8548  2.3319
 7720TIP3    H244576   3.172   0.228  13.101 -0.3089 -1.1355 -3.3045
 7721TIP3   OH244577   5.365   0.074  16.291 -0.2042 -0.2361 -0.4919
 7721TIP3    H144578   5.272   0.095  16.300  0.1197  1.0618  0.0217
 7721TIP3    H244579   5.368  -0.022  16.287 -1.2849 -0.5834  3.2564
 7722TIP3   OH244580   3.692   1.315   4.430  0.0884  0.0029 -0.2159
 7722TIP3    H144581   3.744   1.364   4.367 -0.4018  3.3872  1.7864
 7722TIP3    H244582   3.757   1.269   4.484  0.7456  0.5589 -0.5176
 7723TIP3   OH244583   6.197   1.916   0.275  0.3330  0.2256  0.1760
 7723TIP3    H144584   6.244   1.993   0.307 -1.2563  0.7584  1.3556
 7723TIP3    H244585   6.169   1.870   0.355  0.0319 -0.8002 -0.5026
 7724TIP3   OH244586   0.220   2.629   2.169 -0.6952  0.0453  0.3432
 7724TIP3    H144587   0.266   2.557   2.213 -1.5730 -0.6143  0.1861
 7724TIP3    H244588   0.149   2.652   2.229 -0.3919  0.8412  0.4209
 7725TIP3   OH244589   6.312   1.150  11.732  0.3980 -0.0512 -0.1763
 7725TIP3    H144590   6.318   1.237  11.693 -0.7699  0.5574  0.9068
 7725TIP3    H244591   6.383   1.100  11.692 -0.0459  0.8402 -2.2031
 7726TIP3   OH244592   4.159   5.522   0.957  0.3479  0.2254  0.4073
 7726TIP3    H144593   4.231   5.544   1.017  0.0762 -0.6280  1.0641
 7726TIP3    H244594   4.081   5.557   1.000  0.3056  0.7521 -0.0866
 7727TIP3   OH244595   6.332   0.888  16.541 -0.0902 -0.2435 -0.4083
 7727TIP3    H144596   6.359   0.811  16.591 -1.2059 -0.2395  0.2304
 7727TIP3    H244597   6.242   0.904  16.569 -0.6871 -0.1218 -2.2917
 7728TIP3   OH244598   6.606   4.520  12.193  0.0018  0.1396  0.5161
 7728TIP3    H144599   6.659   4.440  12.187  1.2720  0.9082  0.9707
 7728TIP3    H244600   6.526   4.492  12.238  0.4133 -0.8829  0.6493
 7729TIP3   OH244601   1.145   1.163  16.132  0.4023 -0.0720 -0.0821
 7729TIP3    H144602   1.108   1.161  16.220 -0.5459 -0.4967 -0.4657
 7729TIP3    H244603   1.224   1.215  16.139 -0.2533  0.8239  0.8057
 7730TIP3   OH244604   4.640   3.056   1.424 -0.1012 -0.1621 -0.1567
 7730TIP3    H144605   4.619   2.979   1.477  0.8472 -0.0628  0.3895
 7730TIP3    H244606   4.555   3.087   1.391 -0.5238 -1.2614 -0.1437
 7731TIP3   OH244607   5.227   5.419   1.668  0.2953  0.1123 -0.4068
 7731TIP3    H144608   5.145   5.372   1.651 -0.9088  1.6426  0.8359
 7731TIP3    H244609   5.231   5.424   1.764  0.2861  2.5915 -0.4766
 7732TIP3   OH244610   1.510   2.979  15.831 -0.4758  0.1406 -0.2261
 7732TIP3    H144611   1.484   2.983  15.923  2.4508  0.4063  0.6802
 7732TIP3    H244612   1.474   2.896  15.799 -3.1766  0.9217  0.5407
 7733TIP3   OH244613   4.151   3.124  10.919  0.4021  0.2269 -0.1179
 7733TIP3    H144614   4.190   3.197  10.871  0.9658 -0.5646 -0.9014
 7733TIP3    H244615   4.074   3.162  10.962 -0.2785  0.9189 -1.8510
 7734TIP3   OH244616   6.063   5.721  14.197 -0.5635 -0.4797 -0.3122
 7734TIP3    H144617   5.977   5.735  14.158 -0.0058 -2.5282 -2.5183
 7734TIP3    H244618   6.067   5.626  14.211  1.7519 -0.6122 -1.4461
 7735TIP3   OH244619   5.793   4.783  12.848 -0.1199 -0.0900  0.3488
 7735TIP3    H144620   5.768   4.805  12.758  0.6787 -0.0346  0.1351
 7735TIP3    H244621   5.749   4.700  12.866  2.2714 -1.8432 -1.2575
 7736TIP3   OH244622   2.483   5.250   2.715  0.1681  0.0980 -0.1110
 7736TIP3    H144623   2.462   5.278   2.626 -0.3358  0.9033  0.2483
 7736TIP3    H244624   2.544   5.177   2.704 -1.2781 -1.0129 -1.1582
 7737TIP3   OH244625   2.571   6.443   2.756 -0.0748  0.7439 -0.0575
 7737TIP3    H144626   2.665   6.429   2.751 -0.0509  0.6741  0.5805
 7737TIP3    H244627   2.557   6.527   2.712  0.0166 -0.2367 -2.1214
 7738TIP3   OH244628   6.058   1.227   0.689 -0.2811  0.5610 -0.3178
 7738TIP3    H144629   6.025   1.177   0.615 -2.1699 -0.8875  1.3914
 7738TIP3    H244630   6.153   1.227   0.677 -0.5800  1.4456 -3.3266
 7739TIP3   OH244631   0.467   5.355   1.255 -0.5759 -0.3798 -0.1577
 7739TIP3    H144632   0.515   5.424   1.210 -1.3624 -0.0411 -0.4954
 7739TIP3    H244633   0.531   5.284   1.264  0.0760  0.1755 -0.3053
 7740TIP3   OH244634   2.376   6.095   1.831  0.8215 -0.1419 -0.1494
 7740TIP3    H144635   2.293   6.049   1.844  0.5211  0.5428  0.3679
 7740TIP3    H244636   2.439   6.025   1.812  0.0570 -0.6306 -0.9264
 7741TIP3   OH244637   0.794   1.766   3.009  0.5536 -0.2845  0.2128
 7741TIP3    H144638   0.767   1.739   3.097  1.7763  0.7314  0.9215
 7741TIP3    H244639   0.713   1.799   2.969  0.3289  1.0275  1.6481
 7742TIP3   OH244640   3.101   2.346   0.290  0.4982  0.1900 -0.4767
 7742TIP3    H144641   3.192   2.331   0.313  1.1177 -0.4729 -3.1183
 7742TIP3    H244642   3.078   2.273   0.233 -2.1196 -0.3685  1.1051
 7743TIP3   OH244643   5.952   3.049   4.841  0.0422 -0.1391 -0.1776
 7743TIP3    H144644   5.931   3.046   4.935 -0.0962  0.4732 -0.1857
 7743TIP3    H244645   5.866   3.054   4.798  0.1069 -0.4040 -0.3395
 7744TIP3   OH244646   0.848   4.247  11.976 -0.1706  0.7388 -0.0339
 7744TIP3    H144647   0.834   4.272  12.067 -1.0765  0.4248 -0.0800
 7744TIP3    H244648   0.879   4.327  11.933 -1.0992  1.2638  0.2484
 7745TIP3   OH244649   3.800   2.863   1.428 -0.0983 -0.7691 -0.4970
 7745TIP3    H144650   3.717   2.895   1.462  0.8508  0.0884  1.1494
 7745TIP3    H244651   3.804   2.771   1.455 -0.9973 -1.1567 -1.6101
 7746TIP3   OH244652   6.242   3.313  16.916 -0.0939  0.1459  0.6190
 7746TIP3    H144653   6.149   3.322  16.937 -0.0421  1.3218  0.4344
 7746TIP3    H244654   6.247   3.327  16.821  0.2365 -0.1509  0.5903
 7747TIP3   OH244655   3.599   4.401   2.910  0.3063  0.8174  0.0891
 7747TIP3    H144656   3.537   4.340   2.951 -0.9812  1.6950 -0.4791
 7747TIP3    H244657   3.657   4.427   2.981  0.9165 -1.0493  0.3490
 7748TIP3   OH244658   1.094   3.202   0.722 -0.4077  0.2930 -0.2352
 7748TIP3    H144659   1.042   3.151   0.660  1.0578 -1.2166 -0.2928
 7748TIP3    H244660   1.033   3.225   0.792 -1.1254 -1.5952 -0.1852
 7749TIP3   OH244661   1.170   4.832  16.504 -0.3240 -0.2514 -0.5635
 7749TIP3    H144662   1.231   4.830  16.577 -1.0176 -1.0146  0.0186
 7749TIP3    H244663   1.177   4.921  16.469  0.1860  0.0543  0.2859
 7750TIP3   OH244664   5.275   3.666   1.019 -0.4423  0.6049 -0.2941
 7750TIP3    H144665   5.350   3.634   1.070 -1.0283 -2.4054 -1.0907
 7750TIP3    H244666   5.203   3.607   1.043 -1.0602 -0.2190 -3.6445
 7751TIP3   OH244667   6.390   1.418  17.192 -0.1365  0.2764 -0.4530
 7751TIP3    H144668   6.367   1.376  17.109  0.0324 -0.1631 -0.2766
 7751TIP3    H244669   6.351   1.505  17.186  1.5487  0.9939 -1.8394
 7752TIP3   OH244670   0.647   1.207   3.805 -0.7256 -0.0123  0.4048
 7752TIP3    H144671   0.613   1.204   3.894 -2.5082  1.5234 -0.1759
 7752TIP3    H244672   0.641   1.116   3.774 -2.2820 -0.1647  1.0757
 7753TIP3   OH244673   2.821   2.438  16.037  0.1299 -0.9617  0.3293
 7753TIP3    H144674   2.775   2.474  16.112  1.0903  0.9980  0.0238
 7753TIP3    H244675   2.912   2.430  16.066  0.0767 -2.5160  0.1446
 7754TIP3   OH244676   0.275   5.780   0.313  0.1451 -0.5524 -0.2062
 7754TIP3    H144677   0.193   5.829   0.305  0.8203  0.4862 -1.2118
 7754TIP3    H244678   0.342   5.848   0.327  1.0790 -1.1779 -1.4216
 7755TIP3   OH244679   5.055   3.216  16.130  0.7057  0.0189 -0.0253
 7755TIP3    H144680   5.061   3.291  16.070  0.3545 -0.4930 -0.7117
 7755TIP3    H244681   5.141   3.210  16.170  1.9754 -1.4742 -2.7306
 7756TIP3   OH244682   4.025   6.726  13.102 -0.1339  0.6001 -0.4423
 7756TIP3    H144683   4.043   6.774  13.022 -1.0954 -0.7662 -1.5292
 7756TIP3    H244684   3.964   6.656  13.076  0.2665 -0.4719  1.2740
 7757TIP3   OH244685   6.685   5.573  17.141  0.5945 -0.5340 -0.3048
 7757TIP3    H144686   6.750   5.642  17.157 -0.0973  0.0212  0.1434
 7757TIP3    H244687   6.635   5.604  17.066  0.3369 -0.5831 -0.1554
 7758TIP3   OH244688   2.314   4.759   5.053 -0.2976  0.0219 -0.0527
 7758TIP3    H144689   2.367   4.800   4.985  0.5542 -0.8990  0.0261
 7758TIP3    H244690   2.340   4.803   5.134 -1.1126  0.9292 -0.2720
 7759TIP3   OH244691   1.517   2.743   2.357 -0.3742  0.3812  0.0282
 7759TIP3    H144692   1.448   2.800   2.389 -0.3175 -0.1485  1.1439
 7759TIP3    H244693   1.531   2.770   2.266 -0.7825  1.6961  0.3435
 7760TIP3   OH244694   3.163   6.025   1.944 -0.1209 -0.2400 -0.1199
 7760TIP3    H144695   3.213   5.944   1.936  0.9664  0.5047 -1.3118
 7760TIP3    H244696   3.072   5.997   1.955  0.6008 -1.6758  3.4122
 7761TIP3   OH244697   3.774   4.838  14.388  0.2086 -0.2362 -0.1208
 7761TIP3    H144698   3.779   4.763  14.447 -1.2559  0.3523  0.8222
 7761TIP3    H244699   3.681   4.848  14.369  0.3746  1.2599 -0.3129
 7762TIP3   OH244700   5.540   5.814   4.694  0.6256  0.5313  0.0002
 7762TIP3    H144701   5.522   5.814   4.600 -0.0217 -0.8218  0.0887
 7762TIP3    H244702   5.465   5.859   4.733  1.3716  1.9768 -0.1767
 7763TIP3   OH244703   2.855   2.182  14.902  0.5161 -0.7150  0.3148
 7763TIP3    H144704   2.771   2.165  14.859  0.5088 -1.5190  0.6471
 7763TIP3    H244705   2.833   2.197  14.994  0.2674  3.1024 -0.1877
 7764TIP3   OH244706   6.073   5.322  12.458  0.0761  0.4819 -0.1519
 7764TIP3    H144707   6.006   5.256  12.476  0.3776  0.0519 -0.5797
 7764TIP3    H244708   6.115   5.336  12.543  0.5159 -0.4510 -0.2041
 7765TIP3   OH244709   2.454   3.818   4.133  0.1383  0.1753  0.5127
 7765TIP3    H144710   2.398   3.756   4.088  1.3215 -0.8368  0.3910
 7765TIP3    H244711   2.508   3.764   4.191 -0.0597  1.2676  1.7611
 7766TIP3   OH244712   4.205   6.212   0.210 -0.4267 -0.0268 -0.2354
 7766TIP3    H144713   4.267   6.272   0.169 -0.6516 -0.5146 -1.3174
 7766TIP3    H244714   4.153   6.178   0.138 -0.6376 -1.1422  0.4138
 7767TIP3   OH244715   5.514   5.335   3.009  0.3170 -0.6606  0.1325
 7767TIP3    H144716   5.504   5.427   3.032 -1.1494 -1.0075  0.9974
 7767TIP3    H244717   5.604   5.328   2.978  0.6214  0.9519  0.5557
 7768TIP3   OH244718   3.693   3.717  13.423 -0.0335 -0.0388 -0.0017
 7768TIP3    H144719   3.704   3.707  13.328 -0.5070  0.6757 -0.1432
 7768TIP3    H244720   3.652   3.635  13.451  1.4559 -0.8715 -0.1591
 7769TIP3   OH244721   5.536   4.196   0.077  0.0137  0.0679  0.2257
 7769TIP3    H144722   5.623   4.235   0.081 -0.3447  1.3552 -2.4577
 7769TIP3    H244723   5.551   4.104   0.057  0.7447  0.1335  0.4285
 7770TIP3   OH244724   1.593   2.986   1.318 -0.1988 -0.8495  1.0103
 7770TIP3    H144725   1.561   3.022   1.235 -2.7195  0.2730  2.3506
 7770TIP3    H244726   1.557   2.897   1.321  0.6189 -1.2064  0.5520
 7771TIP3   OH244727   2.596   4.905  10.943 -0.1855  0.2988 -0.4496
 7771TIP3    H144728   2.524   4.908  10.880  0.3651 -0.5207 -1.1326
 7771TIP3    H244729   2.675   4.905  10.890  0.3167  0.5959  0.2779
 7772TIP3   OH244730   1.814   1.133  13.051 -0.1988  0.3381 -0.2879
 7772TIP3    H144731   1.824   1.131  12.956  0.7078 -0.9042 -0.1828
 7772TIP3    H244732   1.891   1.088  13.085 -0.7377  0.3515  1.0310
 7773TIP3   OH244733   4.272   1.307   0.618 -0.0289  0.3344 -0.1366
 7773TIP3    H144734   4.233   1.305   0.705  1.0537  0.3922  0.3655
 7773TIP3    H244735   4.297   1.399   0.605  1.7481 -0.0488  0.3933
 7774TIP3   OH244736   2.922   4.995   4.535 -0.1224 -0.2321  0.0762
 7774TIP3    H144737   2.853   5.037   4.587 -0.9297  1.5996 -2.2522
 7774TIP3    H244738   2.994   5.059   4.536  1.0409 -1.4955  1.2919
 7775TIP3   OH244739   3.435   0.872  15.274 -0.2079  0.1714 -0.0460
 7775TIP3    H144740   3.473   0.799  15.322  0.1236  0.7380  0.5688
 7775TIP3    H244741   3.350   0.888  15.315 -0.4276 -0.0743 -0.3948
 7776TIP3   OH244742   6.672   4.960   4.496  0.4390 -0.7835 -0.2380
 7776TIP3    H144743   6.593   4.920   4.459 -0.5072 -1.3682  2.2105
 7776TIP3    H244744   6.699   4.900   4.566  0.5805  1.4520  1.7627
 7777TIP3   OH244745   2.828   2.720   5.917  0.0953  0.4762 -0.8887
 7777TIP3    H144746   2.903   2.729   5.975  1.2619  0.3424 -2.3079
 7777TIP3    H244747   2.812   2.626   5.911 -0.0671  0.4933 -0.7456
 7778TIP3   OH244748   2.874   1.456   2.054 -0.2795  0.2161  0.5011
 7778TIP3    H144749   2.957   1.469   2.100 -0.3144 -0.2283  0.6977
 7778TIP3    H244750   2.889   1.380   1.998 -0.8152 -0.4186  1.1933
 7779TIP3   OH244751   4.189   2.711  14.687 -0.4299  0.3049  0.1726
 7779TIP3    H144752   4.150   2.798  14.694 -2.7071 -0.6804  0.7299
 7779TIP3    H244753   4.282   2.728  14.673 -0.9755  2.8182 -1.0379
 7780TIP3   OH244754   1.546   2.673  12.604 -0.5941 -0.3762 -0.4160
 7780TIP3    H144755   1.516   2.601  12.548 -0.5307  0.0302 -0.9827
 7780TIP3    H244756   1.543   2.637  12.693 -0.4987 -1.1044 -0.6959
 7781TIP3   OH244757   0.210   4.945  11.615 -0.3554 -0.8441  0.0405
 7781TIP3    H144758   0.295   4.943  11.572  0.5806  1.9704  1.5109
 7781TIP3    H244759   0.156   4.999  11.558 -0.4713 -0.7523  0.2375
 7782TIP3   OH244760   3.073   2.794  15.127 -0.2244  0.2874  0.0045
 7782TIP3    H144761   3.138   2.739  15.170 -0.4208 -1.2246 -1.5038
 7782TIP3    H244762   3.119   2.877  15.109 -0.5297  1.5754  4.1590
 7783TIP3   OH244763   4.829   1.987   1.525  0.6947  0.3022 -0.3933
 7783TIP3    H144764   4.880   1.928   1.470  0.0642 -0.3694 -0.2665
 7783TIP3    H244765   4.764   1.931   1.567 -0.1093  1.1275 -0.5043
 7784TIP3   OH244766   0.340   1.831  13.486  0.5290  0.4211  0.1927
 7784TIP3    H144767   0.327   1.760  13.548 -1.6407 -0.7591 -1.4608
 7784TIP3    H244768   0.260   1.831  13.433  0.6344  3.8277 -0.1712
 7785TIP3   OH244769   5.095   4.231  12.545 -0.1216 -0.4018  0.7992
 7785TIP3    H144770   5.092   4.142  12.578  3.1194 -1.0226 -0.1898
 7785TIP3    H244771   5.078   4.223  12.452  0.4248 -0.0508  0.6630
 7786TIP3   OH244772   2.563   0.276   5.341  0.0448 -0.2415 -0.3076
 7786TIP3    H144773   2.501   0.331   5.294  1.9344  1.4167 -0.9554
 7786TIP3    H244774   2.626   0.248   5.275  1.3565  0.0982  0.7651
 7787TIP3   OH244775   0.831   3.972  12.896 -0.4141 -0.4698 -0.1026
 7787TIP3    H144776   0.914   4.009  12.865 -0.3475 -0.7558 -0.2709
 7787TIP3    H244777   0.853   3.926  12.976 -0.3855 -0.6564 -0.2172
 7788TIP3   OH244778   0.889   2.577   5.692 -0.5165 -0.1363  0.2566
 7788TIP3    H144779   0.880   2.484   5.674  1.6645 -0.6367  1.4289
 7788TIP3    H244780   0.853   2.589   5.780 -2.2381  0.4806 -0.4826
 7789TIP3   OH244781   4.510   3.727   5.733  0.1877 -0.1076 -0.0803
 7789TIP3    H144782   4.541   3.693   5.816  0.0696 -0.3759 -0.1458
 7789TIP3    H244783   4.573   3.795   5.709  0.4186 -0.2784  0.0485
 7790TIP3   OH244784   0.083   2.390  13.484 -0.1349 -0.2478  0.1864
 7790TIP3    H144785   0.074   2.484  13.467  1.5045 -0.0929 -0.0123
 7790TIP3    H244786   0.029   2.375  13.561 -0.4128  0.8613  0.2332
 7791TIP3   OH244787   3.197   1.497   3.412  0.1607 -0.1034  0.3711
 7791TIP3    H144788   3.264   1.564   3.424  0.7415 -0.6476  0.2318
 7791TIP3    H244789   3.116   1.538   3.443  0.8036  0.0521  1.9318
 7792TIP3   OH244790   1.989   0.557  11.848  0.5387 -0.0107 -0.1443
 7792TIP3    H144791   1.957   0.577  11.760 -1.2469  1.0903  0.7063
 7792TIP3    H244792   1.917   0.511  11.891  0.5550  1.2898  1.3861
 7793TIP3   OH244793   0.642   4.422   1.705 -0.4481 -0.0394 -0.6221
 7793TIP3    H144794   0.569   4.379   1.662 -0.4434 -1.5150  0.7586
 7793TIP3    H244795   0.715   4.360   1.697  0.0608  0.4812 -0.1281
 7794TIP3   OH244796   4.454   4.485   5.177  0.5968 -0.2777 -0.1260
 7794TIP3    H144797   4.461   4.574   5.209 -0.0805  0.7285 -2.5630
 7794TIP3    H244798   4.376   4.450   5.220 -0.0102  0.8339 -0.3000
 7795TIP3   OH244799   4.005   2.533  17.096 -0.1607  0.0981 -0.5244
 7795TIP3    H144800   4.072   2.601  17.095 -0.6918  0.6298 -0.4384
 7795TIP3    H244801   4.018   2.485  17.013  1.3161 -0.8093  0.1967
 7796TIP3   OH244802   3.912   4.881   0.196  0.0603  0.5578  0.2603
 7796TIP3    H144803   3.951   4.968   0.190  2.0733 -0.3671 -0.7444
 7796TIP3    H244804   3.868   4.869   0.111  0.4873  0.2745  0.0790
 7797TIP3   OH244805   2.371   5.018  12.946  0.4198 -0.8272 -0.2460
 7797TIP3    H144806   2.451   4.978  12.980 -0.6698 -1.5784  1.5999
 7797TIP3    H244807   2.317   4.945  12.918  0.9839 -0.2582 -3.1733
 7798TIP3   OH244808   4.570   0.265   1.497  0.2290 -0.0833 -0.0734
 7798TIP3    H144809   4.651   0.295   1.457  1.2129  0.5696  2.2589
 7798TIP3    H244810   4.590   0.176   1.526  0.4130  0.3462  1.1827
 7799TIP3   OH244811   4.366   4.414   1.294 -0.4976 -0.0055  0.6729
 7799TIP3    H144812   4.320   4.493   1.325 -0.1598  0.7251 -0.5995
 7799TIP3    H244813   4.444   4.448   1.250 -0.0208 -1.1047  0.6505
 7800TIP3   OH244814   2.698   4.429   3.078 -0.3228  0.4405  0.9392
 7800TIP3    H144815   2.777   4.477   3.053 -0.2103 -0.6600 -1.1252
 7800TIP3    H244816   2.653   4.412   2.995 -0.8760 -2.0550  1.6491
 7801TIP3   OH244817   6.668   1.594   6.456  0.1816 -0.4493  0.0479
 7801TIP3    H144818   6.762   1.594   6.468  0.3872  1.0274 -1.2453
 7801TIP3    H244819   6.647   1.503   6.433  0.8297 -1.4505  2.9640
 7802TIP3   OH244820   6.068   6.173   3.497 -0.2198  0.5875  0.1910
 7802TIP3    H144821   6.136   6.127   3.546  0.1910  0.0890 -0.8166
 7802TIP3    H244822   6.115   6.220   3.428 -0.9814 -1.0866 -1.5516
 7803TIP3   OH244823   2.476   5.596   1.444  0.2953  0.0752 -0.1336
 7803TIP3    H144824   2.507   5.613   1.533 -0.3894  3.4077 -0.4178
 7803TIP3    H244825   2.386   5.625   1.444  0.2806  0.1249 -1.9430
 7804TIP3   OH244826   1.873   0.427  13.023  0.0849 -0.2019  0.0796
 7804TIP3    H144827   1.926   0.413  13.101  1.1471  0.3386 -0.5214
 7804TIP3    H244828   1.919   0.379  12.954  0.5519  1.3433 -0.7332
 7805TIP3   OH244829   6.200   4.388   3.351  0.2836  0.6258 -0.0780
 7805TIP3    H144830   6.239   4.396   3.263  0.7577 -0.7410 -0.0046
 7805TIP3    H244831   6.130   4.453   3.351  0.4751  0.8691 -1.3581
 7806TIP3   OH244832   6.403   6.723   4.992 -0.2435 -0.1210  0.1987
 7806TIP3    H144833   6.335   6.735   4.925  0.5782 -1.5362 -0.9368
 7806TIP3    H244834   6.354   6.720   5.074 -1.6662 -1.6082 -0.6255
 7807TIP3   OH244835   1.128   5.021   0.272  0.4307  0.1943 -0.0761
 7807TIP3    H144836   1.109   5.099   0.221  1.6713  0.0899 -0.7209
 7807TIP3    H244837   1.100   4.948   0.216 -1.0564  0.1475  0.6645
 7808TIP3   OH244838   0.644   2.232   3.306 -0.2088  0.0174  0.3073
 7808TIP3    H144839   0.591   2.165   3.350 -0.1675 -0.9174 -0.9973
 7808TIP3    H244840   0.708   2.183   3.256  0.6256  1.0941  0.2867
 7809TIP3   OH244841   4.815   4.114   2.023  0.2733  0.0969 -0.9167
 7809TIP3    H144842   4.722   4.126   2.005  0.5296  0.9350 -1.7559
 7809TIP3    H244843   4.849   4.202   2.036  0.5559 -0.3033  1.5886
 7810TIP3   OH244844   6.374   5.244  15.937 -0.4166  0.7710 -0.6611
 7810TIP3    H144845   6.416   5.202  15.862  2.4205  1.2360  0.5446
 7810TIP3    H244846   6.289   5.199  15.945  0.0140 -0.6234 -2.9173
 7811TIP3   OH244847   2.653   4.801  11.197  0.7684  0.3997 -0.2370
 7811TIP3    H144848   2.645   4.841  11.110  1.1232 -0.3196 -0.6072
 7811TIP3    H244849   2.564   4.805  11.234  0.4101 -0.1499 -1.0175
 7812TIP3   OH244850   1.484   2.641  13.814 -0.1249 -0.5027  0.3687
 7812TIP3    H144851   1.438   2.577  13.869  0.0765 -0.7871  0.2084
 7812TIP3    H244852   1.462   2.615  13.724 -0.5672  0.0450  0.3148
 7813TIP3   OH244853   0.127   0.314   3.757  0.0603  0.4048  0.3207
 7813TIP3    H144854   0.101   0.315   3.849  1.1012  1.5875  0.6254
 7813TIP3    H244855   0.103   0.227   3.726 -0.3590  0.0134  1.6924
 7814TIP3   OH244856   5.229   6.681  15.700 -0.3872 -0.3364 -0.7512
 7814TIP3    H144857   5.297   6.649  15.759 -1.0241 -1.6203 -0.6713
 7814TIP3    H244858   5.238   6.776  15.702  0.8609 -0.4498 -0.1082
 7815TIP3   OH244859   5.314   1.029   3.887 -0.2397  0.0906 -0.0422
 7815TIP3    H144860   5.330   0.945   3.929 -0.6171 -0.0155 -0.1085
 7815TIP3    H244861   5.266   1.080   3.952  0.8111  0.6085  0.3692
 7816TIP3   OH244862   3.087   4.481   3.427  0.2791  0.2079 -0.0573
 7816TIP3    H144863   3.129   4.397   3.444  0.2635  0.3310  0.6457
 7816TIP3    H244864   3.023   4.490   3.499  2.6196  2.3685  1.9478
 7817TIP3   OH244865   1.723   3.722   3.289  0.1293 -0.3450  0.7171
 7817TIP3    H144866   1.815   3.695   3.289 -0.1529 -1.3534  0.6505
 7817TIP3    H244867   1.679   3.657   3.344 -0.5380  0.1759  0.8168
 7818TIP3   OH244868   3.769   6.047  12.215  0.3085  0.6076  0.1006
 7818TIP3    H144869   3.745   6.131  12.176  0.4793  0.1541 -1.0206
 7818TIP3    H244870   3.863   6.056  12.235  0.4165  0.5462 -0.3794
 7819TIP3   OH244871   5.324   3.002   3.662  0.2038  1.2657  0.8145
 7819TIP3    H144872   5.260   2.987   3.732  0.6496  1.0453  1.1814
 7819TIP3    H244873   5.283   2.965   3.584  0.3422  0.1088  1.2637
 7820TIP3   OH244874   4.367   5.136   1.336  0.9070 -0.4598 -0.5113
 7820TIP3    H144875   4.300   5.196   1.369  0.4026 -1.2979  0.0338
 7820TIP3    H244876   4.446   5.189   1.327  0.3887  0.3461 -0.3386
 7821TIP3   OH244877   3.074   1.699  14.656  0.3477 -0.0378  0.2480
 7821TIP3    H144878   3.021   1.755  14.713  1.7958  3.1559 -1.3063
 7821TIP3    H244879   3.111   1.759  14.591  3.4312 -2.5663 -0.5786
 7822TIP3   OH244880   2.499   2.065   2.143 -0.2527 -0.4389 -0.3192
 7822TIP3    H144881   2.504   2.023   2.229 -0.4186 -0.5152 -0.3467
 7822TIP3    H244882   2.552   2.010   2.086 -0.7948 -0.8387 -0.4462
 7823TIP3   OH244883   3.291   4.423  16.557 -0.5116 -0.6071 -0.2562
 7823TIP3    H144884   3.311   4.359  16.625 -0.5308 -0.0284  0.3033
 7823TIP3    H244885   3.211   4.389  16.516 -0.4561 -0.9985 -0.0494
 7824TIP3   OH244886   2.181   6.142  12.514 -0.7639  0.1060 -0.5018
 7824TIP3    H144887   2.175   6.053  12.479  2.7484 -0.6937  0.5873
 7824TIP3    H244888   2.142   6.136  12.601  1.6530 -1.1157  0.5889
 7825TIP3   OH244889   3.399   1.681   0.987 -0.0264  0.6020 -0.4381
 7825TIP3    H144890   3.438   1.756   0.942 -0.2893 -0.2414 -2.1413
 7825TIP3    H244891   3.319   1.715   1.026  0.3110  1.4096 -0.4347
 7826TIP3   OH244892   1.850   5.061   4.457 -0.2258 -0.1470 -0.1793
 7826TIP3    H144893   1.769   5.077   4.409 -0.2311  1.3970  0.3102
 7826TIP3    H244894   1.918   5.105   4.407  0.4156 -1.7580 -0.7989
 7827TIP3   OH244895   2.059   2.289   1.886  0.2049  0.0502 -0.6680
 7827TIP3    H144896   2.123   2.223   1.912  1.6873  0.5552 -2.7716
 7827TIP3    H244897   2.034   2.332   1.967  2.0381 -0.6277  0.2972
 7828TIP3   OH244898   0.931   1.973  14.211  0.4319  0.1545 -0.1001
 7828TIP3    H144899   0.841   1.994  14.234  0.5316 -0.6531  1.1248
 7828TIP3    H244900   0.926   1.885  14.174  0.4706  0.8846 -1.9277
 7829TIP3   OH244901   1.740   6.382   4.020 -0.0846 -0.0724  0.2706
 7829TIP3    H144902   1.747   6.471   3.986 -0.0699 -0.4054 -0.6253
 7829TIP3    H244903   1.650   6.376   4.052 -0.6698 -0.2848 -1.3212
 7830TIP3   OH244904   4.363   3.905  13.560  0.0627  0.2498 -0.4381
 7830TIP3    H144905   4.373   3.902  13.655  1.0622 -0.8441 -0.5438
 7830TIP3    H244906   4.277   3.867  13.543  0.3748 -0.6595 -0.0251
 7831TIP3   OH244907   3.445   5.392   1.683  0.8457  0.1404 -0.6308
 7831TIP3    H144908   3.512   5.460   1.687 -0.3220  1.2734  0.4692
 7831TIP3    H244909   3.439   5.370   1.590  1.2345  1.5621 -1.0219
 7832TIP3   OH244910   4.611   1.016   0.155  0.4209 -0.2428  0.1371
 7832TIP3    H144911   4.590   1.088   0.095 -1.3915 -0.5070  0.4194
 7832TIP3    H244912   4.681   1.052   0.210  1.9968  0.0814 -1.9213
 7833TIP3   OH244913   2.703   1.972  17.040 -0.1088  0.1486  0.0333
 7833TIP3    H144914   2.700   1.953  17.134  0.4903  0.8174  0.1869
 7833TIP3    H244915   2.796   1.970  17.018 -0.0575  2.1537 -0.0921
 7834TIP3   OH244916   5.565   4.534   1.628  0.4061  0.7992  0.4799
 7834TIP3    H144917   5.522   4.460   1.671  1.2115  0.6159  1.0056
 7834TIP3    H244918   5.587   4.502   1.541  0.1217  0.6572  0.4599
 7835TIP3   OH244919   5.738   5.727   4.425  0.4291  0.0648 -0.1308
 7835TIP3    H144920   5.709   5.776   4.348  0.6335  1.2511  0.5259
 7835TIP3    H244921   5.826   5.759   4.442  1.5839 -2.2901 -1.0995
 7836TIP3   OH244922   3.201   3.235   1.870 -0.5314  0.0500  0.1934
 7836TIP3    H144923   3.228   3.293   1.799  0.1029  1.6476  1.6644
 7836TIP3    H244924   3.111   3.211   1.848 -0.1966  0.1106 -1.3749
 7837TIP3   OH244925   3.003   6.478   1.682 -0.3100 -0.0243 -0.0147
 7837TIP3    H144926   3.058   6.539   1.632  1.1087 -0.6144  0.7692
 7837TIP3    H244927   2.960   6.425   1.615  1.0281 -0.3498 -0.6591
 7838TIP3   OH244928   2.904   0.327   2.058  0.1108 -0.3506 -0.0070
 7838TIP3    H144929   2.996   0.311   2.081 -0.1142 -1.7661 -0.0335
 7838TIP3    H244930   2.906   0.344   1.963  0.4138  0.2969  0.1087
 7839TIP3   OH244931   5.730   4.169   4.755  0.1788  0.2941 -0.7426
 7839TIP3    H144932   5.652   4.188   4.808 -0.3923 -1.4646 -0.8993
 7839TIP3    H244933   5.696   4.150   4.668  1.0162  1.9186 -1.4553
 7840TIP3   OH244934   1.547   5.948   0.102  0.0694 -0.3369  0.6862
 7840TIP3    H144935   1.548   5.922   0.194  0.7776  2.5832  1.6305
 7840TIP3    H244936   1.639   5.949   0.076  0.1570  1.5029  0.8862
 7841TIP3   OH244937   6.328   0.751   4.307 -0.0470  0.6594 -0.4022
 7841TIP3    H144938   6.298   0.666   4.275  1.4768 -1.0334  2.3161
 7841TIP3    H244939   6.248   0.798   4.330 -0.8704 -1.5213  1.4616
 7842TIP3   OH244940   3.068   1.693  16.579 -0.4694 -0.1287 -0.0480
 7842TIP3    H144941   3.035   1.719  16.665  0.4294 -0.4560  0.4087
 7842TIP3    H244942   3.159   1.666  16.595 -0.4532 -0.6972 -1.0080
 7843TIP3   OH244943   2.310   1.911  13.186 -0.0930 -0.2593  0.2905
 7843TIP3    H144944   2.285   1.843  13.124  1.5099  0.6685 -1.4860
 7843TIP3    H244945   2.232   1.926  13.239 -1.6207 -0.9262 -1.6609
 7844TIP3   OH244946   6.145   0.139  13.200 -0.3662  0.4043 -0.6093
 7844TIP3    H144947   6.230   0.120  13.161 -0.8889 -0.0545 -1.5712
 7844TIP3    H244948   6.137   0.077  13.273  0.4230  0.9485 -0.0494
 7845TIP3   OH244949   2.001   3.168  10.513  0.2619  0.0119  0.1162
 7845TIP3    H144950   2.004   3.087  10.462 -2.1753  0.1075 -0.3107
 7845TIP3    H244951   2.055   3.150  10.590 -0.5956 -2.2294  0.2848
 7846TIP3   OH244952   6.230   2.333  10.286 -0.2973 -0.3082  0.6367
 7846TIP3    H144953   6.157   2.324  10.348 -0.0247 -0.7206  0.9010
 7846TIP3    H244954   6.203   2.284  10.209  0.5850 -2.3135  1.5334
 7847TIP3   OH244955   4.895   6.336   1.073  0.2496  0.4462 -0.2120
 7847TIP3    H144956   4.805   6.306   1.080  0.6202 -0.7840 -0.4475
 7847TIP3    H244957   4.939   6.299   1.149  0.6108  0.8455 -0.2203
 7848TIP3   OH244958   3.408   0.127  17.020  0.8066 -0.6221 -0.3454
 7848TIP3    H144959   3.497   0.093  17.012  0.5008 -1.2765 -1.1085
 7848TIP3    H244960   3.352   0.054  16.996 -0.0333 -0.7365  1.7609
 7849TIP3   OH244961   5.222   4.536  14.500 -0.5117  0.0956  0.0448
 7849TIP3    H144962   5.139   4.488  14.507  0.9332 -2.8367 -1.3748
 7849TIP3    H244963   5.282   4.475  14.457  2.4939  2.0089  1.2021
 7850TIP3   OH244964   3.824   1.086   2.102 -0.0309  0.0428 -0.1226
 7850TIP3    H144965   3.819   1.179   2.077 -0.6160  0.0227 -0.0792
 7850TIP3    H244966   3.874   1.086   2.183 -0.5089  0.3736  0.1740
 7851TIP3   OH244967   0.708   0.476  10.358  0.3912  0.2388 -0.4088
 7851TIP3    H144968   0.654   0.401  10.331  0.7479 -0.3432  0.4490
 7851TIP3    H244969   0.645   0.544  10.379  0.0103 -0.2239 -0.0335
 7852TIP3   OH244970   0.865   3.318   0.910 -0.4460  0.2402  0.3474
 7852TIP3    H144971   0.775   3.283   0.916 -0.8784  1.2884  0.1774
 7852TIP3    H244972   0.888   3.339   1.001 -0.5552  0.4210  0.3331
 7853TIP3   OH244973   0.385   1.272   5.364  0.0190  0.0653 -0.8222
 7853TIP3    H144974   0.395   1.315   5.449  0.5919  0.3539 -1.0352
 7853TIP3    H244975   0.383   1.178   5.386  0.9975  0.0901 -0.5517
 7854TIP3   OH244976   5.395   0.351   0.165 -0.6766  0.1777  0.0969
 7854TIP3    H144977   5.439   0.286   0.221 -0.6821  0.6758  0.6882
 7854TIP3    H244978   5.325   0.301   0.122 -0.7435 -0.1913  0.6197
 7855TIP3   OH244979   2.497   4.924  14.444  0.2049 -0.0599 -0.5519
 7855TIP3    H144980   2.413   4.968  14.456  0.6245  0.4725  0.5329
 7855TIP3    H244981   2.541   4.976  14.377 -0.1000 -0.0061 -0.7140
 7856TIP3   OH244982   3.209   6.048  14.045  0.3857  0.1059  0.4820
 7856TIP3    H144983   3.148   6.101  13.994 -0.7808 -0.3450  1.3887
 7856TIP3    H244984   3.291   6.099  14.043  0.2933  0.2625 -1.5315
 7857TIP3   OH244985   3.924   1.499  14.991 -1.1303 -0.3023  0.2140
 7857TIP3    H144986   3.937   1.472  15.082 -0.8195 -1.3154 -0.1182
 7857TIP3    H244987   3.927   1.418  14.941 -0.3643  0.3247 -0.8117
 7858TIP3   OH244988   5.051   1.739  15.353 -0.0195  0.0851  0.3068
 7858TIP3    H144989   4.973   1.795  15.356  0.0051  0.1443 -0.1136
 7858TIP3    H244990   5.099   1.761  15.432  1.3252  2.5978 -1.0682
 7859TIP3   OH244991   0.648   6.243   2.588  0.2229 -0.2603  0.1551
 7859TIP3    H144992   0.606   6.202   2.512 -0.0194 -0.3462  0.3330
 7859TIP3    H244993   0.638   6.337   2.574 -0.6459 -0.2872  0.5335
 7860TIP3   OH244994   3.979   1.680   3.469  0.0424  0.1901  0.0381
 7860TIP3    H144995   4.062   1.658   3.428  0.4354  1.6553 -0.0083
 7860TIP3    H244996   3.997   1.758   3.520 -1.3647  0.6992 -0.1859
 7861TIP3   OH244997   3.988   0.341  12.418  0.7134  0.5674  0.4915
 7861TIP3    H144998   3.908   0.367  12.371  1.0800 -0.1694 -0.5888
 7861TIP3    H244999   3.956   0.289  12.491  0.1791  0.5719  0.2730
 7862TIP3   OH245000   1.393   4.109  11.772  0.1795 -0.1352  0.6350
 7862TIP3    H145001   1.381   4.202  11.751  0.8656  0.2010  1.6277
 7862TIP3    H245002   1.318   4.066  11.733 -0.4759  0.9287  0.6713
 7863TIP3   OH245003   4.986   3.343  16.804  0.1990 -0.6441  0.0484
 7863TIP3    H145004   4.895   3.323  16.825  0.0812 -1.2900 -1.0071
 7863TIP3    H245005   4.994   3.326  16.710  1.0540  0.7985 -0.1704
 7864TIP3   OH245006   3.319   4.211  15.096 -0.5240  0.4051  0.0270
 7864TIP3    H145007   3.294   4.131  15.051 -1.9957  1.2100 -0.6558
 7864TIP3    H245008   3.372   4.259  15.031  1.0173 -0.3197  0.7029
 7865TIP3   OH245009   6.006   5.745   4.138  0.0775 -0.2803  0.3586
 7865TIP3    H145010   5.917   5.734   4.104 -0.8913 -0.2470  2.7054
 7865TIP3    H245011   6.039   5.824   4.094 -1.6995  0.6770  0.6759
 7866TIP3   OH245012   6.466   4.326  15.159  0.1186 -0.1175 -0.3924
 7866TIP3    H145013   6.509   4.334  15.074  0.1832 -1.2761 -0.4898
 7866TIP3    H245014   6.386   4.377  15.151  0.2265 -0.0574 -1.0819
 7867TIP3   OH245015   0.607   1.390   4.682 -0.1211 -0.2768  0.0149
 7867TIP3    H145016   0.569   1.303   4.699 -2.3487  0.5747 -0.2751
 7867TIP3    H245017   0.602   1.434   4.767  0.4311 -0.2157  0.0161
 7868TIP3   OH245018   2.897   6.451  16.795 -0.0395 -0.2558  0.5171
 7868TIP3    H145019   2.858   6.445  16.708  1.2273  0.0765 -0.0943
 7868TIP3    H245020   2.929   6.542  16.801 -0.0799 -0.2851  1.3089
 7869TIP3   OH245021   4.045   2.713   6.281 -0.1359  0.0741  0.1082
 7869TIP3    H145022   4.098   2.745   6.353 -0.3916  2.1867 -0.5646
 7869TIP3    H245023   4.008   2.792   6.242 -1.5478 -1.1471 -1.1430
 7870TIP3   OH245024   0.654   2.968  13.604 -0.3055 -0.5011  0.4331
 7870TIP3    H145025   0.590   2.905  13.571  0.4285  0.0672 -2.3480
 7870TIP3    H245026   0.626   3.052  13.567  0.0216  0.4398  2.2093
 7871TIP3   OH245027   3.059   5.913  16.449 -0.1262  0.1391 -0.2733
 7871TIP3    H145028   3.125   5.896  16.382  0.8199 -0.3766  0.7487
 7871TIP3    H245029   3.104   5.895  16.532 -1.4809  0.0318  0.4706
 7872TIP3   OH245030   4.437   1.965   3.710 -0.2072  0.0751  0.2044
 7872TIP3    H145031   4.518   2.008   3.740  0.7812  0.0962 -2.2218
 7872TIP3    H245032   4.443   1.877   3.745  0.5021  0.2954  0.6762
 7873TIP3   OH245033   5.778   3.556   0.668  0.1072 -0.0538  0.3615
 7873TIP3    H145034   5.801   3.649   0.671 -1.4777  0.4434 -1.2137
 7873TIP3    H245035   5.818   3.519   0.747  2.5022  1.5307  0.0059
 7874TIP3   OH245036   5.838   0.650   4.333 -0.3309  0.0593 -0.2995
 7874TIP3    H145037   5.895   0.639   4.409 -1.2624  1.8603  0.7201
 7874TIP3    H245038   5.881   0.718   4.281 -0.5903  0.0661 -0.5057
 7875TIP3   OH245039   0.322   2.021  11.027  0.1501  0.2892 -0.7462
 7875TIP3    H145040   0.277   2.038  10.944  0.1224 -0.3171 -0.8601
 7875TIP3    H245041   0.252   2.005  11.090  0.1985 -0.5778 -0.9063
 7876TIP3   OH245042   6.011   4.950   2.774 -0.1155  0.1480 -0.3103
 7876TIP3    H145043   6.097   4.990   2.789 -0.0836 -0.2683  0.7131
 7876TIP3    H245044   5.971   5.004   2.707 -0.0575  1.9089  0.9900
 7877TIP3   OH245045   1.123   5.381   1.108 -0.7876 -0.6950 -0.1981
 7877TIP3    H145046   1.162   5.435   1.177  1.2263 -0.3510 -1.5410
 7877TIP3    H245047   1.068   5.442   1.059 -0.0862 -0.2932 -0.5045
 7878TIP3   OH245048   1.942   5.064  15.705 -0.5749 -0.2564  0.3251
 7878TIP3    H145049   1.887   5.095  15.632 -1.7716 -0.4483  1.1267
 7878TIP3    H245050   2.023   5.116  15.697 -0.8829  0.0816 -0.8327
 7879TIP3   OH245051   3.512   1.281   4.188  0.1239  0.5618  0.3486
 7879TIP3    H145052   3.503   1.186   4.199 -0.5095  0.4529 -0.9095
 7879TIP3    H245053   3.553   1.311   4.269  0.2882 -0.7790  0.7863
 7880TIP3   OH245054   4.847   1.351  15.045 -0.2596 -0.3251 -0.0624
 7880TIP3    H145055   4.851   1.299  15.125  2.5093 -0.0764  0.0656
 7880TIP3    H245056   4.937   1.351  15.012 -0.9622  1.1057 -2.2011
 7881TIP3   OH245057   1.177   5.729  11.342 -0.2033  0.0900  0.3826
 7881TIP3    H145058   1.115   5.692  11.280  0.6687 -1.9545  0.6437
 7881TIP3    H245059   1.123   5.786  11.398 -1.9514 -1.8727  0.8318
 7882TIP3   OH245060   1.319   3.341  13.581 -0.6228 -0.0861  0.0459
 7882TIP3    H145061   1.326   3.337  13.676 -0.9932  0.5506  0.1020
 7882TIP3    H245062   1.231   3.372  13.564 -0.8482 -1.0007 -0.5314
 7883TIP3   OH245063   6.577   2.618   0.544 -0.1868  0.2139 -0.0004
 7883TIP3    H145064   6.495   2.642   0.501 -2.0313 -1.2040  2.4428
 7883TIP3    H245065   6.580   2.673   0.622  0.9274 -0.1098  0.1966
 7884TIP3   OH245066   1.813   0.330   1.853 -0.3372 -0.3127  0.7029
 7884TIP3    H145067   1.876   0.393   1.817  0.3429 -0.2507  1.9370
 7884TIP3    H245068   1.853   0.302   1.936 -0.8172 -2.0520  0.3881
 7885TIP3   OH245069   5.434   4.943  13.008  0.0168  0.0138  0.4361
 7885TIP3    H145070   5.399   4.874  13.063  0.6512 -0.2938  0.4606
 7885TIP3    H245071   5.460   4.900  12.927 -0.1333  0.3211  0.2207
 7886TIP3   OH245072   1.985   1.886  14.690  0.2612  0.1268 -0.7560
 7886TIP3    H145073   1.903   1.843  14.712 -0.0821  1.9289  1.8439
 7886TIP3    H245074   1.961   1.950  14.623 -0.6224  1.0351  0.3862
 7887TIP3   OH245075   3.129   5.380  11.348  0.0081  0.1255 -0.1834
 7887TIP3    H145076   3.201   5.374  11.411 -1.1509 -1.0276  1.1088
 7887TIP3    H245077   3.171   5.406  11.266  1.3423  3.5172  1.4036
 7888TIP3   OH245078   6.546   5.667  12.846  0.0608 -0.5266 -0.3222
 7888TIP3    H145079   6.486   5.736  12.820  1.5977  0.5016 -1.2814
 7888TIP3    H245080   6.514   5.639  12.932 -1.6276  0.1236 -0.6925
 7889TIP3   OH245081   5.949   0.516   0.718 -0.4084 -0.0737  0.1723
 7889TIP3    H145082   5.936   0.487   0.808 -1.1119 -0.3613 -0.0186
 7889TIP3    H245083   5.971   0.436   0.670  3.7687  0.5047  0.7217
 7890TIP3   OH245084   0.233   4.212  15.762 -0.2373  0.8607 -0.2125
 7890TIP3    H145085   0.203   4.272  15.830 -3.0460 -0.4153 -0.1869
 7890TIP3    H245086   0.280   4.143  15.809 -1.6028  0.3233  0.4121
 7891TIP3   OH245087   1.761   4.021   4.495 -0.3966  0.1365 -0.2720
 7891TIP3    H145088   1.787   3.942   4.447 -0.5478 -0.4799  0.6391
 7891TIP3    H245089   1.700   4.066   4.436  1.3744  0.7505 -1.7385
 7892TIP3   OH245090   0.768   5.412   0.034 -1.0568 -0.3449  0.1705
 7892TIP3    H145091   0.791   5.499   0.000 -3.0413 -0.5898 -2.1180
 7892TIP3    H245092   0.693   5.428   0.091 -1.3134 -0.5047 -0.1158
 7893TIP3   OH245093   3.248   3.405   2.926 -0.3986  0.2007 -0.4192
 7893TIP3    H145094   3.171   3.387   2.980  0.1060 -1.7204 -0.2656
 7893TIP3    H245095   3.320   3.363   2.972  0.2855 -0.3235 -1.8953
 7894TIP3   OH245096   6.100   6.681   5.169 -0.7100 -0.0361 -0.0024
 7894TIP3    H145097   6.190   6.702   5.194 -0.1953 -0.4707 -1.3836
 7894TIP3    H245098   6.059   6.766   5.152 -0.6282  0.1733  0.8163
 7895TIP3   OH245099   3.391   2.502  15.572  0.1154 -0.9751  0.0803
 7895TIP3    H145100   3.446   2.474  15.499  0.8836 -1.1558  0.7135
 7895TIP3    H245101   3.447   2.494  15.649  0.2969  1.9575  0.3718
 7896TIP3   OH245102   1.022   4.305   4.931 -0.2420 -0.8006 -0.0166
 7896TIP3    H145103   1.019   4.350   5.016  0.2091 -0.9552  0.0814
 7896TIP3    H245104   0.938   4.258   4.927  0.0140 -1.3361  0.6440
 7897TIP3   OH245105   5.467   1.665   2.859 -0.0618  0.0431 -0.2119
 7897TIP3    H145106   5.519   1.701   2.787 -0.9868 -0.6958 -1.2768
 7897TIP3    H245107   5.509   1.581   2.879  0.5837  0.5378  0.5715
 7898TIP3   OH245108   5.588   3.996  15.838  0.1839 -0.9211 -0.1827
 7898TIP3    H145109   5.602   4.071  15.781  2.2787 -1.7956 -0.9128
 7898TIP3    H245110   5.627   4.021  15.921 -0.2660 -0.7494 -0.0164
 7899TIP3   OH245111   5.920   1.596  16.442 -0.0406  0.0371  0.5391
 7899TIP3    H145112   6.008   1.632  16.448  0.1496 -0.0959 -1.1386
 7899TIP3    H245113   5.868   1.664  16.400 -0.0190 -0.9935 -1.2596
 7900TIP3   OH245114   0.167   6.504   0.593  0.6034  0.3500  0.6856
 7900TIP3    H145115   0.144   6.594   0.615  0.3411 -0.0865  2.3532
 7900TIP3    H245116   0.090   6.469   0.548  1.0807  1.2205 -0.8819
 7901TIP3   OH245117   4.551   0.451  12.690  0.0413 -0.8079 -0.4467
 7901TIP3    H145118   4.507   0.421  12.610  2.2679 -0.7194 -1.7839
 7901TIP3    H245119   4.563   0.372  12.742 -1.8162 -0.8016  0.0573
 7902TIP3   OH245120   1.625   3.991  13.948 -0.2851 -0.2028 -0.2228
 7902TIP3    H145121   1.632   3.897  13.930  0.1935 -0.1917 -0.1002
 7902TIP3    H245122   1.703   4.011  14.000 -1.8227 -0.3417  2.3000
 7903TIP3   OH245123   4.533   6.393  15.183  0.6587 -0.5986  0.5491
 7903TIP3    H145124   4.473   6.464  15.159 -0.1479 -1.1728  0.8451
 7903TIP3    H245125   4.620   6.433  15.175  0.2706  0.1425 -0.2283
 7904TIP3   OH245126   3.119   0.948   0.782  0.0288 -0.0329  0.0502
 7904TIP3    H145127   3.136   1.042   0.777  2.1548 -0.4413 -2.1675
 7904TIP3    H245128   3.030   0.938   0.748  0.0943  1.1099 -0.5147
 7905TIP3   OH245129   6.635   5.966  16.796  0.0500 -0.3973 -0.6452
 7905TIP3    H145130   6.570   5.993  16.731  0.7779 -0.3471 -1.3712
 7905TIP3    H245131   6.682   6.047  16.819  0.9869 -0.7044 -1.4179
 7906TIP3   OH245132   0.011   0.734   1.958  0.3154 -0.9291  0.1548
 7906TIP3    H145133  -0.067   0.790   1.950  0.2445 -1.1639 -1.0480
 7906TIP3    H245134   0.048   0.732   1.870  1.2098 -1.5042  0.5303
 7907TIP3   OH245135   0.785   0.718   1.489  0.0093 -0.1730  0.1634
 7907TIP3    H145136   0.810   0.627   1.501  1.3045 -0.0458 -1.2022
 7907TIP3    H245137   0.862   0.759   1.449 -0.9191  1.2712 -0.2325
 7908TIP3   OH245138   0.997   3.008  15.022  0.2194  0.8062 -0.1007
 7908TIP3    H145139   1.091   3.021  15.012  0.3326  0.1434  0.0812
 7908TIP3    H245140   0.989   2.929  15.074 -0.4324  1.2319  0.4642
 7909TIP3   OH245141   4.044   5.774   3.514 -0.1037  0.1328  0.0616
 7909TIP3    H145142   4.030   5.807   3.425  1.1736 -0.5431 -0.4179
 7909TIP3    H245143   4.009   5.842   3.571 -1.6856  0.2340 -0.9545
 7910TIP3   OH245144   0.415   5.544  16.119 -0.8678  0.6435  0.0478
 7910TIP3    H145145   0.420   5.558  16.024  2.2259  0.2313  0.0359
 7910TIP3    H245146   0.358   5.468  16.129 -1.1436  0.6133 -1.5005
 7911TIP3   OH245147   5.842   6.417  14.906  0.3715  0.2153  0.1801
 7911TIP3    H145148   5.909   6.385  14.846  0.0287 -0.6796  0.2713
 7911TIP3    H245149   5.888   6.481  14.961  0.7987  0.6789 -0.7024
 7912TIP3   OH245150   1.669   3.835  16.230  0.5082 -0.0276  0.3411
 7912TIP3    H145151   1.670   3.857  16.323  1.2152  0.6255  0.1930
 7912TIP3    H245152   1.759   3.853  16.201 -0.0919  1.2766 -0.8050
 7913TIP3   OH245153   5.374   2.546  14.191 -0.3679 -0.1185 -0.1354
 7913TIP3    H145154   5.329   2.630  14.196  1.8066  1.3432 -2.1991
 7913TIP3    H245155   5.448   2.555  14.252 -1.5964 -1.6744  1.6807
 7914TIP3   OH245156   3.809   6.520   1.374  0.3949 -0.1359 -0.5965
 7914TIP3    H145157   3.904   6.525   1.369  0.3245  0.6126 -1.4285
 7914TIP3    H245158   3.779   6.536   1.284 -0.5694  1.6223 -0.0058
 7915TIP3   OH245159   6.555   1.852   4.828  0.2982 -0.7496 -0.0391
 7915TIP3    H145160   6.477   1.806   4.797  0.6730 -0.7919 -0.9522
 7915TIP3    H245161   6.573   1.815   4.914 -0.4351 -1.0500 -0.0150
 7916TIP3   OH245162   0.945   1.630   6.306 -0.8723  0.7362  0.5557
 7916TIP3    H145163   0.888   1.698   6.343 -1.1112  0.6440  0.3594
 7916TIP3    H245164   0.940   1.558   6.370 -1.5098  0.4656  0.2147
 7917TIP3   OH245165   0.325   1.763  17.038 -0.2345  0.3116  0.3795
 7917TIP3    H145166   0.365   1.847  17.062 -0.8540  0.8141 -0.3135
 7917TIP3    H245167   0.346   1.752  16.945 -4.5373  2.3194 -1.0952
 7918TIP3   OH245168   3.238   0.376   2.850 -0.3999  0.4436  0.3129
 7918TIP3    H145169   3.321   0.329   2.840  0.4072  2.0693 -1.0650
 7918TIP3    H245170   3.195   0.367   2.765 -0.1916  2.2101 -0.0034
 7919TIP3   OH245171   3.725   6.593   2.979  0.0797 -0.0615  0.0144
 7919TIP3    H145172   3.778   6.598   3.058  0.6577  2.4097 -0.4396
 7919TIP3    H245173   3.640   6.628   3.005  0.1029  0.2508 -0.3176
 7920TIP3   OH245174   3.284   5.927   1.281 -0.1439 -0.2746 -0.5304
 7920TIP3    H145175   3.299   6.021   1.270  0.0422 -0.1853  0.3764
 7920TIP3    H245176   3.354   5.885   1.231  1.1004  0.1105  0.8049
 7921TIP3   OH245177   5.802   6.195   0.090  0.5495  0.1218 -0.2047
 7921TIP3    H145178   5.737   6.224   0.026 -2.3474 -0.3277  2.3300
 7921TIP3    H245179   5.780   6.103   0.107  1.8488 -0.0373  0.7378
 7922TIP3   OH245180   0.111   3.102  11.528  0.1294 -0.3963 -0.1167
 7922TIP3    H145181   0.161   3.138  11.600 -0.4258  0.0107  0.0787
 7922TIP3    H245182   0.176   3.080  11.461  0.4950  1.0836 -0.2936
 7923TIP3   OH245183   1.754   1.016   3.087 -0.1416  0.0156 -0.5497
 7923TIP3    H145184   1.714   1.020   3.174  1.8352  2.8048  0.3628
 7923TIP3    H245185   1.831   0.960   3.098 -1.0732 -1.4352 -1.1197
 7924TIP3   OH245186   2.115   5.118   5.034 -0.2303  0.1268  0.5216
 7924TIP3    H145187   2.079   5.159   5.113 -1.2404  0.1729  0.0401
 7924TIP3    H245188   2.097   5.025   5.045  0.1586  0.0570  0.6085
 7925TIP3   OH245189   3.475   3.677  11.979  0.4089 -0.0211  0.7124
 7925TIP3    H145190   3.457   3.656  11.888  0.9091 -0.9802  0.8251
 7925TIP3    H245191   3.567   3.655  11.991  0.5471  0.8114  1.2557
 7926TIP3   OH245192   4.482   3.468   5.117 -0.3166 -0.3903 -0.6087
 7926TIP3    H145193   4.558   3.520   5.144 -0.8331 -0.2658  0.6783
 7926TIP3    H245194   4.493   3.458   5.022  0.3811  1.1264 -0.7324
 7927TIP3   OH245195   3.465   6.406  16.652 -0.3567  0.4010  0.1540
 7927TIP3    H145196   3.430   6.377  16.736 -3.7937  1.9071 -0.5756
 7927TIP3    H245197   3.502   6.327  16.613 -1.9224 -1.1424  1.6070
 7928TIP3   OH245198   5.406   3.325  11.902 -0.5411  1.0192  0.0693
 7928TIP3    H145199   5.493   3.336  11.940 -0.3026  0.0632 -0.1647
 7928TIP3    H245200   5.416   3.356  11.812 -0.2871  0.4122 -0.1200
 7929TIP3   OH245201   0.028   3.573  15.731 -0.4889 -0.4281 -0.1418
 7929TIP3    H145202   0.119   3.595  15.709  0.0523 -1.6630  0.7559
 7929TIP3    H245203  -0.010   3.543  15.649  0.6112 -2.0665 -0.1137
 7930TIP3   OH245204   2.842   5.001   0.479 -0.3022  0.6091  0.2925
 7930TIP3    H145205   2.773   4.999   0.413  1.0394  2.3434 -1.2813
 7930TIP3    H245206   2.906   4.937   0.449  0.8906  2.2498 -0.8821
 7931TIP3   OH245207   5.402   1.403   4.373 -0.0386 -0.5552  0.2457
 7931TIP3    H145208   5.426   1.410   4.281  0.8904 -0.4256  0.4905
 7931TIP3    H245209   5.349   1.323   4.378 -1.1215  0.0672 -0.5922
 7932TIP3   OH245210   6.619   2.626  11.313  0.2718  0.5903 -0.2810
 7932TIP3    H145211   6.567   2.577  11.377 -0.1349  2.2170  0.6946
 7932TIP3    H245212   6.597   2.587  11.228 -1.2933  0.1809  0.2863
 7933TIP3   OH245213   5.738   0.320  16.084  0.1025 -0.7561 -0.3608
 7933TIP3    H145214   5.804   0.262  16.121 -0.1458  0.5416  2.3307
 7933TIP3    H245215   5.661   0.309  16.139 -0.3977  1.1041 -0.6030
 7934TIP3   OH245216   2.223   0.822  14.228 -0.7063  0.1221 -0.1123
 7934TIP3    H145217   2.217   0.761  14.155  1.3910  0.2076 -0.4116
 7934TIP3    H245218   2.133   0.831  14.259 -1.1061 -3.2327  0.0629
 7935TIP3   OH245219   4.988   1.492  14.339  0.1270 -0.4276  0.0051
 7935TIP3    H145220   5.012   1.461  14.252 -0.8770 -0.8904 -0.1203
 7935TIP3    H245221   5.012   1.421  14.398 -1.1843 -1.0430 -0.1604
 7936TIP3   OH245222   6.702   0.746  15.640  0.0697 -0.1186  0.1108
 7936TIP3    H145223   6.712   0.838  15.618  2.4045 -0.3717 -0.0959
 7936TIP3    H245224   6.706   0.700  15.556 -0.1164 -0.4795  0.2949
 7937TIP3   OH245225   4.152   2.074   0.999 -0.3276 -0.2615 -0.0899
 7937TIP3    H145226   4.201   1.992   0.995 -0.0150 -0.1010  0.2984
 7937TIP3    H245227   4.156   2.108   0.910  2.4659  0.9724  0.3744
 7938TIP3   OH245228   4.713   2.947  14.763  0.2259 -0.6484  0.6364
 7938TIP3    H145229   4.700   2.903  14.679 -0.8418 -0.0534  0.4700
 7938TIP3    H245230   4.805   2.974  14.763 -0.0130  0.2351 -0.7802
 7939TIP3   OH245231   6.065   4.582  14.870  0.3093 -0.5857  0.1510
 7939TIP3    H145232   6.050   4.489  14.883  0.9374 -1.0407 -1.8948
 7939TIP3    H245233   6.160   4.592  14.872  0.2644 -0.0754 -0.0069
 7940TIP3   OH245234   1.551   2.827   2.921 -0.3012 -0.5781 -0.4985
 7940TIP3    H145235   1.599   2.909   2.914  0.3823 -1.0359 -1.5010
 7940TIP3    H245236   1.476   2.847   2.977  0.2066  0.5533 -0.2052
 7941TIP3   OH245237   0.048   2.373  11.375 -0.5355 -0.4619 -0.0448
 7941TIP3    H145238   0.016   2.458  11.406 -2.5527 -2.6780  4.9624
 7941TIP3    H245239   0.117   2.350  11.437 -0.9080 -2.9973 -0.4717
 7942TIP3   OH245240   0.764   0.583   3.484  0.0520  0.6554  0.0658
 7942TIP3    H145241   0.759   0.503   3.432  0.8282  0.2910  0.5504
 7942TIP3    H245242   0.838   0.570   3.543 -0.0613  1.5652  0.4298
 7943TIP3   OH245243   1.243   3.988  17.168 -0.1696 -0.0646 -0.2524
 7943TIP3    H145244   1.300   3.915  17.193  1.2294  0.9143 -0.5148
 7943TIP3    H245245   1.193   3.953  17.094  1.5126 -0.3435 -1.3222
 7944TIP3   OH245246   3.454   5.911  13.790 -0.6455  0.6071 -0.0781
 7944TIP3    H145247   3.451   5.876  13.700 -1.8600  1.8279 -0.5411
 7944TIP3    H245248   3.412   5.997  13.784 -0.3754  0.8865  1.5933
 7945TIP3   OH245249   0.292   4.962   0.094 -0.3669 -0.2892  0.0980
 7945TIP3    H145250   0.339   4.894   0.142 -1.4991 -1.6085 -0.5879
 7945TIP3    H245251   0.361   5.014   0.053  0.5576 -0.4187  1.4085
 7946TIP3   OH245252   2.179   4.504   0.549  0.3907 -0.0353 -0.2110
 7946TIP3    H145253   2.246   4.496   0.482 -0.7364  1.2680 -1.5571
 7946TIP3    H245254   2.107   4.551   0.507 -1.8030 -2.1824  0.8802
 7947TIP3   OH245255   5.995   1.281  11.464 -0.0151  0.3810 -0.3942
 7947TIP3    H145256   6.044   1.290  11.546  1.5629 -1.0506 -1.1248
 7947TIP3    H245257   5.950   1.197  11.472  0.6529 -0.0667 -1.2310
 7948TIP3   OH245258   0.525   2.994  15.859 -0.6479  0.2684  0.2323
 7948TIP3    H145259   0.484   3.040  15.786  0.8286  2.4527  0.6729
 7948TIP3    H245260   0.461   2.999  15.930 -1.1014  0.3205 -0.1786
 7949TIP3   OH245261   4.899   0.557   4.069  0.8922  0.9116 -0.3947
 7949TIP3    H145262   4.891   0.652   4.067 -4.8237  0.7249 -1.3792
 7949TIP3    H245263   4.892   0.530   3.977 -2.4727 -0.4150  0.1087
 7950TIP3   OH245264   2.856   4.267  15.694 -0.1859 -0.3848  0.1910
 7950TIP3    H145265   2.841   4.182  15.655 -0.0177 -0.6790  0.7547
 7950TIP3    H245266   2.881   4.324  15.621 -0.8753 -0.6704 -0.2729
 7951TIP3   OH245267   0.110   0.500  14.374 -0.3479  0.1414  0.2406
 7951TIP3    H145268   0.196   0.529  14.344  0.2347 -0.7772  0.9600
 7951TIP3    H245269   0.097   0.416  14.329  0.4342 -1.1413  2.2675
 7952TIP3   OH245270   1.459   5.168  12.789  0.3950 -0.5604 -0.1027
 7952TIP3    H145271   1.446   5.217  12.708 -1.4667  0.5023  0.7594
 7952TIP3    H245272   1.486   5.235  12.852 -1.8913 -0.6105  1.0254
 7953TIP3   OH245273   1.324   2.070  14.860 -0.2281 -0.4231  0.2652
 7953TIP3    H145274   1.351   2.109  14.943  3.1998 -1.4140 -0.2204
 7953TIP3    H245275   1.318   2.144  14.800  1.4084 -0.0689  0.4822
 7954TIP3   OH245276   1.633   0.556   0.376 -0.3324  0.4145  0.4244
 7954TIP3    H145277   1.550   0.582   0.336  0.2123  1.2040 -0.2314
 7954TIP3    H245278   1.628   0.591   0.466 -0.5654  0.7981  0.2655
 7955TIP3   OH245279   0.549   3.911   4.918  0.2860 -1.3481 -0.5037
 7955TIP3    H145280   0.622   3.971   4.931  0.4006 -1.3254 -1.1672
 7955TIP3    H245281   0.471   3.962   4.938  0.4773 -1.5351  0.7454
 7956TIP3   OH245282   4.705   1.373   4.883  0.4956  0.3621  0.2530
 7956TIP3    H145283   4.692   1.460   4.922 -0.7335 -0.1033  0.9342
 7956TIP3    H245284   4.624   1.356   4.834  0.4044 -0.7018  0.7394
 7957TIP3   OH245285   2.617   4.239  16.364 -0.6921  0.1332 -0.4001
 7957TIP3    H145286   2.657   4.160  16.402 -1.9933  0.0732  0.9295
 7957TIP3    H245287   2.691   4.287  16.327  0.6581  0.0220  1.9376
 7958TIP3   OH245288   2.731   6.096   1.176  0.1663  0.1065 -0.7232
 7958TIP3    H145289   2.822   6.120   1.196  0.3997  1.1637 -2.8202
 7958TIP3    H245290   2.678   6.156   1.229  0.6989  0.5034 -0.6335
 7959TIP3   OH245291   4.704   4.328  16.380  0.8329 -0.4425 -0.4546
 7959TIP3    H145292   4.610   4.332  16.365  1.0364 -1.1824 -2.1921
 7959TIP3    H245293   4.714   4.343  16.474 -0.8935  1.0962 -0.4598
 7960TIP3   OH245294   1.555   0.961  15.113 -0.1452 -0.1668  0.1557
 7960TIP3    H145295   1.461   0.945  15.123  0.2679 -1.9158  1.9307
 7960TIP3    H245296   1.589   0.880  15.076  0.7693  0.1899  0.1830
 7961TIP3   OH245297   3.865   2.273   1.736  0.8819  0.0056  0.1205
 7961TIP3    H145298   3.779   2.314   1.742  1.3914  1.8045 -2.8038
 7961TIP3    H245299   3.925   2.346   1.719  2.2662 -1.5760 -2.4628
 7962TIP3   OH245300   1.524   4.860  14.965 -0.0342 -0.1662 -0.4407
 7962TIP3    H145301   1.502   4.875  15.057  0.4723  0.2427 -0.3844
 7962TIP3    H245302   1.561   4.943  14.935  1.1244 -0.7192 -0.6151
 7963TIP3   OH245303   1.435   0.108  14.769  0.0429 -0.0700 -1.1363
 7963TIP3    H145304   1.355   0.056  14.759  0.8964 -1.5343 -0.5851
 7963TIP3    H245305   1.497   0.069  14.707  1.3552 -1.1033  0.7339
 7964TIP3   OH245306   2.902   5.588  15.556 -0.2604  1.0797 -0.0772
 7964TIP3    H145307   2.906   5.684  15.553 -1.2088  1.0945 -1.6055
 7964TIP3    H245308   2.955   5.559  15.482 -2.6666  0.5566 -1.7072
 7965TIP3   OH245309   0.525   2.955  11.420 -0.2327 -0.1453  0.0441
 7965TIP3    H145310   0.582   3.024  11.455  1.2502 -0.8459 -0.8866
 7965TIP3    H245311   0.532   2.884  11.484  1.5599 -0.9848 -1.0288
 7966TIP3   OH245312   6.374   4.939  14.363  0.1279  0.0755 -0.0299
 7966TIP3    H145313   6.437   4.880  14.405 -1.0370  0.8338  3.0687
 7966TIP3    H245314   6.293   4.887  14.357  0.0997  0.1969 -0.7859
 7967TIP3   OH245315   0.175   3.267   0.295 -0.4343  0.0964 -0.4781
 7967TIP3    H145316   0.122   3.335   0.254 -1.3284 -0.8547 -0.9677
 7967TIP3    H245317   0.222   3.226   0.222 -0.9313 -0.6709 -0.3774
 7968TIP3   OH245318   0.972   3.348   6.274  0.0291  0.2685 -0.2464
 7968TIP3    H145319   0.935   3.426   6.314  0.2609 -0.2336  1.0037
 7968TIP3    H245320   0.897   3.302   6.236 -0.5150 -0.1990  1.3209
 7969TIP3   OH245321   6.284   0.193  15.519 -0.3260  0.2796 -0.3336
 7969TIP3    H145322   6.373   0.208  15.486  0.1398  0.5101  0.9666
 7969TIP3    H245323   6.293   0.117  15.576 -1.2408 -0.5057 -1.2052
 7970TIP3   OH245324   6.473   3.695   4.726  0.3322 -0.0007 -0.5387
 7970TIP3    H145325   6.485   3.724   4.636 -2.0473  0.2515 -0.8264
 7970TIP3    H245326   6.385   3.725   4.750  1.2539  0.8539  2.2231
 7971TIP3   OH245327   6.218   5.678   0.512 -0.0663 -0.0564  0.0848
 7971TIP3    H145328   6.239   5.589   0.541  0.0728 -0.0197  0.0988
 7971TIP3    H245329   6.146   5.667   0.450  2.4382 -0.5721 -2.9589
 7972TIP3   OH245330   5.376   2.567   4.724  0.2993  0.2571 -0.1862
 7972TIP3    H145331   5.425   2.577   4.642  0.5213 -0.7206 -0.1804
 7972TIP3    H245332   5.294   2.526   4.698  0.2082  0.3030  0.0281
 7973TIP3   OH245333   4.801   4.376   6.636  0.0821  0.4828  0.6695
 7973TIP3    H145334   4.709   4.387   6.659 -0.2673  1.5048 -1.0465
 7973TIP3    H245335   4.808   4.286   6.605 -0.6761  0.8435 -0.5840
 7974TIP3   OH245336   5.460   1.606  12.904  0.2321 -0.3517  0.0928
 7974TIP3    H145337   5.458   1.541  12.975  0.7470 -0.1489  0.3001
 7974TIP3    H245338   5.516   1.568  12.838  0.8111  0.0240  0.3611
 7975TIP3   OH245339   0.592   2.832  16.161  0.5844  0.0125  0.0646
 7975TIP3    H145340   0.527   2.893  16.128 -0.0263 -0.9890 -0.6185
 7975TIP3    H245341   0.546   2.749  16.169  1.6938 -0.6504 -0.1632
 7976TIP3   OH245342   3.907   4.444   3.666 -0.5775 -0.1767  0.1209
 7976TIP3    H145343   3.961   4.481   3.735 -0.1364 -0.0551 -0.2812
 7976TIP3    H245344   3.906   4.511   3.597  0.2472 -0.9023 -0.6206
 7977TIP3   OH245345   0.427   2.274  17.163  0.8959  0.4452  0.3551
 7977TIP3    H145346   0.502   2.326  17.192  0.6084  2.0908 -1.6594
 7977TIP3    H245347   0.439   2.265  17.069 -1.4488  0.7680 -0.0203
 7978TIP3   OH245348   3.219   3.883  15.513 -0.0233  0.0018 -0.2928
 7978TIP3    H145349   3.209   3.830  15.434  0.0725  2.5018 -2.1097
 7978TIP3    H245350   3.314   3.892  15.523 -0.0291  1.0799 -0.9716
 7979TIP3   OH245351   1.626   1.018   2.372  0.0696  0.0510  0.2189
 7979TIP3    H145352   1.630   0.923   2.386  0.0404 -0.2390 -1.5136
 7979TIP3    H245353   1.703   1.052   2.417 -1.4321 -0.3847  3.3815
 7980TIP3   OH245354   0.494   2.952  11.946  0.2564 -0.2357  0.2420
 7980TIP3    H145355   0.451   3.032  11.916 -2.4798 -2.2916 -1.8889
 7980TIP3    H245356   0.443   2.925  12.022 -1.1911 -1.7217 -1.1851
 7981TIP3   OH245357   6.570   0.214  12.123 -0.1871 -0.3041 -0.1273
 7981TIP3    H145358   6.483   0.214  12.081 -0.3399 -0.3312  0.1867
 7981TIP3    H245359   6.631   0.233  12.052 -0.6784  2.5572  0.1089
 7982TIP3   OH245360   2.603   1.660  17.150 -0.1945 -0.0722 -0.6619
 7982TIP3    H145361   2.679   1.684  17.097  1.6776 -0.8817  1.4748
 7982TIP3    H245362   2.610   1.565  17.160 -2.5185 -0.4266 -1.8067
 7983TIP3   OH245363   2.098   2.882   1.734  0.0683  0.3483 -0.0267
 7983TIP3    H145364   2.186   2.920   1.727  0.4139 -0.2353  0.9080
 7983TIP3    H245365   2.107   2.814   1.801 -0.5513 -1.2662 -1.5094
 7984TIP3   OH245366   5.266   2.946  11.194  0.6983 -0.4269  0.4731
 7984TIP3    H145367   5.177   2.947  11.227  0.8857  0.0395  0.9840
 7984TIP3    H245368   5.259   2.914  11.104  0.1579 -1.5317  0.8980
 7985TIP3   OH245369   2.804   3.464  12.519 -0.2904 -0.2361 -0.0825
 7985TIP3    H145370   2.880   3.520  12.535 -1.3306  0.6899  1.9451
 7985TIP3    H245371   2.771   3.493  12.434  1.1484 -0.1323 -0.6413
 7986TIP3   OH245372   0.509   3.034  14.737 -0.1986 -0.5546  0.4528
 7986TIP3    H145373   0.501   3.119  14.782  0.4984  0.0394 -0.5051
 7986TIP3    H245374   0.590   2.997  14.770 -0.2444 -0.6139  0.4976
 7987TIP3   OH245375   4.834   0.635   2.552 -0.2005  0.0451 -1.2513
 7987TIP3    H145376   4.873   0.549   2.536  0.0172  0.0871 -0.9627
 7987TIP3    H245377   4.840   0.680   2.468  1.2055  0.3744 -1.0116
 7988TIP3   OH245378   2.285   3.332  16.571  0.0523  0.0079 -0.4570
 7988TIP3    H145379   2.294   3.379  16.489  0.4635 -0.2088 -0.5369
 7988TIP3    H245380   2.373   3.298  16.589 -0.5989 -2.3560 -1.3850
 7989TIP3   OH245381   2.551   5.573  10.405  0.6501  0.2727 -0.4012
 7989TIP3    H145382   2.518   5.662  10.394  0.9883  0.1939 -2.3613
 7989TIP3    H245383   2.639   5.584  10.439 -0.3638  0.5482  2.4011
 7990TIP3   OH245384   2.077   0.603   3.493 -0.0611 -0.0894  0.3044
 7990TIP3    H145385   2.017   0.528   3.486 -0.7499  0.6053 -1.9533
 7990TIP3    H245386   2.164   0.565   3.482 -0.4276 -0.5464 -1.1857
 7991TIP3   OH245387   2.321   3.080   1.100 -0.1384 -0.1937 -0.3496
 7991TIP3    H145388   2.259   3.030   1.048  0.8707 -0.4640 -1.3464
 7991TIP3    H245389   2.379   3.014   1.139  0.2469  0.1113 -0.4003
 7992TIP3   OH245390   6.388   0.955  12.118  1.4082 -0.2688  0.2683
 7992TIP3    H145391   6.446   1.019  12.076  0.1277  0.4183 -0.5057
 7992TIP3    H245392   6.437   0.873  12.115  1.9410  0.0674 -1.2917
 7993TIP3   OH245393   2.560   2.249  16.278  0.6540 -0.3717  0.3278
 7993TIP3    H145394   2.485   2.232  16.222 -0.2674  0.6808  1.1864
 7993TIP3    H245395   2.560   2.177  16.341 -0.1339  0.0443  0.8169
 7994TIP3   OH245396   5.797   5.195  12.458  0.1683  0.4694 -0.5411
 7994TIP3    H145397   5.724   5.148  12.418 -0.2927 -0.0799  0.8688
 7994TIP3    H245398   5.762   5.281  12.479  0.1372  0.4466 -0.5000
 7995TIP3   OH245399   5.661   4.684   4.897 -0.2448  0.0357 -0.0837
 7995TIP3    H145400   5.741   4.696   4.948 -0.8166  1.1524  0.5856
 7995TIP3    H245401   5.686   4.710   4.808 -0.5387  3.3253  0.6558
 7996TIP3   OH245402   4.560   3.499  14.127 -0.2730 -0.1927 -0.3808
 7996TIP3    H145403   4.557   3.415  14.082 -0.2795 -0.3844 -0.0240
 7996TIP3    H245404   4.492   3.552  14.084  0.0298 -0.2170 -0.9012
 7997TIP3   OH245405   3.907   2.433   5.052 -1.1940 -0.2836  0.4931
 7997TIP3    H145406   3.812   2.434   5.047 -1.1335 -1.1110 -2.4787
 7997TIP3    H245407   3.936   2.499   4.989  0.1915 -1.2923  0.0238
 7998TIP3   OH245408   5.753   2.673  13.401 -0.4875  0.4349 -0.6312
 7998TIP3    H145409   5.672   2.629  13.376  0.0827 -1.4121  0.5554
 7998TIP3    H245410   5.725   2.754  13.443 -1.7808 -0.5727  0.5430
 7999TIP3   OH245411   6.010   3.367  14.829 -0.1839 -0.0898 -0.5234
 7999TIP3    H145412   5.974   3.447  14.865  0.2837 -0.7520  1.5419
 7999TIP3    H245413   6.093   3.394  14.788 -0.2570  0.5398 -0.2561
 8000TIP3   OH245414   4.627   4.092  16.204  0.3218 -0.1864 -0.4101
 8000TIP3    H145415   4.645   4.044  16.285  2.5390 -1.0930 -1.3485
 8000TIP3    H245416   4.599   4.179  16.234  0.1513 -0.7897  1.3245
 8001TIP3   OH245417   1.444   3.565   4.293 -0.3268 -0.1506  0.8001
 8001TIP3    H145418   1.507   3.608   4.351  0.6489 -0.7027  0.1610
 8001TIP3    H245419   1.368   3.623   4.294  1.2066  2.0468 -0.6321
 8002TIP3   OH245420   0.564   0.608   6.175 -0.1180  0.0810  0.5130
 8002TIP3    H145421   0.592   0.518   6.156  0.5305 -0.0862  2.1143
 8002TIP3    H245422   0.641   0.651   6.211 -1.3045  0.1517  3.2610
 8003TIP3   OH245423   0.536   3.926  14.414  0.2388  0.2118 -0.3378
 8003TIP3    H145424   0.448   3.951  14.441  0.7524 -0.4241  2.1624
 8003TIP3    H245425   0.523   3.852  14.355 -0.9208  0.8109 -0.8671
 8004TIP3   OH245426   3.708   6.786  13.224 -0.4130  0.2282  0.2622
 8004TIP3    H145427   3.744   6.697  13.217 -1.1810 -0.1290  0.7434
 8004TIP3    H245428   3.778   6.837  13.264 -0.8866 -0.7685  2.4681
 8005TIP3   OH245429   1.741   3.599   5.107 -0.2290 -0.1858  0.7405
 8005TIP3    H145430   1.834   3.601   5.085 -0.1030  0.9973  1.2806
 8005TIP3    H245431   1.699   3.654   5.041 -0.2348  1.0105  1.6984
 8006TIP3   OH245432   6.048   0.311   2.064 -0.0558  0.1786  0.3638
 8006TIP3    H145433   6.109   0.247   2.099  1.5506  0.7419 -1.2510
 8006TIP3    H245434   5.991   0.333   2.138  0.7415 -1.4476  1.5266
 8007TIP3   OH245435   5.700   1.807  12.731  0.1243  0.2943  0.0657
 8007TIP3    H145436   5.789   1.772  12.732 -0.4714 -1.3304  0.5504
 8007TIP3    H245437   5.644   1.729  12.739 -1.3831  1.1540 -1.4667
 8008TIP3   OH245438   5.528   6.086   4.274 -0.4175 -0.0638  0.0740
 8008TIP3    H145439   5.461   6.091   4.206  1.4818 -1.7232 -2.0888
 8008TIP3    H245440   5.607   6.118   4.232  0.7275 -0.6773  1.6732
 8009TIP3   OH245441   2.533   3.164  12.332  0.0409 -0.4808  1.1266
 8009TIP3    H145442   2.477   3.242  12.332 -0.8356 -1.0839  2.4189
 8009TIP3    H245443   2.507   3.115  12.410  0.8157 -1.9047  0.5313
 8010TIP3   OH245444   3.009   3.826   1.869 -0.4812  0.0375  0.4454
 8010TIP3    H145445   2.979   3.742   1.833 -0.4948  0.4678 -0.5712
 8010TIP3    H245446   3.093   3.841   1.827  0.1781 -0.1145  1.6647
 8011TIP3   OH245447   3.211   2.819   4.887 -0.1167  0.5346 -0.0222
 8011TIP3    H145448   3.218   2.865   4.971  0.9941 -0.4296  0.4535
 8011TIP3    H245449   3.226   2.727   4.910 -1.1746  0.0759 -1.0964
 8012TIP3   OH245450   2.078   0.329  11.666  0.1097  0.0777 -0.0932
 8012TIP3    H145451   2.138   0.388  11.711 -0.4723 -0.8897  2.0896
 8012TIP3    H245452   2.117   0.316  11.579  1.2405  2.1043  0.0476
 8013TIP3   OH245453   5.303   3.389  16.788  0.4541 -0.2118  0.1414
 8013TIP3    H145454   5.276   3.357  16.875 -1.8836 -1.1018 -0.8099
 8013TIP3    H245455   5.239   3.457  16.767  0.5999 -0.4394 -1.1196
 8014TIP3   OH245456   1.550   4.268   4.069 -0.1898 -0.7684  0.3980
 8014TIP3    H145457   1.539   4.339   4.006 -0.3884 -0.7422  0.4629
 8014TIP3    H245458   1.479   4.207   4.049 -1.3272  0.0694  1.7160
 8015TIP3   OH245459   0.801   1.042   2.014 -0.7874 -0.4399 -0.4028
 8015TIP3    H145460   0.711   1.056   1.985 -0.9562 -1.2718 -0.3024
 8015TIP3    H245461   0.847   1.013   1.935 -0.8800 -1.1296 -0.2142
 8016TIP3   OH245462   1.125   0.449  13.933 -0.2730  0.0048 -0.6483
 8016TIP3    H145463   1.193   0.461  14.000 -0.1182  1.7495 -1.0715
 8016TIP3    H245464   1.075   0.531  13.934 -1.7712 -0.8699 -1.0388
 8017TIP3   OH245465   5.482   1.295  16.468 -0.1601  0.5205  0.1130
 8017TIP3    H145466   5.555   1.319  16.410  0.0499 -0.6369 -0.1239
 8017TIP3    H245467   5.524   1.263  16.548 -0.3205 -1.2851 -0.4622
 8018TIP3   OH245468   6.690   1.033  15.239  0.2178  0.1177 -0.2906
 8018TIP3    H145469   6.705   0.967  15.172 -1.2795 -2.7711  1.9549
 8018TIP3    H245470   6.595   1.033  15.251  0.3820  1.1017  1.2669
 8019TIP3   OH245471   5.649   0.101  12.039  0.2875  0.2072 -0.0398
 8019TIP3    H145472   5.710   0.057  11.980  0.0956  0.0664 -0.1321
 8019TIP3    H245473   5.703   0.129  12.113  0.2145 -1.1478  0.5471
 8020TIP3   OH245474   6.272   2.062   1.177 -0.0024  0.3195  0.5109
 8020TIP3    H145475   6.323   2.104   1.246 -1.2802  0.2900  1.5003
 8020TIP3    H245476   6.191   2.114   1.172  0.4692  0.9457 -1.6746
 8021TIP3   OH245477   5.712   3.569  13.008 -0.1730 -0.1885  0.1786
 8021TIP3    H145478   5.712   3.618  13.090 -0.5070 -0.8706  0.6009
 8021TIP3    H245479   5.644   3.610  12.955 -0.6235 -0.3462  0.6247
 8022TIP3   OH245480   3.415   6.601  15.050 -0.1378 -0.5596 -0.3801
 8022TIP3    H145481   3.358   6.597  15.127  0.7344  1.7171  0.4710
 8022TIP3    H245482   3.360   6.571  14.978 -1.2644 -1.8661  0.9657
 8023TIP3   OH245483   6.271   1.925  17.080 -0.5636 -0.1764  0.6248
 8023TIP3    H145484   6.346   1.969  17.040 -1.4396  1.4927  0.7677
 8023TIP3    H245485   6.213   1.995  17.108 -2.9506 -1.4352 -0.8799
 8024TIP3   OH245486   2.566   2.645  12.712 -0.0656  0.0579 -0.3372
 8024TIP3    H145487   2.621   2.620  12.786 -0.2955  1.6507  0.4326
 8024TIP3    H245488   2.624   2.695  12.655 -0.0111 -0.7587 -1.0127
 8025TIP3   OH245489   3.203   3.630  12.045 -0.2285 -0.3933  0.0336
 8025TIP3    H145490   3.289   3.665  12.021 -0.5341  0.2695 -0.1448
 8025TIP3    H245491   3.202   3.541  12.011  0.2432 -0.2677 -0.3230
 8026TIP3   OH245492   1.701   0.620   6.428 -0.0055  0.2243 -0.2951
 8026TIP3    H145493   1.778   0.649   6.476 -0.4199  1.3219 -0.2738
 8026TIP3    H245494   1.630   0.627   6.492 -0.0898 -1.0536 -0.2271
 8027TIP3   OH245495   2.026   1.576  11.034  0.7055 -0.1491 -0.0601
 8027TIP3    H145496   2.115   1.544  11.015  1.8108  0.9545  2.7569
 8027TIP3    H245497   2.005   1.541  11.120 -1.2226  0.4363 -0.2416
 8028TIP3   OH245498   3.302   1.999  12.418  0.1802  0.0652 -0.6532
 8028TIP3    H145499   3.254   2.006  12.501 -0.4624  0.8986 -1.0788
 8028TIP3    H245500   3.281   1.912  12.386  0.2367 -0.1755 -0.0572
 8029TIP3   OH245501   3.727   1.177   5.960 -0.2808  0.0233 -0.6413
 8029TIP3    H145502   3.678   1.223   6.029 -1.4559  0.1469 -1.5255
 8029TIP3    H245503   3.706   1.224   5.880  2.7459  1.1982 -0.8774
 8030TIP3   OH245504   0.393   5.571   5.852 -0.8244  0.0472 -0.3114
 8030TIP3    H145505   0.322   5.525   5.897 -2.1498  0.7595 -1.5834
 8030TIP3    H245506   0.417   5.642   5.912 -0.6607 -0.6344  0.4486
 8031TIP3   OH245507   0.099   5.302   0.960 -0.3427  0.6684  0.0534
 8031TIP3    H145508   0.120   5.322   0.869 -2.4515 -0.1035 -0.6874
 8031TIP3    H245509   0.148   5.222   0.979  0.3459  1.0025 -0.3093
 8032TIP3   OH245510   1.682   2.013   2.263 -0.1168  0.0530  0.1630
 8032TIP3    H145511   1.762   2.016   2.314 -1.2689 -0.2688  2.0804
 8032TIP3    H245512   1.706   2.050   2.178  1.8739  0.5618  0.8991
 8033TIP3   OH245513   5.505   3.894  11.166  0.4674 -0.0392  0.0956
 8033TIP3    H145514   5.436   3.828  11.164 -0.5280  0.9589  0.5225
 8033TIP3    H245515   5.543   3.887  11.254 -2.1374  2.3694  1.5675
 8034TIP3   OH245516   6.746   0.103   4.056  0.9684  0.4037  0.3445
 8034TIP3    H145517   6.720   0.048   4.130  0.2348 -0.1464 -0.3094
 8034TIP3    H245518   6.833   0.070   4.032  1.5248  1.0513  1.3869
 8035TIP3   OH245519   0.438   1.783  11.348 -0.0782 -0.1363 -0.4199
 8035TIP3    H145520   0.441   1.712  11.412  1.1997  1.8681  1.9278
 8035TIP3    H245521   0.395   1.745  11.272 -1.7828 -2.6731  1.6373
 8036TIP3   OH245522   6.423   5.275  13.683 -0.0536  0.1890  0.4781
 8036TIP3    H145523   6.338   5.277  13.726 -0.1448 -1.5858  0.4696
 8036TIP3    H245524   6.414   5.336  13.609 -0.7582  1.2472  1.4054
 8037TIP3   OH245525   4.835   1.020  12.360  0.3866  0.1443 -0.3435
 8037TIP3    H145526   4.890   1.001  12.435  0.0682  3.5286  0.8989
 8037TIP3    H245527   4.824   1.115  12.361 -0.7748  0.2057 -3.8990
 8038TIP3   OH245528   6.372   3.822   0.293  0.5437 -0.0065 -0.7715
 8038TIP3    H145529   6.364   3.854   0.383  2.1160  3.4665 -1.7098
 8038TIP3    H245530   6.293   3.768   0.280 -0.9098  1.2337  1.9546
 8039TIP3   OH245531   0.348   3.498  14.233 -0.1916  0.5824 -0.6293
 8039TIP3    H145532   0.383   3.418  14.273  0.7617  1.9804  1.5340
 8039TIP3    H245533   0.257   3.501  14.261  0.4708  1.5616  1.6902
 8040TIP3   OH245534   6.475   0.817  11.796  0.1990  0.5006 -0.1156
 8040TIP3    H145535   6.526   0.749  11.840  1.3789  1.1749 -0.4072
 8040TIP3    H245536   6.406   0.769  11.749  1.5311 -0.5709 -1.0295
 8041TIP3   OH245537   1.595   4.419  10.865 -0.0143 -0.0839 -0.0835
 8041TIP3    H145538   1.501   4.401  10.867 -0.0111 -0.0483  0.3848
 8041TIP3    H245539   1.635   4.333  10.853 -0.0413 -0.2954  1.2393
 8042TIP3   OH245540   3.784   2.698  16.624 -0.1690  0.0641 -0.3488
 8042TIP3    H145541   3.779   2.681  16.530 -0.2061  0.1220 -0.3585
 8042TIP3    H245542   3.771   2.793  16.632  0.4560  0.1488 -0.3306
 8043TIP3   OH245543   6.338   0.629   1.717 -0.3121 -0.7961 -0.0921
 8043TIP3    H145544   6.431   0.610   1.725 -0.1783  0.0943  0.7229
 8043TIP3    H245545   6.296   0.571   1.780 -0.1004  0.1325  0.9389
 8044TIP3   OH245546   1.282   6.433   2.020  0.3747 -0.2556  0.3103
 8044TIP3    H145547   1.237   6.415   2.103 -1.1688 -2.1369 -0.8293
 8044TIP3    H245548   1.257   6.522   1.998 -1.0410 -0.5010  0.8164
 8045TIP3   OH245549   3.305   1.644   5.829  0.9065  0.5138  0.2036
 8045TIP3    H145550   3.395   1.675   5.841  1.9001 -1.8034 -0.6244
 8045TIP3    H245551   3.262   1.664   5.912  3.0627 -0.9176  1.7844
 8046TIP3   OH245552   6.068   2.084   3.057 -0.4213  0.4075 -0.2075
 8046TIP3    H145553   6.007   2.012   3.041 -1.3962  1.5364 -1.8648
 8046TIP3    H245554   6.151   2.053   3.020 -1.1065  0.5106 -1.9162
 8047TIP3   OH245555   5.159   1.233  13.457 -0.7981 -0.2690 -0.1317
 8047TIP3    H145556   5.191   1.246  13.546 -0.3683  1.3066 -0.4993
 8047TIP3    H245557   5.064   1.242  13.465 -0.7641 -0.1646  0.1644
 8048TIP3   OH245558   1.281   6.535   1.648 -0.0911  0.4097  0.2994
 8048TIP3    H145559   1.341   6.544   1.723  0.4756 -1.4995  0.1334
 8048TIP3    H245560   1.336   6.554   1.572 -1.1360  4.3841  0.3426
 8049TIP3   OH245561   2.508   3.525   1.263  0.1656 -0.6120 -0.0895
 8049TIP3    H145562   2.585   3.545   1.315 -0.0412 -0.6180  0.2230
 8049TIP3    H245563   2.434   3.541   1.322 -0.2109  1.7960 -1.1009
 8050TIP3   OH245564   2.478   5.099   0.413  0.1156  0.1164 -0.3083
 8050TIP3    H145565   2.455   5.127   0.324  0.7636  2.2681  0.1470
 8050TIP3    H245566   2.456   5.174   0.468 -2.2687 -1.9142  1.7356
 8051TIP3   OH245567   4.789   3.036  15.741  0.0250 -0.3497 -0.0403
 8051TIP3    H145568   4.773   2.995  15.826  1.8835  0.1888  0.6326
 8051TIP3    H245569   4.770   3.129  15.755  1.6174 -0.0234  0.2405
 8052TIP3   OH245570   3.190   3.795  13.375 -0.2755 -0.2583 -0.2020
 8052TIP3    H145571   3.225   3.738  13.306  0.5175 -0.5284  0.3989
 8052TIP3    H245572   3.260   3.858  13.391 -0.0567 -0.7901  1.0171
 8053TIP3   OH245573   1.960   0.218   0.926 -0.0011  0.1964  0.1173
 8053TIP3    H145574   1.920   0.264   1.000 -0.5328 -0.9270  0.5420
 8053TIP3    H245575   2.041   0.182   0.961 -0.4170 -0.6189  0.2514
 8054TIP3   OH245576   4.240   4.571   6.157 -0.2606 -0.2123 -0.3410
 8054TIP3    H145577   4.247   4.666   6.166 -1.6175 -0.1413  0.1643
 8054TIP3    H245578   4.303   4.537   6.221 -0.4864  0.3563  0.2011
 8055TIP3   OH245579   0.649   0.545  16.754  0.2007 -0.9525 -0.3531
 8055TIP3    H145580   0.720   0.507  16.702  0.0203 -1.8197  0.0160
 8055TIP3    H245581   0.678   0.635  16.772  0.9023 -1.0881 -0.7593
 8056TIP3   OH245582   1.463   0.139  15.733 -0.3314 -0.4437 -0.3118
 8056TIP3    H145583   1.508   0.223  15.749  0.5583 -1.1488  1.0775
 8056TIP3    H245584   1.519   0.094  15.670 -1.3740  0.4088 -1.9098
 8057TIP3   OH245585   3.094   3.426  16.370 -0.2682  0.1501 -0.2713
 8057TIP3    H145586   3.119   3.342  16.410  1.2466  0.9382  0.5241
 8057TIP3    H245587   3.071   3.482  16.444 -0.7866  0.5918 -0.7578
 8058TIP3   OH245588   6.041   1.186   1.348  0.6222 -0.0236 -0.6306
 8058TIP3    H145589   6.060   1.129   1.273 -1.5763 -0.0470 -1.2319
 8058TIP3    H245590   6.025   1.126   1.421  1.2223 -0.0556 -0.5219
 8059TIP3   OH245591   3.259   2.901  17.152  0.2968  0.5691  0.1943
 8059TIP3    H145592   3.268   2.926  17.244  2.4914 -0.4520  0.3241
 8059TIP3    H245593   3.165   2.892  17.138 -0.1069  1.2815  2.1772
 8060TIP3   OH245594   0.942   5.578   4.853  0.1065 -0.0686  1.0710
 8060TIP3    H145595   0.868   5.574   4.792 -0.7207  2.5058  1.7880
 8060TIP3    H245596   0.963   5.486   4.871 -1.4492 -0.8793 -0.8795
 8061TIP3   OH245597   5.353   3.174   4.644  0.7272  0.5100  0.0112
 8061TIP3    H145598   5.441   3.151   4.673  0.6076  2.4667  2.1536
 8061TIP3    H245599   5.295   3.125   4.702  0.4088  0.5236 -0.2913
 8062TIP3   OH245600   2.004   0.885  11.813  0.2088 -0.0357  0.4061
 8062TIP3    H145601   2.063   0.887  11.888 -0.4078  0.5406  0.8886
 8062TIP3    H245602   1.925   0.842  11.845  0.0502 -0.0577 -0.0035
 8063TIP3   OH245603   5.574   2.701  13.670 -0.3285  0.0923  0.0062
 8063TIP3    H145604   5.600   2.614  13.639 -0.7519  0.5078 -1.5801
 8063TIP3    H245605   5.605   2.704  13.761 -0.1012 -1.6176  0.0182
 8064TIP3   OH245606   3.339   4.988  12.787  0.7224 -0.1270  0.0745
 8064TIP3    H145607   3.301   5.070  12.757 -0.4510 -0.2190  1.2091
 8064TIP3    H245608   3.272   4.922  12.767  1.2101 -0.6517  0.1280
 8065TIP3   OH245609   4.065   2.983   5.416  0.3304 -0.0259 -0.4372
 8065TIP3    H145610   4.032   2.994   5.326 -1.5981 -0.3232  0.1866
 8065TIP3    H245611   4.151   3.025   5.415  0.6853 -0.6831 -2.6060
 8066TIP3   OH245612   2.359   0.774  16.926 -0.0786  0.1996 -0.0406
 8066TIP3    H145613   2.338   0.851  16.873 -0.6285 -0.2770 -0.5256
 8066TIP3    H245614   2.452   0.784  16.947 -0.3303  1.4307  0.6337
 8067TIP3   OH245615   0.020   2.465   3.159  0.3179 -0.1942 -0.2759
 8067TIP3    H145616   0.082   2.398   3.188  0.2426 -0.0590  0.1972
 8067TIP3    H245617   0.074   2.529   3.113  0.7284  0.5207  1.1326
 8068TIP3   OH245618   4.502   1.608  17.013 -0.9642 -0.1345  0.4950
 8068TIP3    H145619   4.440   1.663  16.966 -2.0166  0.6233  2.6038
 8068TIP3    H245620   4.583   1.613  16.962 -1.3630  2.4620 -0.0434
 8069TIP3   OH245621   0.277   2.970  13.173 -0.3905  0.1520 -0.0718
 8069TIP3    H145622   0.228   3.015  13.242 -2.4057  1.4605 -2.2222
 8069TIP3    H245623   0.340   3.035  13.142 -1.0862  0.3947 -1.0053
 8070TIP3   OH245624   3.390   6.534   5.677 -0.1300  0.3009  0.9903
 8070TIP3    H145625   3.461   6.549   5.739 -0.9691 -0.0075  2.0748
 8070TIP3    H245626   3.326   6.603   5.697 -0.7387 -0.2505  0.9781
 8071TIP3   OH245627   2.625   6.081  14.043  0.2297 -0.1694 -0.1812
 8071TIP3    H145628   2.708   6.104  14.085  0.5913  1.0896 -1.5282
 8071TIP3    H245629   2.565   6.150  14.070 -0.4902 -1.1934  0.9712
 8072TIP3   OH245630   6.253   4.749   0.677  0.6835  0.4005 -0.6888
 8072TIP3    H145631   6.313   4.675   0.673 -0.3901 -0.4895 -0.9342
 8072TIP3    H245632   6.229   4.764   0.585 -0.5443 -0.1885 -0.4842
 8073TIP3   OH245633   3.926   1.009   6.223 -0.1288  0.3639  0.0847
 8073TIP3    H145634   4.004   0.962   6.254 -0.6564  0.0878  1.0318
 8073TIP3    H245635   3.958   1.064   6.151  0.8346 -0.1404  0.1101
 8074TIP3   OH245636   6.022   0.236  15.669  0.1117  0.1667  0.0870
 8074TIP3    H145637   6.060   0.230  15.757 -0.7347 -0.2865  0.4423
 8074TIP3    H245638   6.098   0.239  15.610  0.6932  0.7366  0.8397
 8075TIP3   OH245639   5.042   3.170  13.154  0.1082  0.1285 -0.2577
 8075TIP3    H145640   4.956   3.171  13.196 -0.6576 -0.0187 -1.7231
 8075TIP3    H245641   5.064   3.078  13.145 -0.1594  0.1281 -0.9713
 8076TIP3   OH245642   2.908   4.808  10.986  0.0729  0.7401  0.5364
 8076TIP3    H145643   2.871   4.820  10.899  2.3728 -0.6395 -0.7238
 8076TIP3    H245644   2.912   4.896  11.023 -1.6598  1.2502 -0.3983
 8077TIP3   OH245645   5.692   2.573  11.214  0.0973  0.1438 -0.2612
 8077TIP3    H145646   5.616   2.624  11.239  0.1835  0.6170 -0.9436
 8077TIP3    H245647   5.764   2.610  11.266  0.2823  1.1383 -1.1999
 8078TIP3   OH245648   2.380   6.275  11.459 -0.3672  0.2918  0.5939
 8078TIP3    H145649   2.473   6.255  11.451 -0.2474  1.1095 -0.1897
 8078TIP3    H245650   2.351   6.290  11.369 -1.4644 -0.8381  0.7388
 8079TIP3   OH245651   5.676   3.192  13.661  0.1996 -0.4549 -0.1057
 8079TIP3    H145652   5.683   3.182  13.567 -0.9378  1.5080 -0.4525
 8079TIP3    H245653   5.608   3.130  13.687  0.0658 -0.5457 -0.6654
 8080TIP3   OH245654   5.026   4.738  15.473 -0.4957  0.3558  0.0874
 8080TIP3    H145655   5.066   4.688  15.544 -1.2581  1.1334  1.0929
 8080TIP3    H245656   5.061   4.699  15.393  0.1080 -0.7643  0.8810
 8081TIP3   OH245657   6.116   0.815   2.607 -0.3191  0.3370  0.2435
 8081TIP3    H145658   6.065   0.860   2.540 -1.1527 -0.3542  0.3947
 8081TIP3    H245659   6.189   0.776   2.559  0.4045  1.8035  0.1090
 8082TIP3   OH245660   3.196   6.613  14.175 -0.1909  0.0188  0.3393
 8082TIP3    H145661   3.281   6.578  14.203  0.0215 -0.4750 -0.8646
 8082TIP3    H245662   3.216   6.700  14.141 -0.1259 -0.1664 -0.1085
 8083TIP3   OH245663   2.504   3.921  12.248  0.6270  0.1119 -0.2675
 8083TIP3    H145664   2.556   3.844  12.224  2.6643  0.6385  2.0141
 8083TIP3    H245665   2.494   3.914  12.343 -1.0583  1.5505 -0.2893
 8084TIP3   OH245666   3.414   5.049   5.237 -0.1320  0.1175 -0.0556
 8084TIP3    H145667   3.396   5.117   5.302 -0.1466 -0.8148  0.9566
 8084TIP3    H245668   3.509   5.039   5.237 -0.0534  0.7533 -0.8736
 8085TIP3   OH245669   1.234   5.336  14.883  0.3331  0.0037  0.3906
 8085TIP3    H145670   1.175   5.319  14.956 -1.3046  4.5178  0.4655
 8085TIP3    H245671   1.181   5.318  14.805 -0.4775  1.8394  0.4602
 8086TIP3   OH245672   6.375   1.940  11.953 -0.0664  0.0230 -0.2729
 8086TIP3    H145673   6.381   1.964  12.045  0.0056 -0.5149 -0.1331
 8086TIP3    H245674   6.459   1.898  11.934 -0.8150 -1.6653 -0.0423
 8087TIP3   OH245675   0.837   1.498   3.568  0.2829 -0.1202  0.2854
 8087TIP3    H145676   0.780   1.534   3.636  1.8195  0.3718  1.3555
 8087TIP3    H245677   0.922   1.488   3.610  1.1964 -0.1476 -1.4774
 8088TIP3   OH245678   5.835   4.246  13.896  0.5976 -0.3388  0.0437
 8088TIP3    H145679   5.784   4.217  13.972  0.4643  0.2389  0.1822
 8088TIP3    H245680   5.923   4.258  13.930  0.3904  0.6032  0.2889
 8089TIP3   OH245681   0.595   2.888  10.442 -0.0336 -0.6545 -0.1842
 8089TIP3    H145682   0.658   2.960  10.441 -0.4951 -0.2354  0.2063
 8089TIP3    H245683   0.513   2.929  10.469 -0.8457 -0.8713 -2.1624
 8090TIP3   OH245684   1.414   4.656   6.227 -0.1560  0.0338  0.2970
 8090TIP3    H145685   1.363   4.685   6.303 -0.0585  0.9037  0.0476
 8090TIP3    H245686   1.352   4.664   6.154  0.2026  0.6714  0.0597
 8091TIP3   OH245687   0.529   1.245  16.407  0.4424  0.3217  0.7337
 8091TIP3    H145688   0.522   1.154  16.435  2.5980  0.1029  0.7469
 8091TIP3    H245689   0.596   1.243  16.338  1.9477  2.1124  2.0449
 8092TIP3   OH245690   3.862   3.216   0.560 -0.0743 -0.3108  0.6429
 8092TIP3    H145691   3.850   3.254   0.647  0.0553 -0.1911  0.6082
 8092TIP3    H245692   3.906   3.284   0.510  1.0997 -0.8827  0.8707
 8093TIP3   OH245693   2.180   3.453  10.542  0.4011  0.1506  0.2169
 8093TIP3    H145694   2.110   3.395  10.512 -0.1292  1.3853 -1.0290
 8093TIP3    H245695   2.250   3.394  10.570  0.0528 -1.0978 -1.4316
 8094TIP3   OH245696   5.046   6.119  17.258 -0.4989  0.0515  0.0107
 8094TIP3    H145697   5.063   6.211  17.276 -1.6080  0.8265 -2.4397
 8094TIP3    H245698   5.132   6.079  17.253 -0.0261  0.4203  3.1634
 8095TIP3   OH245699   0.434   3.767   0.450  0.3208 -0.1531  0.1345
 8095TIP3    H145700   0.404   3.851   0.483 -0.1920 -0.6267  0.8978
 8095TIP3    H245701   0.357   3.710   0.455  0.5183 -0.5361 -0.8623
 8096TIP3   OH245702   5.736   3.037   3.599 -0.4640  0.1492 -0.3397
 8096TIP3    H145703   5.687   3.094   3.541  0.7813  0.3163 -1.2547
 8096TIP3    H245704   5.811   3.008   3.547  0.6091  0.1884  1.1251
 8097TIP3   OH245705   2.288   2.301  13.349  0.3677  0.0043  0.0296
 8097TIP3    H145706   2.283   2.386  13.306  2.6357  0.4153  0.4457
 8097TIP3    H245707   2.234   2.243  13.295  1.3961  0.9723 -2.1699
 8098TIP3   OH245708   5.783   1.986   3.145 -0.3770 -0.1537  1.0635
 8098TIP3    H145709   5.720   1.916   3.124 -0.0251 -0.5837  1.4274
 8098TIP3    H245710   5.729   2.056   3.181 -0.8406  0.1109 -0.1006
 8099TIP3   OH245711   3.264   0.349  12.991 -0.2475 -0.4026 -0.8025
 8099TIP3    H145712   3.223   0.435  12.978  0.1677 -0.0458  0.1297
 8099TIP3    H245713   3.350   0.370  13.028 -0.9181 -1.2681  1.3899
 8100TIP3   OH245714   4.346   5.501   5.951 -0.1972  0.1629 -0.0545
 8100TIP3    H145715   4.369   5.470   6.039  0.0815  0.8876  0.1281
 8100TIP3    H245716   4.312   5.589   5.965  0.7289  0.6421 -0.7832
 8101TIP3   OH245717   5.439   5.792  17.092  0.6061 -0.4955 -0.2118
 8101TIP3    H145718   5.489   5.873  17.106 -1.4880  0.8307  0.0638
 8101TIP3    H245719   5.363   5.820  17.042 -1.5433 -1.7643  2.1257
 8102TIP3   OH245720   3.146   0.870  11.346  0.2459  0.3656  0.0246
 8102TIP3    H145721   3.096   0.879  11.265  2.2885 -1.0144 -1.5069
 8102TIP3    H245722   3.117   0.787  11.383 -0.1620  0.6414  0.3309
 8103TIP3   OH245723   0.204   3.193   4.640  0.0471 -0.2488  0.0375
 8103TIP3    H145724   0.272   3.147   4.590  0.8657 -0.0789  0.9606
 8103TIP3    H245725   0.154   3.241   4.574  1.8945  1.0061 -0.5409
 8104TIP3   OH245726   3.351   3.081  12.930 -0.1246 -0.2744  0.0130
 8104TIP3    H145727   3.352   3.170  12.966 -0.8317 -0.1682 -0.2172
 8104TIP3    H245728   3.409   3.086  12.853  0.9882 -0.3800  0.8128
 8105TIP3   OH245729   0.013   1.596   0.201  0.3747  0.2772 -0.2607
 8105TIP3    H145730   0.007   1.501   0.212  0.8030  0.2480 -0.2524
 8105TIP3    H245731  -0.078   1.626   0.197  0.2162 -0.3135 -1.8347
 8106TIP3   OH245732   5.229   6.080   1.261  0.3242  0.1368 -0.3961
 8106TIP3    H145733   5.149   6.029   1.278  0.6202 -0.2485 -0.1540
 8106TIP3    H245734   5.236   6.139   1.336 -1.5913  2.6064 -1.9952
 8107TIP3   OH245735   0.457   3.063   2.944  0.0225 -0.4069  0.1693
 8107TIP3    H145736   0.505   2.982   2.925 -0.1547 -0.4498 -0.1089
 8107TIP3    H245737   0.475   3.081   3.036 -0.1172 -0.8888  0.2975
 8108TIP3   OH245738   0.466   5.276  11.719  0.1034  0.0042 -0.0917
 8108TIP3    H145739   0.412   5.322  11.783  1.6366  1.5498  0.1533
 8108TIP3    H245740   0.501   5.201  11.768 -0.5642 -0.1320  0.1911
 8109TIP3   OH245741   6.375   1.671  13.426 -0.2349 -0.2201  0.4186
 8109TIP3    H145742   6.456   1.622  13.439  0.0267 -0.0781 -0.6177
 8109TIP3    H245743   6.378   1.740  13.492 -0.3016 -1.1883  1.4703
 8110TIP3   OH245744   4.856   2.898   1.182 -0.2003 -0.2880  0.0504
 8110TIP3    H145745   4.946   2.876   1.203 -0.3941  0.4623  1.7968
 8110TIP3    H245746   4.855   2.993   1.175 -0.3018 -0.3975 -2.9298
 8111TIP3   OH245747   0.318   3.429  17.121  0.4019 -0.4073 -0.2729
 8111TIP3    H145748   0.327   3.500  17.183 -0.4148 -0.6281  0.1052
 8111TIP3    H245749   0.303   3.472  17.037 -0.7580 -0.1383  0.0663
 8112TIP3   OH245750   0.562   6.594   0.919 -0.1769  0.1543  0.3969
 8112TIP3    H145751   0.559   6.562   0.829 -2.0708 -0.1611  0.5219
 8112TIP3    H245752   0.637   6.550   0.958  0.7310  0.3787 -1.0485
 8113TIP3   OH245753   6.676   1.730  12.022  0.3632  0.2475  0.8833
 8113TIP3    H145754   6.732   1.694  11.953 -0.1158  1.0501  0.0533
 8113TIP3    H245755   6.606   1.666  12.032  1.2581 -0.6423  1.7522
 8114TIP3   OH245756   4.295   5.082  14.688 -0.3465  0.2163  0.1007
 8114TIP3    H145757   4.306   5.175  14.670 -0.3494  0.3080  0.5571
 8114TIP3    H245758   4.318   5.039  14.606  0.0270  0.5972  0.0006
 8115TIP3   OH245759   1.213   3.861  14.326 -0.0653  0.5296  0.2875
 8115TIP3    H145760   1.283   3.800  14.303  0.2333  0.7749  0.5458
 8115TIP3    H245761   1.257   3.933  14.370 -0.4021  1.0030 -0.1372
 8116TIP3   OH245762   2.251   1.941   6.400  0.0843  0.5422  0.1801
 8116TIP3    H145763   2.334   1.924   6.443 -0.1588 -0.6968  0.1860
 8116TIP3    H245764   2.247   1.876   6.329 -1.6057 -0.5547  1.2066
 8117TIP3   OH245765   4.733   6.480  16.479  0.3323 -1.0231  0.2673
 8117TIP3    H145766   4.728   6.455  16.571 -3.8362 -2.5326 -0.1108
 8117TIP3    H245767   4.719   6.398  16.432 -2.0975  0.2501 -1.4601
 8118TIP3   OH245768   0.346   4.963  13.191 -0.1848 -0.0870 -0.0472
 8118TIP3    H145769   0.288   4.923  13.256  1.1996 -1.3461  0.4733
 8118TIP3    H245770   0.327   4.915  13.110  0.8091 -1.2080  0.3597
 8119TIP3   OH245771   4.662   2.452   4.118  0.6870  0.1250 -0.1930
 8119TIP3    H145772   4.743   2.461   4.168  0.3989  0.1680  0.2743
 8119TIP3    H245773   4.621   2.373   4.153  0.2494  0.4250 -0.0182
 8120TIP3   OH245774   3.094   1.201   3.814  0.2420 -0.1604  0.6357
 8120TIP3    H145775   3.160   1.134   3.795  1.2061  0.7392  0.7631
 8120TIP3    H245776   3.078   1.243   3.730 -1.1052 -1.1729  0.3464
 8121TIP3   OH245777   1.117   5.275   3.976 -0.2368 -0.0250 -0.4718
 8121TIP3    H145778   1.045   5.213   3.980 -0.2988  0.1011  0.6002
 8121TIP3    H245779   1.195   5.222   3.990 -0.1664 -0.0734 -1.0336
 8122TIP3   OH245780   3.322   4.908   2.072  0.3735  0.4417  0.3276
 8122TIP3    H145781   3.379   4.958   2.130 -1.5559  0.7165  2.1018
 8122TIP3    H245782   3.239   4.901   2.119 -0.3688 -1.9270 -1.1175
 8123TIP3   OH245783   5.405   5.584   0.169  0.3242  0.4205 -0.0106
 8123TIP3    H145784   5.382   5.517   0.105 -0.3440  0.8868 -0.2638
 8123TIP3    H245785   5.349   5.658   0.148  0.9127  0.9922  0.3977
 8124TIP3   OH245786   1.946   3.463  13.124  0.2637  0.2293  0.1714
 8124TIP3    H145787   1.946   3.422  13.037 -0.4148  0.2239  0.1709
 8124TIP3    H245788   1.935   3.557  13.106  1.2316  0.3636  0.2036
 8125TIP3   OH245789   4.001   5.173   1.916 -0.1940  0.2581  0.1233
 8125TIP3    H145790   4.008   5.187   1.821 -0.0507 -2.1064 -0.2569
 8125TIP3    H245791   3.910   5.148   1.931 -0.6438  2.1637  0.8945
 8126TIP3   OH245792   1.357   3.174  16.705 -0.2093 -0.0094  0.1550
 8126TIP3    H145793   1.324   3.085  16.696 -0.8571  0.1874  0.5321
 8126TIP3    H245794   1.416   3.171  16.780  1.9144 -0.7132 -1.4486
 8127TIP3   OH245795   2.832   0.850  15.819  0.1560 -0.3296  0.1725
 8127TIP3    H145796   2.767   0.904  15.865 -0.1392 -1.8007  1.5903
 8127TIP3    H245797   2.880   0.805  15.889  2.3667  0.2811 -0.8639
 8128TIP3   OH245798   1.552   4.460   4.964  0.3353  0.5201  0.1057
 8128TIP3    H145799   1.527   4.468   4.872 -0.1756  0.2870  0.2205
 8128TIP3    H245800   1.539   4.547   5.001  1.5359  0.8786 -0.2767
 8129TIP3   OH245801   1.241   0.009  15.507 -0.1495 -0.8232 -0.0770
 8129TIP3    H145802   1.251  -0.035  15.591 -0.1114 -1.4062 -0.3810
 8129TIP3    H245803   1.323   0.057  15.495 -1.0044  1.0727  1.2308
 8130TIP3   OH245804   3.941   2.925  12.671 -0.2673 -0.2951 -0.0353
 8130TIP3    H145805   3.997   2.969  12.735  0.1913 -1.2993  0.2706
 8130TIP3    H245806   3.878   2.876  12.724 -1.5652  0.9414 -0.3726
 8131TIP3   OH245807   3.716   5.886   0.528  0.1625  0.4863  0.3634
 8131TIP3    H145808   3.772   5.913   0.601 -0.2345 -2.2192  1.7955
 8131TIP3    H245809   3.773   5.831   0.474 -0.8053 -1.7266  1.4665
 8132TIP3   OH245810   2.304   1.500   3.256  0.4264 -0.2207  0.2098
 8132TIP3    H145811   2.357   1.425   3.284 -2.3714 -2.1916  0.7185
 8132TIP3    H245812   2.362   1.551   3.201  3.3927 -1.1424  2.2041
 8133TIP3   OH245813   6.441   6.005  14.835  0.3849 -0.3884 -0.8262
 8133TIP3    H145814   6.452   5.923  14.883 -0.9728 -0.9922 -1.4906
 8133TIP3    H245815   6.490   5.992  14.754  1.5681  0.1251 -0.2203
 8134TIP3   OH245816   4.954   2.665   3.282  0.5401  0.0921  0.4492
 8134TIP3    H145817   4.971   2.621   3.365  0.1154  1.4868  1.3227
 8134TIP3    H245818   4.937   2.595   3.220 -1.9588 -0.9948  2.1651
 8135TIP3   OH245819   5.505   2.608  15.149 -0.1836 -0.4886  0.2264
 8135TIP3    H145820   5.453   2.531  15.173  1.4317 -2.4108 -1.9665
 8135TIP3    H245821   5.517   2.600  15.054  1.2465  1.7177  0.1604
 8136TIP3   OH245822   6.264   4.048   5.351  0.0807  0.2050  0.4834
 8136TIP3    H145823   6.237   4.083   5.435 -1.6863  0.5793 -0.1961
 8136TIP3    H245824   6.212   3.969   5.339  0.8051 -0.2201  0.0288
 8137TIP3   OH245825   3.913   1.049  15.048  0.2179  0.6561 -0.3365
 8137TIP3    H145826   3.953   0.983  14.991  2.5355 -0.4225  2.2732
 8137TIP3    H245827   3.987   1.093  15.090 -1.3364  2.4531  0.6883
 8138TIP3   OH245828   1.321   3.638  17.167 -0.2242 -0.4843 -0.0845
 8138TIP3    H145829   1.301   3.585  17.244 -0.1423  1.2392  1.1758
 8138TIP3    H245830   1.261   3.607  17.100 -0.7963 -1.5448  0.8859
 8139TIP3   OH245831   0.190   0.817  10.745 -0.4538  0.0343 -0.3190
 8139TIP3    H145832   0.197   0.911  10.760  1.1999 -0.0794 -0.1952
 8139TIP3    H245833   0.149   0.809  10.659 -1.0226  0.8527 -0.1334
 8140TIP3   OH245834   3.781   0.333  15.321  0.6815 -0.4063 -0.3018
 8140TIP3    H145835   3.829   0.399  15.271  0.8706 -0.3292 -0.0224
 8140TIP3    H245836   3.689   0.352  15.304  0.6713  0.9338  1.0342
 8141TIP3   OH245837   2.381   2.373   0.231  0.1874  0.0238  0.9993
 8141TIP3    H145838   2.433   2.453   0.233  0.7157 -0.2879  0.2552
 8141TIP3    H245839   2.317   2.387   0.161  0.7013 -0.4531  0.4286
 8142TIP3   OH245840   0.315   4.502   3.978  0.1619 -0.0701  0.2215
 8142TIP3    H145841   0.230   4.545   3.983  0.9906  1.5951  0.8814
 8142TIP3    H245842   0.302   4.418   4.022 -0.9665  0.4648  0.9504
 8143TIP3   OH245843   2.670   3.932  11.896  0.2909 -0.4184 -0.1340
 8143TIP3    H145844   2.596   3.934  11.835  0.2351 -0.4873 -0.0689
 8143TIP3    H245845   2.645   3.867  11.961  0.5552 -0.6882 -0.2999
 8144TIP3   OH245846   4.326   5.179  15.036 -0.1716  0.0393 -0.0523
 8144TIP3    H145847   4.406   5.214  14.997  0.4966  0.6408  1.7062
 8144TIP3    H245848   4.301   5.246  15.101 -1.0532 -0.9989  0.7133
 8145TIP3   OH245849   5.161   2.310  14.483  0.2000 -0.3821  0.0123
 8145TIP3    H145850   5.101   2.244  14.447 -0.1209  0.3379 -0.8014
 8145TIP3    H245851   5.104   2.377  14.520  0.4937  0.0530 -0.3048
 8146TIP3   OH245852   4.226   0.891  16.952  0.0786 -0.1860  0.7430
 8146TIP3    H145853   4.241   0.940  17.033  1.6114 -1.1226  1.0686
 8146TIP3    H245854   4.309   0.846  16.935  1.2646  2.9275 -3.4008
 8147TIP3   OH245855   1.231   3.282   5.514  0.3575 -0.0321 -0.2967
 8147TIP3    H145856   1.204   3.209   5.458  0.4122 -0.8731  0.7277
 8147TIP3    H245857   1.326   3.272   5.521  0.3049 -0.1787  0.2571
 8148TIP3   OH245858   0.210   2.487   5.359  0.0824 -0.2198 -0.5111
 8148TIP3    H145859   0.192   2.468   5.451  2.1459  0.1938  0.0243
 8148TIP3    H245860   0.284   2.431   5.337  0.1415  0.2867 -1.6813
 8149TIP3   OH245861   2.943   1.015  15.626  0.4159  0.2621 -0.3928
 8149TIP3    H145862   2.879   0.974  15.684  0.3569  1.1209  0.1672
 8149TIP3    H245863   2.899   1.023  15.542 -0.2487  0.9462  0.0190
 8150TIP3   OH245864   5.801   5.158  12.817  0.3611 -0.3932  0.0951
 8150TIP3    H145865   5.894   5.182  12.812 -0.0441  1.0360 -1.3432
 8150TIP3    H245866   5.797   5.070  12.780  0.9292  0.2940 -1.7335
 8151TIP3   OH245867   5.637   6.183   1.641 -0.1394  0.0414 -0.3504
 8151TIP3    H145868   5.725   6.153   1.617 -0.3083 -0.2829 -0.5686
 8151TIP3    H245869   5.647   6.278   1.652 -0.1080  0.2571 -1.9671
 8152TIP3   OH245870   5.897   2.405   1.852  0.3772 -0.0513  0.4494
 8152TIP3    H145871   5.954   2.340   1.894  0.6046  0.3185  0.7221
 8152TIP3    H245872   5.808   2.376   1.873  0.3444 -1.9414 -1.9143
 8153TIP3   OH245873   3.627   6.395  14.530  0.2134  0.5410 -0.1056
 8153TIP3    H145874   3.652   6.382  14.438 -2.4349 -1.8641 -0.6038
 8153TIP3    H245875   3.546   6.447  14.526  0.2220  0.6537  0.8990
 8154TIP3   OH245876   2.112   4.792   1.287  0.1369  0.4187  0.4625
 8154TIP3    H145877   2.086   4.852   1.217  0.8579 -0.6582 -0.7566
 8154TIP3    H245878   2.119   4.707   1.245  1.1355 -0.1609  1.7320
 8155TIP3   OH245879   2.381   2.373   2.186  0.1434  0.3293  0.2291
 8155TIP3    H145880   2.354   2.333   2.269 -1.2200  1.3120  0.2944
 8155TIP3    H245881   2.432   2.306   2.143 -0.8892 -0.9758  0.9517
 8156TIP3   OH245882   3.245   1.892  15.902 -0.3628 -0.1499  0.0024
 8156TIP3    H145883   3.188   1.846  15.963 -1.8195 -1.5338 -2.2588
 8156TIP3    H245884   3.311   1.827  15.877 -1.0516 -0.3180 -1.4617
 8157TIP3   OH245885   3.080   3.034  15.668 -0.1384 -0.0182 -0.2795
 8157TIP3    H145886   3.057   2.947  15.636  0.1312 -0.0158 -0.4787
 8157TIP3    H245887   3.144   3.019  15.737  1.0565  0.0892 -1.3311
 8158TIP3   OH245888   3.417   1.882   0.335  0.1804 -0.7838  0.3141
 8158TIP3    H145889   3.495   1.843   0.374  0.4925 -1.0579 -0.5656
 8158TIP3    H245890   3.442   1.901   0.244 -0.3534  0.3359  0.3835
 8159TIP3   OH245891   6.247   3.959   2.058 -0.1277  0.1387 -0.0445
 8159TIP3    H145892   6.332   3.916   2.067 -0.3370 -0.2825 -0.0401
 8159TIP3    H245893   6.186   3.887   2.042 -0.8758  0.1477  2.3483
 8160TIP3   OH245894   3.594   3.711  16.450  0.2670  0.2111  0.4365
 8160TIP3    H145895   3.643   3.696  16.532  0.9720  2.0829  0.3973
 8160TIP3    H245896   3.551   3.795  16.463  0.5980  0.6573 -1.2058
 8161TIP3   OH245897   4.214   0.562   2.291  0.0337  0.3516  0.8234
 8161TIP3    H145898   4.143   0.499   2.281  0.5362  0.0448 -1.4502
 8161TIP3    H245899   4.197   0.628   2.224  3.3797 -1.3206 -2.0140
 8162TIP3   OH245900   4.643   3.238  16.754 -0.2129 -0.1805 -0.7203
 8162TIP3    H145901   4.557   3.212  16.785 -0.3812  1.4582  0.3377
 8162TIP3    H245902   4.687   3.156  16.732 -1.1479 -1.2385  1.1159
 8163TIP3   OH245903   6.741   4.653  12.952  0.0396  0.2638 -0.1374
 8163TIP3    H145904   6.723   4.570  12.907 -1.1799  0.7856 -0.6620
 8163TIP3    H245905   6.663   4.668  13.005  0.0281  1.3066 -0.4225
 8164TIP3   OH245906   2.676   3.389   6.276 -0.2830  0.0043 -0.0183
 8164TIP3    H145907   2.687   3.434   6.360  0.0797  1.6660 -0.9178
 8164TIP3    H245908   2.590   3.417   6.245  0.4704  1.1142 -1.1753
 8165TIP3   OH245909   2.845   5.900   2.483 -0.1043 -0.1868  0.0498
 8165TIP3    H145910   2.801   5.816   2.495 -0.0003 -0.1493  0.6893
 8165TIP3    H245911   2.777   5.965   2.499 -0.6260 -0.1330 -2.0649
 8166TIP3   OH245912   2.035   1.560   2.611 -0.0907  0.0273  0.2172
 8166TIP3    H145913   2.026   1.516   2.696 -2.7467 -0.7704 -0.4131
 8166TIP3    H245914   2.112   1.519   2.571  0.9014  0.0572  1.9877
 8167TIP3   OH245915   5.653   2.205  14.151  0.2619  0.8594  0.2289
 8167TIP3    H145916   5.737   2.158  14.152 -0.1783 -0.2026 -2.6181
 8167TIP3    H245917   5.617   2.193  14.239  1.0709 -2.5194  0.2089
 8168TIP3   OH245918   0.215   3.107   5.850 -0.2330 -0.3937 -0.3324
 8168TIP3    H145919   0.206   3.021   5.809  0.9781 -1.1260  0.8829
 8168TIP3    H245920   0.261   3.090   5.932 -1.7847  1.1342  0.9376
 8169TIP3   OH245921   5.654   3.855  12.434  0.5866 -0.3869 -0.4229
 8169TIP3    H145922   5.749   3.851  12.434  0.5758 -0.7094  0.0422
 8169TIP3    H245923   5.632   3.896  12.350  1.1300 -0.3016 -0.5299
 8170TIP3   OH245924   5.560   5.621   2.660 -0.5508 -0.1130  0.4547
 8170TIP3    H145925   5.470   5.624   2.693  0.2295 -0.7331  2.8549
 8170TIP3    H245926   5.603   5.696   2.701 -0.2108  0.8845 -1.6209
 8171TIP3   OH245927   4.049   0.360   6.340  0.0862 -0.1682  0.5508
 8171TIP3    H145928   4.071   0.433   6.282  0.8801 -1.0217 -0.2611
 8171TIP3    H245929   4.034   0.286   6.281 -0.2529 -0.7772  1.3766
 8172TIP3   OH245930   6.011   2.177   1.682 -0.8666  0.1902 -0.0649
 8172TIP3    H145931   6.101   2.152   1.662 -1.3864 -1.1739 -0.8342
 8172TIP3    H245932   6.011   2.198   1.775 -0.2538 -2.1716  0.5080
 8173TIP3   OH245933   1.120   6.257  12.948 -0.2945 -0.7938 -0.0090
 8173TIP3    H145934   1.037   6.298  12.924  0.1432  1.4515  2.0184
 8173TIP3    H245935   1.120   6.254  13.043  1.4342 -1.9441  0.0150
 8174TIP3   OH245936   1.711   1.659  14.362  0.1518  0.1209 -0.0868
 8174TIP3    H145937   1.670   1.584  14.318  0.4305  1.2619 -2.4464
 8174TIP3    H245938   1.740   1.624  14.446 -2.8062 -1.5114  0.3811
 8175TIP3   OH245939   6.345   3.313   2.331 -0.1960  0.9562 -0.4024
 8175TIP3    H145940   6.334   3.218   2.323  1.3926  0.6737  0.2826
 8175TIP3    H245941   6.333   3.346   2.243  2.2835 -0.2822 -1.3033
 8176TIP3   OH245942   1.297   4.080  14.896 -0.5721 -0.1094 -0.6790
 8176TIP3    H145943   1.306   4.172  14.870  0.4407  0.0141  0.0466
 8176TIP3    H245944   1.366   4.035  14.849 -1.8432 -0.7465 -2.0078
 8177TIP3   OH245945   2.829   3.316   3.076  0.4223 -0.4820  0.0754
 8177TIP3    H145946   2.778   3.389   3.111 -0.6654 -0.3271 -1.7074
 8177TIP3    H245947   2.767   3.243   3.072  0.2056 -0.2292 -2.3402
 8178TIP3   OH245948   5.567   3.386   0.136 -0.4870 -0.0321 -1.0499
 8178TIP3    H145949   5.488   3.392   0.190 -0.7698 -0.0977 -1.4515
 8178TIP3    H245950   5.619   3.316   0.176 -0.5565  0.1256 -0.6863
 8179TIP3   OH245951   4.259   1.354   2.498  0.1159 -0.9210  0.1665
 8179TIP3    H145952   4.313   1.338   2.421  1.7418  1.2064  0.7724
 8179TIP3    H245953   4.275   1.446   2.520 -3.2330 -0.3752  0.8502
 8180TIP3   OH245954   6.534   1.107  15.659  0.0593  0.1122  0.3413
 8180TIP3    H145955   6.467   1.170  15.685 -2.3520 -1.5482 -1.4090
 8180TIP3    H245956   6.519   1.032  15.717  1.9801  0.5196  1.4611
 8181TIP3   OH245957   2.246   6.577  15.523  0.0299 -0.1166  0.2384
 8181TIP3    H145958   2.170   6.616  15.567 -0.7673 -0.6234 -0.6533
 8181TIP3    H245959   2.210   6.534  15.446  1.4913  1.6892 -1.5672
 8182TIP3   OH245960   1.005   0.781  11.714  0.2620 -0.4194 -0.5125
 8182TIP3    H145961   0.993   0.784  11.809 -0.0445 -0.1372 -0.5615
 8182TIP3    H245962   0.968   0.862  11.682  0.8985 -0.2421 -0.8204
 8183TIP3   OH245963   4.429   0.023  11.290 -0.0087  0.3830  0.1935
 8183TIP3    H145964   4.513  -0.017  11.312 -0.2837 -0.8325 -0.8897
 8183TIP3    H245965   4.366  -0.021  11.347 -0.2150 -0.2861 -0.5359
 8184TIP3   OH245966   5.218   3.925   2.471 -0.0156 -0.4240 -0.0086
 8184TIP3    H145967   5.188   3.912   2.561  0.8825  0.0937  0.3797
 8184TIP3    H245968   5.313   3.910   2.476  0.0250 -0.4937 -0.8934
 8185TIP3   OH245969   4.394   6.676  12.564 -0.8702 -0.1720  0.4622
 8185TIP3    H145970   4.426   6.586  12.570 -0.6904 -0.1048  0.5232
 8185TIP3    H245971   4.458   6.728  12.614 -0.6377  0.0729 -0.0779
 8186TIP3   OH245972   0.119   2.786  14.515 -0.6160 -0.1198  0.2240
 8186TIP3    H145973   0.062   2.844  14.564  0.5000  0.8064  0.4733
 8186TIP3    H245974   0.197   2.839  14.496 -0.2401 -1.0364 -0.9390
 8187TIP3   OH245975   6.708   2.278   0.391 -0.5647  0.3572  0.4282
 8187TIP3    H145976   6.671   2.278   0.479  0.0240 -1.9720  0.7465
 8187TIP3    H245977   6.711   2.186   0.366  0.9405  0.8144 -1.3166
 8188TIP3   OH245978   1.095   0.555   1.714 -0.3356  0.2869  0.3663
 8188TIP3    H145979   1.134   0.604   1.642 -1.2983  0.7674  0.1553
 8188TIP3    H245980   1.021   0.609   1.743  0.3733  0.3883  2.1090
 8189TIP3   OH245981   0.942   3.187  12.545 -0.2568  0.2824 -0.0257
 8189TIP3    H145982   0.854   3.223  12.552 -0.2830  0.5268 -1.3307
 8189TIP3    H245983   0.976   3.190  12.634 -2.2460 -1.6453  0.8766
 8190TIP3   OH245984   3.205   5.853  16.666  0.4972 -0.0773 -0.2162
 8190TIP3    H145985   3.261   5.917  16.621 -0.0921  0.0137 -0.8426
 8190TIP3    H245986   3.266   5.795  16.710  1.0474  1.5879  1.3550
 8191TIP3   OH245987   6.384   4.790   4.469  0.4028 -0.0975  0.0915
 8191TIP3    H145988   6.351   4.838   4.393  2.5976  2.0180  0.3685
 8191TIP3    H245989   6.329   4.818   4.541 -1.0385 -1.3468 -0.4536
 8192TIP3   OH245990   0.817   1.724   1.915 -0.4391 -0.5107  0.9233
 8192TIP3    H145991   0.879   1.767   1.974  0.4681 -1.0019  0.3490
 8192TIP3    H245992   0.867   1.704   1.837 -1.6757  0.2976 -0.1290
 8193TIP3   OH245993   0.293   1.871   4.051 -0.5907  0.0890  0.1901
 8193TIP3    H145994   0.387   1.879   4.067 -0.2221 -1.6357 -0.9221
 8193TIP3    H245995   0.269   1.955   4.010  0.9397 -0.2457 -1.5504
 8194TIP3   OH245996   6.162   2.436  15.062 -0.1757 -0.1611 -0.3344
 8194TIP3    H145997   6.107   2.377  15.011 -0.7966 -0.4486  0.6457
 8194TIP3    H245998   6.227   2.379  15.104  0.1573  0.0394 -0.5640
 8195TIP3   OH245999   5.493   1.312  14.478  0.8212 -0.2256 -0.0093
 8195TIP3    H146000   5.472   1.372  14.550  1.6099 -0.2836  0.2844
 8195TIP3    H246001   5.518   1.230  14.522  1.1975 -0.2953 -0.3483
 8196TIP3   OH246002   3.837   1.291   6.731  0.2608 -0.4019  0.6719
 8196TIP3    H146003   3.852   1.383   6.751 -1.4057 -0.2538  1.3792
 8196TIP3    H246004   3.775   1.292   6.658 -1.3794 -0.9237  2.0066
 8197TIP3   OH246005   0.428   1.059  10.167  0.3160  0.2435  0.0459
 8197TIP3    H146006   0.521   1.051  10.186  0.0284 -1.9507  0.7981
 8197TIP3    H246007   0.392   1.107  10.242  0.8292  1.1598 -0.2827
 8198TIP3   OH246008   0.495   5.251   3.039 -0.1807 -0.2718  0.7409
 8198TIP3    H146009   0.483   5.344   3.058 -2.1512 -0.4632  0.6158
 8198TIP3    H246010   0.569   5.225   3.094  0.0378  1.2410  1.1991
 8199TIP3   OH246011   4.413   0.642   3.414 -0.0250 -0.4967 -0.2614
 8199TIP3    H146012   4.412   0.556   3.457 -1.6601  0.4604  1.8197
 8199TIP3    H246013   4.497   0.680   3.438  2.0858 -2.5337 -3.6713
 8200TIP3   OH246014   6.346   0.035   4.421 -0.2233 -0.0760 -0.1248
 8200TIP3    H146015   6.297   0.089   4.483  1.4563  3.3535 -1.5209
 8200TIP3    H246016   6.279  -0.012   4.371 -1.7795  0.5108  1.3331
 8201TIP3   OH246017   0.255   5.351  14.811  0.7122  0.5041  0.2842
 8201TIP3    H146018   0.347   5.328  14.793  0.3485  0.5082 -1.7752
 8201TIP3    H246019   0.205   5.277  14.777 -0.0524 -0.2872  2.8644
 8202TIP3   OH246020   0.547   3.163  10.663  0.3553 -0.2075 -0.1143
 8202TIP3    H146021   0.491   3.225  10.709 -0.8668  0.7979 -2.7618
 8202TIP3    H246022   0.511   3.077  10.685  0.0280  0.1948  1.0046
 8203TIP3   OH246023   3.786   5.348  16.743  0.2663 -0.2316 -0.1562
 8203TIP3    H146024   3.831   5.277  16.698 -0.1836  0.1767 -1.2901
 8203TIP3    H246025   3.855   5.407  16.772  0.5858 -0.7006  0.0434
 8204TIP3   OH246026   2.741   2.618  13.222 -0.0634  0.0159 -0.2005
 8204TIP3    H146027   2.679   2.655  13.159 -1.4445 -0.1678  1.0075
 8204TIP3    H246028   2.795   2.693  13.248 -1.2843  0.7230  0.4291
 8205TIP3   OH246029   4.776   3.110  13.001  0.0452  0.2122 -0.0075
 8205TIP3    H146030   4.745   3.197  12.974 -0.8047 -0.7462 -2.5046
 8205TIP3    H246031   4.836   3.084  12.931  1.5626 -0.5845  1.5392
 8206TIP3   OH246032   4.346   0.831  13.120  0.2645  0.2854 -0.1940
 8206TIP3    H146033   4.343   0.763  13.186 -0.2645  1.1452  0.6912
 8206TIP3    H246034   4.322   0.786  13.038  1.2654 -0.8523  0.1119
 8207TIP3   OH246035   2.659   3.718  12.160 -0.3764  0.4308 -0.2194
 8207TIP3    H146036   2.679   3.675  12.077 -2.3414 -0.6708 -0.1670
 8207TIP3    H246037   2.694   3.658  12.227  1.5120  1.4783 -0.1828
 8208TIP3   OH246038   6.706   4.414   5.422 -0.3437  0.2542 -0.1325
 8208TIP3    H146039   6.715   4.325   5.387 -1.4852  0.7728 -1.8583
 8208TIP3    H246040   6.642   4.406   5.492 -1.0903 -0.1570 -0.8477
 8209TIP3   OH246041   0.875   4.813   0.037 -0.1148 -0.2015 -0.0343
 8209TIP3    H146042   0.813   4.817   0.110 -0.3325  0.6487 -0.2500
 8209TIP3    H246043   0.960   4.801   0.078 -0.1043  1.3176  0.4453
 8210TIP3   OH246044   5.353   4.927   4.723  0.4100 -0.1204 -0.0485
 8210TIP3    H146045   5.414   4.856   4.705 -0.0086 -0.8724  1.3422
 8210TIP3    H246046   5.267   4.886   4.723  0.1611  0.3785  0.7953
 8211TIP3   OH246047   3.021   0.314   1.190  0.1272  0.2095  0.3386
 8211TIP3    H146048   3.008   0.294   1.097  1.3799  0.3349  0.1202
 8211TIP3    H246049   3.007   0.408   1.196 -1.5732 -0.0136  0.6052
 8212TIP3   OH246050   6.687   2.527   2.545  0.3745  0.1465  0.0668
 8212TIP3    H146051   6.656   2.492   2.629  1.3523  0.4510  0.5770
 8212TIP3    H246052   6.667   2.458   2.482 -1.6700  0.4961  0.2682
 8213TIP3   OH246053   3.027   0.572   2.527 -0.0873 -0.4802 -0.1321
 8213TIP3    H146054   2.943   0.604   2.558  0.1860 -2.2805  2.8439
 8213TIP3    H246055   3.088   0.645   2.541 -0.9978  0.6933 -1.9375
 8214TIP3   OH246056   4.328   6.605  11.655  0.2596 -0.1771 -0.2843
 8214TIP3    H146057   4.324   6.687  11.703  1.2874 -0.6579  0.6755
 8214TIP3    H246058   4.271   6.546  11.704  0.8892 -0.5180  0.0496
 8215TIP3   OH246059   5.757   4.901  11.282  0.3450 -0.4401  0.1778
 8215TIP3    H146060   5.818   4.843  11.236  0.4408 -0.6501  0.5672
 8215TIP3    H246061   5.671   4.863  11.266  0.0496  1.0128 -2.1485
 8216TIP3   OH246062   5.935   3.839   2.392 -0.2751  0.0573  0.9431
 8216TIP3    H146063   5.998   3.796   2.335 -1.0862  1.2360 -0.9583
 8216TIP3    H246064   5.877   3.769   2.422  0.3188 -0.6176  0.5235
 8217TIP3   OH246065   4.202   0.388   3.814  0.1152 -0.2385  0.0972
 8217TIP3    H146066   4.147   0.313   3.792 -1.6582  1.0988 -0.2418
 8217TIP3    H246067   4.227   0.374   3.906 -1.4526 -0.5200  0.5038
 8218TIP3   OH246068   2.172   2.317  16.392  0.6482 -0.1807  0.5552
 8218TIP3    H146069   2.121   2.398  16.394  2.4638  1.0218  2.7307
 8218TIP3    H246070   2.237   2.331  16.323  1.3140  0.5123  1.2955
 8219TIP3   OH246071   6.461   6.217  13.962 -0.0056  0.3561 -0.4664
 8219TIP3    H146072   6.391   6.254  14.016 -0.0216  0.2268 -0.4001
 8219TIP3    H246073   6.432   6.235  13.872  0.1503  0.8109 -0.4305
 8220TIP3   OH246074   6.247   4.259   6.138 -0.7191 -0.2195  0.0265
 8220TIP3    H146075   6.257   4.339   6.087 -1.8469  0.8419  1.3986
 8220TIP3    H246076   6.335   4.236   6.165 -0.4494  0.8991  0.1214
 8221TIP3   OH246077   5.219   0.625   5.409 -0.5595  0.5219  0.3780
 8221TIP3    H146078   5.170   0.633   5.491 -1.1860 -1.0133  0.1898
 8221TIP3    H246079   5.290   0.689   5.418 -0.8990  0.7454  1.8993
 8222TIP3   OH246080   5.060   1.321   6.411 -0.0096 -0.0216 -0.4812
 8222TIP3    H146081   5.087   1.393   6.354  1.5047 -0.9742 -1.0129
 8222TIP3    H246082   5.112   1.246   6.383 -0.5054 -0.9831  1.0046
 8223TIP3   OH246083   1.285   5.331  17.161 -0.7117  0.4267 -0.7239
 8223TIP3    H146084   1.341   5.316  17.238 -1.6674 -1.7188 -0.3958
 8223TIP3    H246085   1.248   5.418  17.176  0.3525  0.7219  0.4386
 8224TIP3   OH246086   2.102   3.711   4.585  0.0056 -0.9063  0.5713
 8224TIP3    H146087   2.067   3.726   4.497  1.1904 -1.5515 -0.0272
 8224TIP3    H246088   2.142   3.625   4.581 -1.6077 -1.8199  2.3102
 8225TIP3   OH246089   2.502   4.139  12.104  0.4815  0.1883 -0.2839
 8225TIP3    H146090   2.501   4.192  12.184 -0.2512  0.0840 -0.2193
 8225TIP3    H246091   2.531   4.053  12.132 -1.9434 -0.5030  0.3092
 8226TIP3   OH246092   0.250   2.430  15.155  0.1866  0.1384  0.3422
 8226TIP3    H146093   0.237   2.502  15.093  0.7793  0.5071  0.6346
 8226TIP3    H246094   0.321   2.460  15.211  0.0267 -0.4268  0.8521
 8227TIP3   OH246095   2.142   1.764   4.884  0.5769 -0.1164  0.1803
 8227TIP3    H146096   2.106   1.785   4.798  1.6460  0.5735 -0.1220
 8227TIP3    H246097   2.115   1.836   4.940  1.0076  0.1186  0.0887
 8228TIP3   OH246098   5.398   3.391  13.383  0.5218 -0.3219  0.3036
 8228TIP3    H146099   5.464   3.407  13.315  2.5929 -0.5576  2.1688
 8228TIP3    H246100   5.382   3.297  13.380  0.2816 -0.2688 -0.1331
 8229TIP3   OH246101   5.527   1.513  16.115 -0.0365  0.0432 -0.2078
 8229TIP3    H146102   5.554   1.602  16.091 -1.3808  0.3226 -0.7775
 8229TIP3    H246103   5.441   1.525  16.156  0.3091 -0.8835  0.8302
 8230TIP3   OH246104   6.701   2.005   5.846  0.6400 -0.1320 -0.4705
 8230TIP3    H146105   6.734   1.930   5.894 -0.5515 -0.7568 -0.5833
 8230TIP3    H246106   6.649   1.967   5.775 -1.7379  0.7421  0.6994
 8231TIP3   OH246107   1.698   2.647   3.632 -0.2609 -0.1475 -0.4465
 8231TIP3    H146108   1.635   2.661   3.562  0.1769  0.9042 -0.6487
 8231TIP3    H246109   1.647   2.609   3.703 -1.7264  2.9223  0.3051
 8232TIP3   OH246110   3.108   3.307   3.132 -0.1909  0.8822 -0.1577
 8232TIP3    H146111   3.021   3.287   3.096 -0.0957  0.1542  0.0118
 8232TIP3    H246112   3.159   3.227   3.119  0.3344  1.1697  0.1092
 8233TIP3   OH246113   0.595   3.085   4.388  0.5004  0.1266  0.2114
 8233TIP3    H146114   0.509   3.124   4.374  0.5776 -0.3993 -2.1465
 8233TIP3    H246115   0.633   3.136   4.460 -1.3772  1.0058  0.6400
 8234TIP3   OH246116   5.282   5.628   5.431  0.4954  0.2931  0.0006
 8234TIP3    H146117   5.251   5.573   5.503  0.1312  1.3510  0.6752
 8234TIP3    H246118   5.365   5.588   5.404 -0.7251 -1.8170 -0.9556
 8235TIP3   OH246119   3.066   5.268  15.151 -0.0318 -0.6195  0.2927
 8235TIP3    H146120   3.006   5.274  15.225 -1.2823  0.4110 -0.7302
 8235TIP3    H246121   3.026   5.204  15.092  0.2792 -0.4980 -0.0582
 8236TIP3   OH246122   1.896   2.981  13.780 -0.5105 -0.2697  0.2897
 8236TIP3    H146123   1.981   3.014  13.810 -1.3440  1.0004  1.3736
 8236TIP3    H246124   1.912   2.952  13.690  0.7114  1.4501 -0.0953
 8237TIP3   OH246125   3.395   1.062  14.145  0.2473 -0.3074 -0.2287
 8237TIP3    H146126   3.433   1.150  14.149  2.1157 -1.0935  0.3141
 8237TIP3    H246127   3.455   1.012  14.091 -0.2593 -1.4957  0.2687
 8238TIP3   OH246128   1.736   5.390   4.445 -0.1305 -0.3826 -0.2980
 8238TIP3    H146129   1.754   5.328   4.515  1.2287  1.2143  0.8513
 8238TIP3    H246130   1.670   5.347   4.391  0.0381 -2.3795  0.9867
 8239TIP3   OH246131   0.443   4.204  14.715 -0.1513 -0.1915 -0.0530
 8239TIP3    H146132   0.494   4.155  14.780  0.4548 -3.1284 -2.5276
 8239TIP3    H246133   0.500   4.206  14.638 -1.9998  0.5502 -1.4546
 8240TIP3   OH246134   2.207   3.319  12.955 -0.3071  0.1530 -1.0791
 8240TIP3    H146135   2.174   3.357  12.873  0.8297  1.3471 -1.0122
 8240TIP3    H246136   2.278   3.377  12.981  0.4989 -1.2083 -0.1501
 8241TIP3   OH246137   0.779   4.336  14.466 -0.2030  0.1082  0.0843
 8241TIP3    H146138   0.739   4.250  14.484  0.4812  0.0856  1.6765
 8241TIP3    H246139   0.831   4.322  14.387  1.1585 -1.4089  1.1827
 8242TIP3   OH246140   5.274   2.751   4.278  0.2346  0.0807  0.0697
 8242TIP3    H146141   5.208   2.682   4.280  0.6475 -0.3041  2.0935
 8242TIP3    H246142   5.357   2.704   4.285  0.7625  0.5971 -1.8993
 8243TIP3   OH246143   6.172   6.078   5.324 -0.2938  0.1248  0.0627
 8243TIP3    H146144   6.113   6.129   5.267  0.7889 -0.0264 -1.2402
 8243TIP3    H246145   6.259   6.096   5.289  0.9307  2.9477  3.9009
 8244TIP3   OH246146   6.548   5.056   1.247  0.3515  0.0478  0.7225
 8244TIP3    H146147   6.509   4.969   1.238  0.0359  0.0056  2.3314
 8244TIP3    H246148   6.500   5.110   1.184  1.1063 -1.0857 -0.9068
 8245TIP3   OH246149   4.948   2.994   5.123 -0.0234 -0.0788  0.1081
 8245TIP3    H146150   4.985   3.010   5.210 -0.3737 -2.4325  0.7472
 8245TIP3    H246151   5.012   2.938   5.079  1.5848  3.3264 -2.3577
 8246TIP3   OH246152   5.614   5.974   5.333 -0.2274 -0.2137  0.3126
 8246TIP3    H146153   5.561   5.999   5.409 -0.5941  0.3731 -0.1275
 8246TIP3    H246154   5.689   6.033   5.335  0.2375 -0.8117  0.7364
 8247TIP3   OH246155   3.193   5.376   5.238  0.2438  0.7335  0.3683
 8247TIP3    H146156   3.264   5.320   5.270 -0.2124  0.1115  0.3154
 8247TIP3    H246157   3.155   5.327   5.165 -1.4524  0.1761  1.5876
 8248TIP3   OH246158   2.180   6.307  13.453  0.0239  0.0626  0.5069
 8248TIP3    H146159   2.185   6.249  13.530  0.2604  0.5600  0.8726
 8248TIP3    H246160   2.136   6.254  13.386  1.7507 -1.1630  0.2764
 8249TIP3   OH246161   3.253   0.009   2.997  0.1314  0.1529  0.1563
 8249TIP3    H146162   3.220   0.034   2.910  0.6970 -0.6336 -0.2943
 8249TIP3    H246163   3.183   0.033   3.057 -0.2007  0.8611 -0.4981
 8250TIP3   OH246164   4.007   2.848  12.239 -0.5480 -0.1439 -0.9924
 8250TIP3    H146165   3.996   2.767  12.288  0.9327 -0.0355 -0.4233
 8250TIP3    H246166   4.064   2.824  12.166 -0.0301  0.3787 -0.7711
 8251TIP3   OH246167   5.715   2.906   5.945 -0.1648  0.0775 -0.1372
 8251TIP3    H146168   5.709   2.812   5.961  2.0214  0.0510  0.9821
 8251TIP3    H246169   5.749   2.942   6.027 -1.1129  1.8813 -0.4858
 8252TIP3   OH246170   2.930   6.628  15.375  0.0168 -0.1486  0.1772
 8252TIP3    H146171   2.997   6.591  15.432  0.7747  0.1095 -0.5270
 8252TIP3    H246172   2.947   6.590  15.289  0.2677  1.1370 -0.3703
 8253TIP3   OH246173   2.886   6.776   1.597  0.5110 -0.0255  0.5013
 8253TIP3    H146174   2.838   6.699   1.566  0.4616 -0.5760  1.8618
 8253TIP3    H246175   2.822   6.847   1.591  0.0882 -0.3904  0.5726
 8254TIP3   OH246176   3.561   6.217  17.112  0.2257  0.2938  0.1772
 8254TIP3    H146177   3.589   6.295  17.159 -1.8167  0.9770  0.3520
 8254TIP3    H246178   3.510   6.167  17.176  1.1651 -1.0102 -0.0468
 8255TIP3   OH246179   1.185   5.000  16.869  0.0949 -0.1408 -0.3939
 8255TIP3    H146180   1.203   5.095  16.870  2.7122 -0.4827  2.5619
 8255TIP3    H246181   1.252   4.964  16.810  0.8403 -0.3209  0.5362
 8256TIP3   OH246182   4.138   5.168  15.534  0.4442  0.5264  0.7572
 8256TIP3    H146183   4.147   5.188  15.628 -2.5466 -1.7518  1.6849
 8256TIP3    H246184   4.049   5.195  15.513  1.2514  1.5339 -1.6775
 8257TIP3   OH246185   4.098   3.775   6.007 -0.5180  0.1820 -0.4504
 8257TIP3    H146186   4.140   3.761   5.922 -1.8178 -0.1627 -1.0582
 8257TIP3    H246187   4.022   3.718   6.006 -0.9912  0.7693  0.6331
 8258TIP3   OH246188   5.809   3.568  16.957 -0.4645 -0.2547 -0.1564
 8258TIP3    H146189   5.827   3.494  16.900  1.9142 -0.5450  0.8122
 8258TIP3    H246190   5.851   3.544  17.040  1.3685  2.5734 -0.1372
 8259TIP3   OH246191   2.094   3.426   5.333 -0.0844 -0.0510 -0.1375
 8259TIP3    H146192   2.054   3.346   5.368  2.9076 -0.7600  2.0158
 8259TIP3    H246193   2.051   3.439   5.248 -3.5077 -1.6305  1.1767
 8260TIP3   OH246194   0.689   5.733  15.958 -0.0522 -0.0540  0.4583
 8260TIP3    H146195   0.649   5.750  15.873  1.3007 -0.6701 -0.3369
 8260TIP3    H246196   0.648   5.796  16.017 -3.0292 -1.3759 -0.0001
 8261TIP3   OH246197   1.268   2.482   3.869  0.0692  0.0801  0.5152
 8261TIP3    H146198   1.324   2.414   3.832  1.5953  0.5836  1.8248
 8261TIP3    H246199   1.179   2.455   3.843  0.7931 -1.2448 -0.7952
 8262TIP3   OH246200   2.923   3.120  13.469  0.0923  0.0246 -0.6755
 8262TIP3    H146201   3.010   3.140  13.434  0.0786  0.6963 -0.3494
 8262TIP3    H246202   2.863   3.140  13.398  0.2018 -0.4381 -0.9002
 8263TIP3   OH246203   5.323   2.690  10.467  0.0177 -0.6199 -1.3013
 8263TIP3    H146204   5.379   2.614  10.487 -0.5213 -0.5917  0.4798
 8263TIP3    H246205   5.378   2.745  10.411  0.7689 -1.8603 -1.8439
 8264TIP3   OH246206   4.276   1.272  14.004  0.8169 -0.1760  0.5110
 8264TIP3    H146207   4.216   1.264  13.930  1.6518  0.7355 -0.2857
 8264TIP3    H246208   4.363   1.282  13.964  1.4723 -1.0971  1.6352
 8265TIP3   OH246209   5.277   2.760   1.470 -0.3351  0.0051  0.3532
 8265TIP3    H146210   5.189   2.769   1.433 -0.1351 -0.5057 -0.2657
 8265TIP3    H246211   5.330   2.823   1.422 -0.1714 -0.3431  0.0681
 8266TIP3   OH246212   5.049   2.524  15.472  0.7828 -0.4294 -0.1033
 8266TIP3    H146213   4.999   2.582  15.530 -0.3910 -1.4302 -0.0671
 8266TIP3    H246214   5.140   2.546  15.490  0.4864 -1.0424  2.5438
 8267TIP3   OH246215   6.430   0.186  16.196 -0.0370  0.1189  0.6921
 8267TIP3    H146216   6.395   0.242  16.127 -1.6167 -0.1344  1.2538
 8267TIP3    H246217   6.353   0.159  16.246  0.6513 -2.5564  0.4468
 8268TIP3   OH246218   1.606   2.498  15.356 -0.2093 -0.2889 -0.1381
 8268TIP3    H146219   1.642   2.413  15.328  0.6792 -0.0495  0.2266
 8268TIP3    H246220   1.513   2.482  15.368 -0.6660 -0.4648 -3.0650
 8269TIP3   OH246221   2.723   0.121   3.420 -0.3420 -0.6367  0.3206
 8269TIP3    H146222   2.801   0.111   3.475  1.0569 -0.9685 -1.6336
 8269TIP3    H246223   2.707   0.033   3.386  0.2112 -0.0424 -1.5709
 8270TIP3   OH246224   3.711   2.394  14.960  0.1737  0.6904  0.1758
 8270TIP3    H146225   3.766   2.362  15.032  1.1120 -1.7925 -1.5063
 8270TIP3    H246226   3.773   2.431  14.897 -0.3968  0.7105 -0.3828
 8271TIP3   OH246227   6.421   1.243   3.098  0.0338  0.6091 -0.8213
 8271TIP3    H146228   6.424   1.246   3.194 -0.4096  0.9980 -0.8182
 8271TIP3    H246229   6.345   1.189   3.078  1.2087 -1.0980 -0.9598
 8272TIP3   OH246230   3.896   0.974   0.058 -0.2755  0.2248 -0.2703
 8272TIP3    H146231   3.937   1.018   0.133  1.3977  1.5166 -1.8603
 8272TIP3    H246232   3.961   0.909   0.030 -0.1199  0.9478 -1.6445
 8273TIP3   OH246233   6.389   6.278  15.358  0.7671 -0.3729  0.0872
 8273TIP3    H146234   6.419   6.190  15.335  2.3525 -0.0000  0.5798
 8273TIP3    H246235   6.462   6.335  15.334  0.2549  0.6673  0.9036
 8274TIP3   OH246236   2.915   3.494   0.966  0.3346  0.0746 -0.2475
 8274TIP3    H146237   2.835   3.465   1.011 -0.8830  1.5641 -1.3414
 8274TIP3    H246238   2.967   3.415   0.956 -1.2936 -1.0745 -0.0668
 8275TIP3   OH246239   1.658   5.736   5.157  0.1706 -0.6196  0.8434
 8275TIP3    H146240   1.663   5.803   5.226 -0.3574 -0.6753  0.9373
 8275TIP3    H246241   1.741   5.746   5.109 -0.6098  1.3260 -0.2550
 8276TIP3   OH246242   3.770   2.333  10.981  0.1013  0.8671  0.0595
 8276TIP3    H146243   3.717   2.255  10.995  0.0758  0.9392  0.3960
 8276TIP3    H246244   3.766   2.350  10.887 -0.7803  1.0857  0.1341
 8277TIP3   OH246245   1.270   5.058  11.143 -0.6337  0.2776 -0.2511
 8277TIP3    H146246   1.317   5.133  11.107 -1.4073  0.4817 -0.8555
 8277TIP3    H246247   1.210   5.097  11.207 -2.0708  0.3748 -1.5886
 8278TIP3   OH246248   3.704   1.831  16.391  0.4243  0.0851  0.4530
 8278TIP3    H146249   3.653   1.771  16.336  1.6218 -0.1498 -0.4600
 8278TIP3    H246250   3.669   1.918  16.372  0.1122 -0.1091  0.1324
 8279TIP3   OH246251   3.229   6.066  11.565 -0.1022 -0.4074  0.7829
 8279TIP3    H146252   3.203   6.029  11.480  0.0951 -1.6833  1.2573
 8279TIP3    H246253   3.281   6.143  11.542  0.8086 -1.2969 -0.3037
 8280TIP3   OH246254   0.890   6.403   4.251  0.4798  0.6109 -0.0972
 8280TIP3    H146255   0.817   6.351   4.217  0.8632  0.3007 -0.4519
 8280TIP3    H246256   0.856   6.492   4.255 -0.4947  0.1962  1.4109
 8281TIP3   OH246257   5.740   0.086   5.353  0.4752  0.2638 -0.3394
 8281TIP3    H146258   5.746   0.159   5.291  1.5084 -0.5569 -1.2561
 8281TIP3    H246259   5.781   0.013   5.307 -0.1832 -0.7913  0.7137
 8282TIP3   OH246260   1.307   4.046  14.525  0.3898 -0.3954  0.6427
 8282TIP3    H146261   1.236   4.108  14.545  0.4658 -0.1604  0.1995
 8282TIP3    H246262   1.277   3.963  14.562 -0.4383 -0.4647 -0.1381
 8283TIP3   OH246263   1.264   5.646   3.677 -0.0356 -0.1710  0.3650
 8283TIP3    H146264   1.213   5.585   3.729 -0.4145  0.2267  0.4634
 8283TIP3    H246265   1.199   5.703   3.635  0.2835 -0.2407 -0.2313
 8284TIP3   OH246266   4.246   0.282   5.926  0.1390  0.0771 -0.0560
 8284TIP3    H146267   4.341   0.298   5.930  0.0452  0.5858  0.4277
 8284TIP3    H246268   4.226   0.280   5.833  0.5844  0.2818 -0.1619
 8285TIP3   OH246269   6.063   1.975  16.796 -0.1272 -0.5003 -0.0350
 8285TIP3    H146270   6.134   1.986  16.732  0.3727  0.2703  0.6381
 8285TIP3    H246271   6.086   1.896  16.844  2.8119  1.9970  3.2330
 8286TIP3   OH246272   5.446   1.142   2.675 -0.7021  0.1148 -0.4489
 8286TIP3    H146273   5.367   1.101   2.709 -1.9025  1.4249 -1.5115
 8286TIP3    H246274   5.503   1.152   2.751 -1.4989 -0.9408  0.3246
 8287TIP3   OH246275   1.130   2.707   5.723  0.4451  0.6249  0.6976
 8287TIP3    H146276   1.042   2.669   5.725  0.3584  0.6944 -0.6519
 8287TIP3    H246277   1.188   2.635   5.749 -0.0396  0.7317  2.1175
 8288TIP3   OH246278   2.353   4.434  16.346  0.3109  0.4101 -0.0198
 8288TIP3    H146279   2.354   4.503  16.279 -2.6717 -0.2813 -0.9519
 8288TIP3    H246280   2.444   4.404  16.352  1.1528  2.3889 -1.7370
 8289TIP3   OH246281   2.941   1.030  13.403  0.4082  0.2192 -0.0956
 8289TIP3    H146282   3.032   1.007  13.387  0.9363  1.3577  1.0729
 8289TIP3    H246283   2.945   1.113  13.452 -1.2079 -0.2674  0.9537
 8290TIP3   OH246284   6.027   6.315   4.284 -0.2721  0.1027 -0.1457
 8290TIP3    H146285   6.117   6.318   4.318  0.3620 -1.1870 -1.5611
 8290TIP3    H246286   5.982   6.251   4.339 -0.1117  0.1995  0.0989
 8291TIP3   OH246287   4.079   6.708   5.884  0.0195  0.5119 -0.6182
 8291TIP3    H146288   3.994   6.673   5.910  0.4184 -0.7083 -0.8946
 8291TIP3    H246289   4.122   6.635   5.839  2.1559  0.3099  1.5591
 8292TIP3   OH246290   0.481   3.455   4.219 -0.2260 -0.0326 -0.8020
 8292TIP3    H146291   0.561   3.418   4.183  0.0095  1.6735 -2.1728
 8292TIP3    H246292   0.411   3.411   4.171 -0.1010 -0.8407 -0.2706
 8293TIP3   OH246293   0.735   0.799   5.737  0.5147 -0.0890 -0.0136
 8293TIP3    H146294   0.752   0.825   5.828  2.2217  1.0935 -0.6017
 8293TIP3    H246295   0.806   0.738   5.716  1.4688  1.3417 -1.1648
 8294TIP3   OH246296   3.964   2.378  10.723 -0.1529 -0.1868 -0.1482
 8294TIP3    H146297   3.952   2.420  10.639 -0.6420 -0.8164 -0.4026
 8294TIP3    H246298   4.039   2.423  10.763  1.1088 -0.9134 -1.5880
 8295TIP3   OH246299   0.051   5.808   4.753  0.0234 -0.1067  0.3904
 8295TIP3    H146300   0.052   5.764   4.668  1.4025 -0.5119  0.5939
 8295TIP3    H246301  -0.035   5.786   4.790 -1.2129  1.2815 -1.4739
 8296TIP3   OH246302   4.503   3.756  13.337  0.1753 -0.3348  0.1089
 8296TIP3    H146303   4.527   3.822  13.402 -1.0314 -0.4425  0.6852
 8296TIP3    H246304   4.414   3.781  13.309 -0.2381 -1.6226  0.2175
 8297TIP3   OH246305   6.375   0.317  14.754 -0.6735 -0.4304 -0.4709
 8297TIP3    H146306   6.303   0.331  14.816  0.6312 -1.2370  1.3255
 8297TIP3    H246307   6.351   0.237  14.707 -2.2056  0.7863 -1.8763
 8298TIP3   OH246308   1.760   2.749   4.707  0.0056  0.2318 -0.1889
 8298TIP3    H146309   1.835   2.721   4.760  2.6211  1.5455 -2.8705
 8298TIP3    H246310   1.731   2.669   4.663  0.5733 -0.0937  0.0120
 8299TIP3   OH246311   3.693   4.113  12.338  0.0210  0.5457  0.2921
 8299TIP3    H146312   3.763   4.075  12.286  0.6450 -0.7200  1.9681
 8299TIP3    H246313   3.703   4.208  12.325  2.9096  0.5134  1.4639
 8300TIP3   OH246314   1.266   0.266   5.825  0.6364  0.5830 -1.0196
 8300TIP3    H146315   1.352   0.308   5.821  1.2981 -0.4459  0.9939
 8300TIP3    H246316   1.243   0.268   5.918  0.2911 -2.5872 -0.9240
 8301TIP3   OH246317   5.789   5.427   5.480 -0.6312 -0.3515  0.4305
 8301TIP3    H146318   5.843   5.476   5.542 -1.5191 -0.0773  0.9971
 8301TIP3    H246319   5.796   5.476   5.398 -0.2844 -0.1463  0.5796
 8302TIP3   OH246320   5.898   4.982   0.569 -0.3064  0.0300 -0.7511
 8302TIP3    H146321   5.895   4.921   0.496 -0.4405  0.0203 -0.7383
 8302TIP3    H246322   5.836   4.946   0.633 -0.9557  0.5797 -1.0599
 8303TIP3   OH246323   6.441   6.786  13.916 -0.1580 -0.0976  0.5379
 8303TIP3    H146324   6.405   6.835  13.990  0.1830 -0.2724  0.8288
 8303TIP3    H246325   6.503   6.725  13.957  1.4408  1.0792 -0.0508
 8304TIP3   OH246326   0.936   2.303  13.639  0.2073  0.0713  0.0324
 8304TIP3    H146327   1.031   2.290  13.644  0.0294 -0.9494  1.2159
 8304TIP3    H246328   0.923   2.394  13.668  0.8152  0.2237 -0.1537
 8305TIP3   OH246329   5.081   0.865  14.588  0.2980 -0.3545  1.1775
 8305TIP3    H146330   5.094   0.840  14.496  3.4681 -2.0414  1.9265
 8305TIP3    H246331   5.021   0.799  14.623 -0.2282 -0.2225  0.5486
 8306TIP3   OH246332   5.686   0.742  16.873 -0.3524  0.2780 -0.3480
 8306TIP3    H146333   5.605   0.732  16.822  0.9350 -1.5090 -2.1613
 8306TIP3    H246334   5.752   0.768  16.809  1.2278 -1.5971  0.4312
 8307TIP3   OH246335   6.627   1.422   3.298  0.5435 -0.8566 -0.8913
 8307TIP3    H146336   6.589   1.394   3.381  0.8948  0.1241 -0.3848
 8307TIP3    H246337   6.557   1.468   3.253  1.4616  2.5143  0.7958
 8308TIP3   OH246338   4.372   4.906  15.336 -0.2469  0.1409 -0.1492
 8308TIP3    H146339   4.383   5.001  15.348 -1.1558  0.1113  1.2150
 8308TIP3    H246340   4.296   4.898  15.278  0.2102  0.2481 -0.7676
 8309TIP3   OH246341   3.012   5.334   4.741  0.4765  0.2402  0.3551
 8309TIP3    H146342   3.050   5.249   4.764  0.0811  0.0114  0.1819
 8309TIP3    H246343   3.010   5.334   4.645 -1.5139 -0.4836  0.3336
 8310TIP3   OH246344   6.508   2.789   5.226 -0.3415 -0.0117  0.1137
 8310TIP3    H146345   6.499   2.851   5.154  2.1065  0.9048  0.5206
 8310TIP3    H246346   6.527   2.706   5.183 -1.0891  0.0462 -0.3520
 8311TIP3   OH246347   2.102   4.110   0.332  0.1048 -0.0445  0.0248
 8311TIP3    H146348   2.195   4.092   0.345 -0.3849 -1.6774  1.7291
 8311TIP3    H246349   2.077   4.165   0.407 -0.7080 -1.4282  0.8303
 8312TIP3   OH246350   5.891   0.901   1.592 -0.0113 -0.2293  0.2760
 8312TIP3    H146351   5.926   0.851   1.518 -0.8968 -0.0017 -0.3066
 8312TIP3    H246352   5.954   0.971   1.605  1.1808 -1.3884  1.0150
 8313TIP3   OH246353   5.992   5.414  17.083 -0.1503 -0.0042  0.0141
 8313TIP3    H146354   5.919   5.439  17.026  1.1586  0.5567 -1.4742
 8313TIP3    H246355   6.070   5.430  17.031  1.0847 -0.1496  1.7302
 8314TIP3   OH246356   6.267   2.072  14.089  0.0045  0.3185  0.6398
 8314TIP3    H146357   6.340   2.069  14.151  0.0088 -1.2067  0.5974
 8314TIP3    H246358   6.230   2.160  14.100  1.0429  0.6675  1.5835
 8315TIP3   OH246359   0.412   0.929   3.812  0.4035 -0.1444 -0.5098
 8315TIP3    H146360   0.498   0.904   3.777  0.7033  0.8706 -0.5366
 8315TIP3    H246361   0.384   1.001   3.756  0.1934  0.4806  0.3782
 8316TIP3   OH246362   2.776   6.266  11.592  0.3151  0.2771  0.8983
 8316TIP3    H146363   2.852   6.301  11.547  0.5845 -1.0613  0.2499
 8316TIP3    H246364   2.811   6.223  11.670 -0.1987  3.0517  2.7926
 8317TIP3   OH246365   3.434   3.608   1.584 -0.3377  0.1688  0.1619
 8317TIP3    H146366   3.527   3.590   1.595 -0.3981 -1.7644 -1.7796
 8317TIP3    H246367   3.424   3.701   1.605  1.8574  0.2224  1.1964
 8318TIP3   OH246368   3.727   6.562  13.621 -0.0909 -0.0981 -0.7085
 8318TIP3    H146369   3.708   6.535  13.711 -0.8560  2.0177 -0.1697
 8318TIP3    H246370   3.818   6.537  13.607 -0.4653 -2.0641 -0.0205
 8319TIP3   OH246371   2.286   6.686   4.676  0.2224 -0.0775  0.5108
 8319TIP3    H146372   2.259   6.747   4.745 -0.3739  0.4299 -0.1544
 8319TIP3    H246373   2.298   6.603   4.722 -0.4958  0.1663  1.1739
 8320TIP3   OH246374   0.787   6.057  12.485  0.2766 -0.2781 -0.1346
 8320TIP3    H146375   0.871   6.011  12.480  1.5342  1.9436 -1.2414
 8320TIP3    H246376   0.806   6.137  12.534 -1.1131  0.4147 -0.6599
 8321TIP3   OH246377   6.676   6.642  11.413 -0.1241 -0.4748  0.0538
 8321TIP3    H146378   6.743   6.693  11.367 -0.5111 -1.3267 -1.5293
 8321TIP3    H246379   6.722   6.607  11.490 -0.1884  3.2035  1.9463
 8322TIP3   OH246380   4.987   6.573  14.996 -0.0283  0.2857 -0.1988
 8322TIP3    H146381   5.073   6.567  15.038 -0.6897 -1.7556  0.9891
 8322TIP3    H246382   4.980   6.664  14.970  0.6973  1.6094  3.6117
 8323TIP3   OH246383   4.596   0.749   1.751  0.3299  1.0029 -0.2505
 8323TIP3    H146384   4.567   0.729   1.840 -0.5459  0.2040 -0.6962
 8323TIP3    H246385   4.515   0.769   1.704  0.3701 -1.6992 -1.6482
 8324TIP3   OH246386   1.894   4.370   0.585  0.5863 -0.1680  0.3264
 8324TIP3    H146387   1.955   4.296   0.580  0.7104  0.0148 -1.6428
 8324TIP3    H246388   1.933   4.437   0.528  0.8283  1.7366  2.5654
 8325TIP3   OH246389   1.155   1.789  14.395  0.1275 -0.2722 -0.3452
 8325TIP3    H146390   1.111   1.785  14.310  0.2069 -1.0972 -0.3597
 8325TIP3    H246391   1.243   1.820  14.374 -0.1514  0.4601 -0.4385
 8326TIP3   OH246392   2.542   2.274  15.201 -0.0076 -0.0613  0.5398
 8326TIP3    H146393   2.450   2.251  15.212  0.9650 -3.3960  3.1767
 8326TIP3    H246394   2.568   2.312  15.284  1.2357  0.0148  0.1351
 8327TIP3   OH246395   5.070   5.206  13.542 -0.0266 -0.1443  0.3009
 8327TIP3    H146396   5.000   5.188  13.479  0.6139  0.8308 -0.7203
 8327TIP3    H246397   5.127   5.129  13.537  0.7996  0.5441 -1.4070
 8328TIP3   OH246398   1.173   1.555  15.621  0.3934  0.0690  0.6998
 8328TIP3    H146399   1.164   1.460  15.615 -0.8060  0.1968  0.2308
 8328TIP3    H246400   1.135   1.578  15.706 -2.5468  0.4380 -0.5940
 8329TIP3   OH246401   2.649   3.848   5.762 -0.0552 -0.0861  0.4287
 8329TIP3    H146402   2.697   3.907   5.704  1.9842 -0.1120  1.9762
 8329TIP3    H246403   2.557   3.865   5.742  0.3887  3.7741  0.9180
 8330TIP3   OH246404   0.040   0.357  16.786  0.0841  0.7036  0.0160
 8330TIP3    H146405   0.049   0.429  16.724  1.9116 -0.9645 -1.7777
 8330TIP3    H246406   0.126   0.317  16.790 -0.6254 -0.8231  1.7087
 8331TIP3   OH246407   0.865   4.367   1.387 -0.5831  0.2639  0.3008
 8331TIP3    H146408   0.940   4.425   1.402 -0.8813  1.3216 -1.9288
 8331TIP3    H246409   0.886   4.288   1.437  2.1194  0.4625 -0.3296
 8332TIP3   OH246410   0.224   5.650  17.095 -0.4348 -0.2488  0.1163
 8332TIP3    H146411   0.185   5.696  17.020  0.9183 -0.7030 -0.8951
 8332TIP3    H246412   0.245   5.719  17.157 -0.5396  0.2547 -0.3988
 8333TIP3   OH246413   5.880   6.165   4.472 -0.0170 -0.0069  0.5212
 8333TIP3    H146414   5.855   6.123   4.390 -0.5366  1.6023 -0.1953
 8333TIP3    H246415   5.963   6.124   4.496  1.3046  0.9723 -2.0150
 8334TIP3   OH246416   0.861   1.548   4.800  0.2346  0.0719 -0.4804
 8334TIP3    H146417   0.811   1.629   4.796 -0.1246  0.0066  1.5801
 8334TIP3    H246418   0.807   1.490   4.854  1.9338 -0.4236  0.7453
 8335TIP3   OH246419   5.531   5.710   1.827  0.7733 -0.1931 -0.4373
 8335TIP3    H146420   5.547   5.621   1.795  0.9459 -0.6122  0.7801
 8335TIP3    H246421   5.590   5.765   1.774  1.2557 -0.8968 -0.6483
 8336TIP3   OH246422   5.565   3.870   1.132 -0.1325  0.1266  0.3362
 8336TIP3    H146423   5.540   3.777   1.138  1.9967 -0.6998 -1.7045
 8336TIP3    H246424   5.531   3.898   1.047  0.6295  0.6985  0.2112
 8337TIP3   OH246425   5.482   6.453  10.661 -0.4573  0.2905 -0.4878
 8337TIP3    H146426   5.521   6.509  10.729 -0.6370  0.9185 -0.8972
 8337TIP3    H246427   5.521   6.367  10.676  1.1633  0.9165 -0.9435
 8338TIP3   OH246428   6.770   4.713   6.296 -0.0533  0.0018 -0.5913
 8338TIP3    H146429   6.765   4.618   6.300 -1.9462  0.1003  0.0758
 8338TIP3    H246430   6.864   4.732   6.291  0.4381 -1.8349  0.8275
 8339TIP3   OH246431   3.995   1.165   1.067 -0.5442  0.4073 -0.0326
 8339TIP3    H146432   3.983   1.201   1.156 -1.6131  0.8295 -0.3301
 8339TIP3    H246433   3.917   1.194   1.019 -0.7817 -1.1990 -0.6648
 8340TIP3   OH246434   1.894   3.732  13.091  0.2289 -0.5975  0.0669
 8340TIP3    H146435   1.966   3.764  13.036 -1.2170 -0.1802 -1.6941
 8340TIP3    H246436   1.834   3.806  13.099 -0.0481 -0.9379  1.4682
 8341TIP3   OH246437   4.462   0.017   0.201  0.5329 -0.0495  0.0683
 8341TIP3    H146438   4.456  -0.074   0.229  0.4422 -0.1827 -0.3832
 8341TIP3    H246439   4.438   0.068   0.279  1.0504 -0.3963  0.4601
 8342TIP3   OH246440   0.617   1.530  16.130  0.1674 -0.1808  0.3228
 8342TIP3    H146441   0.685   1.593  16.107 -0.8180  0.5930 -0.5351
 8342TIP3    H246442   0.571   1.570  16.203 -0.3824  0.0522 -0.1465
 8343TIP3   OH246443   2.144   5.570   5.939 -0.4750  0.2263 -0.0575
 8343TIP3    H146444   2.108   5.497   5.889 -0.4555  0.6585 -0.7114
 8343TIP3    H246445   2.239   5.558   5.935 -0.4708  0.3062 -0.1889
 8344TIP3   OH246446   2.102   5.666   1.637 -0.3234 -0.2676  0.8141
 8344TIP3    H146447   2.142   5.713   1.710  1.4454 -1.5732  0.7519
 8344TIP3    H246448   2.060   5.589   1.676  0.3324 -0.7898  0.5077
 8345TIP3   OH246449   0.617   1.448   1.592  0.1043  0.5730  0.5101
 8345TIP3    H146450   0.577   1.526   1.553 -0.5259 -0.4737 -1.0328
 8345TIP3    H246451   0.548   1.410   1.646 -0.5868 -0.4562 -1.0300
 8346TIP3   OH246452   5.936   6.378   5.528 -0.2340  0.1440 -0.0614
 8346TIP3    H146453   5.886   6.458   5.544 -0.7523 -0.0782 -0.5116
 8346TIP3    H246454   5.942   6.335   5.614 -1.4081 -0.1546 -0.1139
 8347TIP3   OH246455   5.416   4.667   5.794 -0.0563  0.4483 -0.2303
 8347TIP3    H146456   5.508   4.643   5.804  0.1152  0.1977 -2.0580
 8347TIP3    H246457   5.418   4.758   5.766 -0.4952  1.1302  1.8115
 8348TIP3   OH246458   4.606   2.850   0.326  0.0941 -0.0274 -0.5980
 8348TIP3    H146459   4.643   2.901   0.399 -1.6177  1.1457 -0.5029
 8348TIP3    H246460   4.531   2.805   0.364  0.3482 -0.9697 -1.1914
 8349TIP3   OH246461   1.903   6.455   2.594 -0.2484 -0.1175  0.2873
 8349TIP3    H146462   1.948   6.416   2.519  1.2835  2.1507 -0.0436
 8349TIP3    H246463   1.973   6.475   2.656 -0.9131  2.0910  0.4086
 8350TIP3   OH246464   1.403   2.852  12.343  0.1563  0.6289  0.2835
 8350TIP3    H146465   1.348   2.927  12.319 -2.1639 -0.7491  0.9152
 8350TIP3    H246466   1.430   2.869  12.433 -1.3617  0.2351  0.8533
 8351TIP3   OH246467   1.549   3.552   1.650  0.5326  0.2470  0.4137
 8351TIP3    H146468   1.637   3.555   1.612 -0.6378  0.4999 -2.5980
 8351TIP3    H246469   1.558   3.596   1.735  3.7070 -1.7614  1.2991
 8352TIP3   OH246470   3.016   5.209   1.032  0.0581  0.2851  0.1164
 8352TIP3    H146471   2.968   5.277   1.079  0.0855  1.3534 -1.3259
 8352TIP3    H246472   3.050   5.253   0.954 -0.3780 -1.5164 -1.1571
 8353TIP3   OH246473   5.871   3.309  12.175 -0.2533 -0.6957  0.3988
 8353TIP3    H146474   5.833   3.379  12.227 -0.8909 -0.3762 -0.4726
 8353TIP3    H246475   5.944   3.276  12.228 -1.1444 -0.6773  1.6698
 8354TIP3   OH246476   6.260   3.030  14.506 -0.0325  0.1912  0.6441
 8354TIP3    H146477   6.275   2.936  14.505 -0.5105  0.0876  1.5155
 8354TIP3    H246478   6.208   3.045  14.585  0.2720  1.2193  0.6747
 8355TIP3   OH246479   5.747   1.138  12.980  0.2357  0.4771  0.1625
 8355TIP3    H146480   5.784   1.078  12.916  0.4621  1.3282 -0.5314
 8355TIP3    H246481   5.802   1.128  13.057  0.4702  0.0370 -0.0572
 8356TIP3   OH246482   5.730   2.123  17.195  0.3950  0.6975 -0.7595
 8356TIP3    H146483   5.753   2.121  17.102  2.4285  0.3037 -0.3043
 8356TIP3    H246484   5.725   2.031  17.220 -0.4303  0.7988 -0.5282
 8357TIP3   OH246485   3.471   1.321  13.775 -0.1198  0.4579  0.1826
 8357TIP3    H146486   3.565   1.338  13.768 -0.1816  2.5490  2.8565
 8357TIP3    H246487   3.430   1.387  13.719 -0.0567 -0.4769 -1.0126
 8358TIP3   OH246488   0.686   4.759  14.273 -0.2384 -0.2179 -0.0377
 8358TIP3    H146489   0.733   4.839  14.298  1.8398 -0.1646 -3.4130
 8358TIP3    H246490   0.681   4.708  14.353  3.0376  1.1285  1.2142
 8359TIP3   OH246491   3.630   0.752   1.750 -0.0636 -0.5042  0.7099
 8359TIP3    H146492   3.603   0.661   1.737  1.8035 -0.9223 -0.6575
 8359TIP3    H246493   3.690   0.750   1.824  1.1926 -0.7033 -0.2681
 8360TIP3   OH246494   6.088   4.324   1.057 -0.3396  0.2525 -0.2580
 8360TIP3    H146495   6.070   4.333   0.963 -1.0573  0.4595 -0.1062
 8360TIP3    H246496   6.003   4.333   1.099 -0.1630 -0.8186  0.3586
 8361TIP3   OH246497   0.813   4.410  13.348  0.1713  0.5602  0.4746
 8361TIP3    H146498   0.802   4.389  13.441 -2.1555 -0.1983  0.0800
 8361TIP3    H246499   0.861   4.493  13.348  0.0802  0.6510  2.3481
 8362TIP3   OH246500   3.266   2.265  16.890  0.2442  0.7668  0.0910
 8362TIP3    H146501   3.269   2.169  16.897 -0.5976  0.6979 -0.4345
 8362TIP3    H246502   3.175   2.288  16.907 -0.0706  1.2751 -2.0387
 8363TIP3   OH246503   4.845   2.806   2.435  0.3377  0.1044 -0.0891
 8363TIP3    H146504   4.750   2.807   2.448  0.3245  1.1253 -0.2149
 8363TIP3    H246505   4.859   2.853   2.353  0.9965  0.4894  0.2378
 8364TIP3   OH246506   1.208   4.143   5.583 -0.1028 -0.3891  0.1835
 8364TIP3    H146507   1.264   4.070   5.611  0.4824 -0.0341 -0.0258
 8364TIP3    H246508   1.143   4.152   5.652 -0.4400 -1.3706  0.0200
 8365TIP3   OH246509   0.669   4.204   2.772  0.0480 -0.3869  0.8446
 8365TIP3    H146510   0.677   4.256   2.852 -1.1211  1.4145 -0.1468
 8365TIP3    H246511   0.759   4.179   2.751  0.4365 -0.3385  2.3575
 8366TIP3   OH246512   2.695   3.754   5.401 -0.5015  0.5562  0.1215
 8366TIP3    H146513   2.779   3.771   5.358 -0.6661  0.6107 -0.1812
 8366TIP3    H246514   2.646   3.836   5.391 -1.2465 -0.0124 -1.2146
 8367TIP3   OH246515   3.526   4.051  17.121 -0.1300  0.3010 -0.3698
 8367TIP3    H146516   3.620   4.063  17.130 -0.0571  0.6042 -1.4250
 8367TIP3    H246517   3.488   4.138  17.132 -0.4250 -0.0229  1.4316
 8368TIP3   OH246518   2.233   5.579   0.345 -0.1641 -0.1237  0.1509
 8368TIP3    H146519   2.260   5.623   0.426 -0.9021  0.2734  0.1842
 8368TIP3    H246520   2.309   5.587   0.287 -0.5034  1.7831 -0.0896
 8369TIP3   OH246521   4.620   3.907   5.401 -0.4628 -0.0902  0.0964
 8369TIP3    H146522   4.710   3.877   5.384  0.2699  2.2792 -0.6351
 8369TIP3    H246523   4.620   3.930   5.494 -0.4473 -0.4114  0.1807
 8370TIP3   OH246524   4.404   1.941   5.131  1.0979  0.2309  0.1456
 8370TIP3    H146525   4.349   2.009   5.170  0.2948  0.6327 -1.6215
 8370TIP3    H246526   4.373   1.860   5.170  0.4896  0.6379  0.5314
 8371TIP3   OH246527   0.179   4.333  14.319  0.5581  0.1162  0.2765
 8371TIP3    H146528   0.173   4.252  14.370 -1.2384 -0.6937 -1.1091
 8371TIP3    H246529   0.134   4.399  14.373  0.0096 -0.3751  0.4365
 8372TIP3   OH246530   6.774   4.067  13.538 -0.0610  0.1285 -0.1423
 8372TIP3    H146531   6.686   4.094  13.510 -0.0862 -0.7636 -0.9688
 8372TIP3    H246532   6.760   3.988  13.589  0.1091  1.0360  1.3744
 8373TIP3   OH246533   2.130   1.899   3.613  0.2379  0.3498 -0.1903
 8373TIP3    H146534   2.176   1.971   3.569  1.1794  0.1635  0.4637
 8373TIP3    H246535   2.200   1.841   3.644 -0.5025 -0.7360 -0.4979
 8374TIP3   OH246536   3.606   3.450  14.434 -0.1091 -0.2126 -0.2534
 8374TIP3    H146537   3.511   3.458  14.431  0.0012  1.0864 -1.0275
 8374TIP3    H246538   3.638   3.511  14.367  1.2616 -0.7636 -0.1393
 8375TIP3   OH246539   5.278   4.361  13.532 -0.1297  0.1605  0.2411
 8375TIP3    H146540   5.311   4.381  13.620 -0.5699  2.0673  0.0110
 8375TIP3    H246541   5.189   4.329  13.546  0.9466 -2.9665  0.7001
 8376TIP3   OH246542   1.066   6.233  11.330 -0.9684  0.1038 -0.1137
 8376TIP3    H146543   1.077   6.290  11.253 -0.8262  0.3198  0.0661
 8376TIP3    H246544   1.111   6.279  11.400 -0.7436 -0.2917  0.0036
 8377TIP3   OH246545   2.882   0.799  14.521  0.0931 -0.9218  0.0225
 8377TIP3    H146546   2.882   0.842  14.606  0.3448  0.9893 -0.8902
 8377TIP3    H246547   2.794   0.812  14.486  0.5751  0.1622 -0.8571
 8378TIP3   OH246548   0.924   5.152   1.949 -0.6452  0.1803  0.4143
 8378TIP3    H146549   0.963   5.231   1.986 -1.4688  1.9253 -2.1710
 8378TIP3    H246550   0.921   5.169   1.854 -3.0266 -1.9468  0.0025
 8379TIP3   OH246551   2.230   1.645   0.788 -0.1235  0.1376 -0.0428
 8379TIP3    H146552   2.301   1.609   0.736 -0.6021 -1.3823  0.3073
 8379TIP3    H246553   2.155   1.647   0.728  0.0410  1.1711 -0.2365
 8380TIP3   OH246554   1.156   4.001   2.700 -0.1405 -0.2682  0.2968
 8380TIP3    H146555   1.243   3.965   2.716  0.3409 -0.5196 -2.4195
 8380TIP3    H246556   1.172   4.092   2.675 -0.3713 -0.8432 -2.2052
 8381TIP3   OH246557   0.190   4.826  13.383 -0.4410 -0.1717  0.1535
 8381TIP3    H146558   0.273   4.780  13.371  0.3630  1.1826  0.3575
 8381TIP3    H246559   0.176   4.827  13.477  1.1356  2.6175  0.4484
 8382TIP3   OH246560   5.576   6.084   3.699  0.0779 -0.1458 -0.3523
 8382TIP3    H146561   5.630   6.091   3.620  1.0239 -1.2318  0.1725
 8382TIP3    H246562   5.508   6.021   3.676  0.1277 -0.1777 -0.4105
 8383TIP3   OH246563   0.271   4.116  11.508 -0.6597 -0.2919 -0.5376
 8383TIP3    H146564   0.278   4.168  11.428  0.6643 -1.4146 -1.1909
 8383TIP3    H246565   0.360   4.082  11.523 -0.2199  1.8328  2.7821
 8384TIP3   OH246566   5.511   3.767   4.093  0.3312  1.0044 -0.1345
 8384TIP3    H146567   5.459   3.709   4.148  1.1409  1.4465  1.1331
 8384TIP3    H246568   5.597   3.768   4.134  0.6529  2.1892 -0.8074
 8385TIP3   OH246569   5.774   1.057   2.403 -0.2959 -0.2760  0.0259
 8385TIP3    H146570   5.714   0.991   2.368 -0.2631  0.0383 -0.6419
 8385TIP3    H246571   5.757   1.135   2.350 -0.3079  0.2445  0.7788
 8386TIP3   OH246572   1.925   2.617   4.168 -0.3234  0.1529 -0.2175
 8386TIP3    H146573   1.980   2.568   4.229  0.2011 -0.3571 -1.0736
 8386TIP3    H246574   1.839   2.621   4.209 -0.1808 -0.8608  0.1929
 8387TIP3   OH246575   4.904   6.360  14.841  0.3388  0.5656  0.5331
 8387TIP3    H146576   4.918   6.416  14.918  0.2646  1.5822 -0.1762
 8387TIP3    H246577   4.872   6.419  14.773  0.1586 -0.3616 -0.2159
 8388TIP3   OH246578   4.284   3.228   0.849 -0.6787 -0.6598  0.4966
 8388TIP3    H146579   4.330   3.291   0.795 -0.1994 -0.9605  0.5497
 8388TIP3    H246580   4.205   3.206   0.799 -0.3671 -0.7468  0.0397
 8389TIP3   OH246581   2.059   2.877  16.816 -0.1598 -0.1123 -0.3390
 8389TIP3    H146582   2.088   2.918  16.898 -2.1195  2.0554 -0.6424
 8389TIP3    H246583   1.972   2.843  16.835 -0.7736  0.6954 -1.5509
 8390TIP3   OH246584   4.373   4.898  17.214 -0.3999  0.6578  0.3430
 8390TIP3    H146585   4.428   4.932  17.143  2.1667  0.2023  2.0059
 8390TIP3    H246586   4.324   4.974  17.245 -0.0395  1.2863 -0.5735
 8391TIP3   OH246587   5.969   0.307   0.899 -0.1069  0.0823  0.1603
 8391TIP3    H146588   6.063   0.307   0.882 -0.0748  0.7541  0.3318
 8391TIP3    H246589   5.960   0.265   0.984 -0.1240 -1.6416 -0.6389
 8392TIP3   OH246590   3.689   5.387  12.919 -0.0833  0.4513 -0.1729
 8392TIP3    H146591   3.721   5.434  12.996 -0.3607  1.0670 -0.4274
 8392TIP3    H246592   3.765   5.383  12.861  0.2504 -0.4063  0.3110
 8393TIP3   OH246593   5.011   5.405   2.002 -0.4840  0.4383 -0.3002
 8393TIP3    H146594   4.995   5.391   1.909  0.0004  1.6787 -0.5808
 8393TIP3    H246595   4.929   5.441   2.036 -0.0286  1.8601 -0.6670
 8394TIP3   OH246596   3.756   1.221  14.853 -0.8324 -0.0565  0.5923
 8394TIP3    H146597   3.765   1.170  14.934  0.6350 -0.5654  0.1484
 8394TIP3    H246598   3.707   1.165  14.794  0.9481 -1.0971  0.0392
 8395TIP3   OH246599   1.901   5.486  14.931  0.2367 -0.3811  0.9097
 8395TIP3    H146600   1.829   5.506  14.872  1.0894 -1.9191 -0.7427
 8395TIP3    H246601   1.859   5.469  15.016 -1.1371  0.5770  0.4556
 8396TIP3   OH246602   1.449   2.822   3.960  0.0384  0.4959  0.3068
 8396TIP3    H146603   1.512   2.894   3.957  2.6182 -1.6163 -2.2666
 8396TIP3    H246604   1.399   2.830   3.879  0.1324 -0.3992  0.1511
 8397TIP3   OH246605   2.512   3.211   3.587 -0.2062  0.2490 -0.1201
 8397TIP3    H146606   2.496   3.143   3.521 -1.5945 -0.5471  0.9687
 8397TIP3    H246607   2.490   3.293   3.543  0.2974 -0.1150 -1.0791
 8398TIP3   OH246608   6.061   2.721  14.579 -0.2601  0.2772  0.2704
 8398TIP3    H146609   6.027   2.778  14.510 -4.2209 -1.8008  0.2318
 8398TIP3    H246610   6.070   2.778  14.655 -2.0080  1.4020 -0.3225
 8399TIP3   OH246611   1.724   5.636  12.272 -0.1365  0.0567 -0.2856
 8399TIP3    H146612   1.713   5.730  12.282  1.3051  0.7415 -3.5767
 8399TIP3    H246613   1.767   5.608  12.352  0.3919  2.4279  0.3358
 8400TIP3   OH246614   2.209   1.848   1.685  0.0216 -0.0334 -0.6983
 8400TIP3    H146615   2.304   1.859   1.689  0.2003 -1.4703 -0.5180
 8400TIP3    H246616   2.195   1.797   1.605 -0.7384  1.3947 -1.4980
 8401TIP3   OH246617   2.847   4.513   4.801  0.5334  0.3003 -0.4018
 8401TIP3    H146618   2.806   4.573   4.739 -0.4854  0.3071  0.2574
 8401TIP3    H246619   2.779   4.494   4.865  2.0891  1.7725  1.8052
 8402TIP3   OH246620   3.572   4.600  14.726 -0.1019 -0.5931  0.1254
 8402TIP3    H146621   3.520   4.662  14.777 -1.0815 -1.2956  0.0009
 8402TIP3    H246622   3.526   4.517  14.735 -0.0099 -0.8515 -1.4448
 8403TIP3   OH246623   0.290   3.367  13.180 -0.2245  0.3368  0.0675
 8403TIP3    H146624   0.214   3.317  13.150  0.1138  1.0796 -2.2113
 8403TIP3    H246625   0.364   3.306  13.172 -0.1992  0.3995 -0.1672
 8404TIP3   OH246626   0.250   3.118  10.853 -0.5206 -0.0826  0.1682
 8404TIP3    H146627   0.299   3.200  10.855 -1.0816  0.2595  0.3454
 8404TIP3    H246628   0.314   3.051  10.831 -0.4563  0.6979 -2.2770
 8405TIP3   OH246629   1.228   4.686   3.256  0.0971  0.3121  0.1681
 8405TIP3    H146630   1.199   4.674   3.165 -0.0734 -0.0505  0.2677
 8405TIP3    H246631   1.259   4.599   3.282  2.0705  0.8462 -0.2026
 8406TIP3   OH246632   0.684   5.045   5.109  0.5443  0.6292 -0.1248
 8406TIP3    H146633   0.651   4.964   5.070 -1.1152  2.5208 -3.0108
 8406TIP3    H246634   0.630   5.058   5.186 -0.8159  0.1467 -0.9622
 8407TIP3   OH246635   4.338   3.775   4.852 -0.5422 -0.1819  0.2566
 8407TIP3    H146636   4.310   3.706   4.913 -0.8390  1.8303  2.5501
 8407TIP3    H246637   4.428   3.751   4.830 -0.5873 -1.2466  1.1182
 8408TIP3   OH246638   1.431   3.006   4.446 -0.2910  0.1231  0.0443
 8408TIP3    H146639   1.427   3.090   4.399 -1.1668 -0.4637 -0.9609
 8408TIP3    H246640   1.376   2.947   4.395 -0.3384 -0.8607  1.1861
 8409TIP3   OH246641   2.325   0.922   0.332  0.3780 -0.1573  0.0674
 8409TIP3    H146642   2.333   1.013   0.361  0.1377 -0.0484 -0.2070
 8409TIP3    H246643   2.317   0.872   0.414  3.5687 -0.2915  0.4117
 8410TIP3   OH246644   0.822   2.095  16.651 -0.0475 -0.3908  0.0537
 8410TIP3    H146645   0.776   2.076  16.569 -0.8218  2.6004 -0.3317
 8410TIP3    H246646   0.914   2.099  16.627 -0.1039 -1.0687 -0.3105
 8411TIP3   OH246647   1.510   4.154  14.257 -0.5664 -0.8035 -0.4130
 8411TIP3    H146648   1.529   4.088  14.324  0.9079  0.9581  0.9867
 8411TIP3    H246649   1.594   4.172  14.215 -0.4508  1.6839  0.7102
 8412TIP3   OH246650   5.770   3.510  12.316  0.6608  0.6097 -0.5179
 8412TIP3    H146651   5.678   3.533  12.330  0.2693  0.1143 -2.0816
 8412TIP3    H246652   5.801   3.482  12.402 -0.4450  1.4435  0.1784
 8413TIP3   OH246653   5.904   1.469   5.787 -0.0430 -0.5083 -0.1352
 8413TIP3    H146654   5.932   1.495   5.700 -0.7758 -1.0375 -0.5384
 8413TIP3    H246655   5.849   1.541   5.817 -0.1517 -0.5263 -0.2905
 8414TIP3   OH246656   1.013   1.539   4.559  0.0126  0.4729  0.1777
 8414TIP3    H146657   0.949   1.542   4.630  2.5272  0.1661  2.6314
 8414TIP3    H246658   1.053   1.453   4.567  0.4061  0.4537 -1.6420
 8415TIP3   OH246659   4.937   1.891   4.274 -0.7067  0.3934  0.0093
 8415TIP3    H146660   4.849   1.922   4.252 -0.0070  0.8508 -2.4044
 8415TIP3    H246661   4.940   1.895   4.370 -3.0266  1.1094  0.1162
 8416TIP3   OH246662   4.318   6.653   0.553  0.0790  0.6329 -0.1145
 8416TIP3    H146663   4.334   6.720   0.487 -0.1897  0.7706 -0.0420
 8416TIP3    H246664   4.226   6.666   0.578  0.2131  0.6565  0.3713
 8417TIP3   OH246665   2.264   3.494   1.439  0.2459  0.3581 -0.0059
 8417TIP3    H146666   2.208   3.500   1.517 -1.3328  1.6706 -1.1608
 8417TIP3    H246667   2.277   3.400   1.426 -0.3546  0.0800  1.2255
 8418TIP3   OH246668   6.423   3.037   1.669 -0.2219  0.2929  0.3415
 8418TIP3    H146669   6.442   2.944   1.683  1.3181  0.6399  0.7360
 8418TIP3    H246670   6.336   3.038   1.631 -0.9250 -1.2325  1.7639
 8419TIP3   OH246671   4.752   4.316  11.421  0.0758  0.1042  0.3530
 8419TIP3    H146672   4.751   4.405  11.385  3.6009  0.1362 -0.0096
 8419TIP3    H246673   4.824   4.273  11.375 -2.3034 -3.4311 -0.4376
 8420TIP3   OH246674   4.100   6.232  12.060  0.3808  0.3885 -0.0516
 8420TIP3    H146675   4.122   6.189  11.978  0.9176  0.2569  0.1547
 8420TIP3    H246676   4.184   6.242  12.105 -0.0142 -0.4577  0.9258
 8421TIP3   OH246677   4.524   1.507   1.380 -0.1612 -0.6150 -0.3311
 8421TIP3    H146678   4.534   1.412   1.385  1.5166 -0.5399 -1.2014
 8421TIP3    H246679   4.581   1.541   1.449  1.1447 -0.2374 -1.5282
 8422TIP3   OH246680   0.468   5.682  17.255 -0.1893  0.4432 -0.3515
 8422TIP3    H146681   0.376   5.676  17.281  0.2144 -0.5893  0.9774
 8422TIP3    H246682   0.477   5.770  17.218 -1.0273  1.7807  2.3412
 8423TIP3   OH246683   1.829   0.108   5.629 -0.0670  0.6876  0.3778
 8423TIP3    H146684   1.867   0.025   5.601 -0.9747 -0.1739  1.5857
 8423TIP3    H246685   1.745   0.084   5.668 -0.0210  2.0891  1.4282
 8424TIP3   OH246686   1.358   0.598   0.315  0.0029 -0.0662  0.2271
 8424TIP3    H146687   1.324   0.577   0.402 -1.4007  0.3015 -0.2163
 8424TIP3    H246688   1.304   0.671   0.284 -1.3784 -1.9138 -2.0594
 8425TIP3   OH246689   0.621   6.125  16.606  0.2682 -0.3470  0.0467
 8425TIP3    H146690   0.642   6.062  16.676  0.6208 -0.6196 -0.3020
 8425TIP3    H246691   0.527   6.111  16.590  0.0491  0.1211  0.8596
 8426TIP3   OH246692   1.519   5.650   1.265  0.0867 -0.2428  0.7267
 8426TIP3    H146693   1.427   5.668   1.249  0.6515  1.1333 -1.2998
 8426TIP3    H246694   1.535   5.566   1.223 -0.6677 -1.6054  2.9847
 8427TIP3   OH246695   6.052   4.397  14.426 -0.1789 -0.1893  0.3060
 8427TIP3    H146696   6.110   4.352  14.365  0.0294  0.4180  0.0511
 8427TIP3    H246697   6.097   4.390  14.511 -1.2840 -2.5249  0.7532
 8428TIP3   OH246698   3.828   6.025   4.067 -0.2852  0.1325  0.4005
 8428TIP3    H146699   3.745   5.978   4.061  0.5353 -1.2674 -0.5791
 8428TIP3    H246700   3.894   5.962   4.039  0.9535  1.7110 -0.4453
 8429TIP3   OH246701   1.974   2.094   3.431 -0.1297  0.0968 -0.2893
 8429TIP3    H146702   1.920   2.020   3.459  2.4486 -2.3904 -1.3964
 8429TIP3    H246703   1.932   2.126   3.351 -1.4783  0.0907  0.3988
 8430TIP3   OH246704   5.412   5.965  16.489  0.0783  0.6763  0.0133
 8430TIP3    H146705   5.407   6.046  16.540  2.6345  1.9002 -1.4905
 8430TIP3    H246706   5.412   5.994  16.398  3.7408 -0.6704 -0.5613
 8431TIP3   OH246707   6.399   6.068   2.677  0.1208  0.0998 -0.0184
 8431TIP3    H146708   6.328   6.076   2.614  0.2266  1.1485 -0.0361
 8431TIP3    H246709   6.475   6.107   2.633  0.3647  0.2103  0.4848
 8432TIP3   OH246710   6.139   5.163   4.070  0.2820 -0.5278  0.2543
 8432TIP3    H146711   6.081   5.220   4.019 -0.1408 -1.1778 -0.0078
 8432TIP3    H246712   6.083   5.128   4.138  0.4267 -0.9766  0.1440
 8433TIP3   OH246713   6.309   1.893   5.208 -0.3786  0.2125 -0.2831
 8433TIP3    H146714   6.304   1.918   5.116 -1.5668 -0.5643 -0.4484
 8433TIP3    H246715   6.218   1.885   5.236 -0.0329  0.0418  0.8487
 8434TIP3   OH246716   3.205   3.483   0.207  0.3000  0.0469  1.0535
 8434TIP3    H146717   3.125   3.517   0.248  0.7414  0.5941  1.4813
 8434TIP3    H246718   3.209   3.391   0.236 -0.3837 -0.0996  0.6947
 8435TIP3   OH246719   1.603   5.268  15.348  0.3925  0.2806 -0.3017
 8435TIP3    H146720   1.566   5.343  15.396  1.6046  0.8976 -0.2800
 8435TIP3    H246721   1.528   5.212  15.329 -0.3042  0.6055  1.2755
 8436TIP3   OH246722   4.533   4.150   2.295 -0.7761  0.5503 -0.1291
 8436TIP3    H146723   4.583   4.225   2.262  0.8304 -0.8004 -0.8850
 8436TIP3    H246724   4.504   4.104   2.217 -2.2363  0.6601  0.3282
 8437TIP3   OH246725   2.556   0.668   6.372 -0.2156 -0.2212 -0.3095
 8437TIP3    H146726   2.554   0.589   6.319 -0.4038 -1.0936  0.9649
 8437TIP3    H246727   2.473   0.668   6.420  0.3336  0.0424  0.6757
 8438TIP3   OH246728   5.931   0.991   6.306  0.0140 -0.5030  0.5186
 8438TIP3    H146729   5.882   0.933   6.364 -1.0136  0.1476  0.3217
 8438TIP3    H246730   5.871   1.008   6.233  1.3781 -1.5698 -0.9270
 8439TIP3   OH246731   5.831   4.013  11.837 -0.3865  0.2253  0.5885
 8439TIP3    H146732   5.780   4.013  11.756 -0.5471 -1.2013  0.6638
 8439TIP3    H246733   5.917   4.046  11.810 -0.8900  1.2171  0.1557
 8440TIP3   OH246734   5.445   3.326   5.789  0.3546  0.0643  0.3950
 8440TIP3    H146735   5.519   3.322   5.848  0.1323  1.5263  0.8161
 8440TIP3    H246736   5.388   3.254   5.816  0.9255 -0.1576  1.0199
 8441TIP3   OH246737   4.069   4.003   5.176  0.0213 -0.1333  0.7007
 8441TIP3    H146738   4.041   3.917   5.208 -1.6717 -0.3614 -1.1877
 8441TIP3    H246739   4.003   4.064   5.210  0.0482  0.0908  0.3612
 8442TIP3   OH246740   2.075   3.073  16.261  0.0645  0.1731  0.1153
 8442TIP3    H146741   2.055   3.107  16.348 -1.1536  1.4258 -0.6258
 8442TIP3    H246742   2.106   2.983  16.277 -1.9806 -0.3233  1.6966
 8443TIP3   OH246743   0.589   4.169  14.323 -0.1297 -0.0108 -0.2544
 8443TIP3    H146744   0.557   4.100  14.380  0.2335  0.8389  1.0168
 8443TIP3    H246745   0.528   4.242  14.336 -0.8929 -0.2679 -2.0675
 8444TIP3   OH246746   5.341   0.588   6.659  0.0059 -0.4091 -0.1267
 8444TIP3    H146747   5.420   0.592   6.605 -1.2054  0.6378 -1.9412
 8444TIP3    H246748   5.273   0.555   6.600 -1.5210  1.3607  0.5263
 8445TIP3   OH246749   6.233   0.103  16.345 -0.4356  0.3260 -0.1614
 8445TIP3    H146750   6.166   0.162  16.382 -1.2368 -0.6692  0.0213
 8445TIP3    H246751   6.183   0.029  16.311  0.6056 -0.6655  0.3978
 8446TIP3   OH246752   6.442   0.582   1.218  0.6873  0.1826  0.2719
 8446TIP3    H146753   6.497   0.571   1.140 -1.4257 -1.0935 -1.1402
 8446TIP3    H246754   6.423   0.492   1.246 -0.4392  0.6010  0.8879
 8447TIP3   OH246755   4.161   3.617  11.338 -0.3192 -0.5950 -0.0132
 8447TIP3    H146756   4.077   3.579  11.314 -0.5744 -0.6313  0.9187
 8447TIP3    H246757   4.188   3.667  11.261 -0.5599 -1.6622 -0.8095
 8448TIP3   OH246758   3.938   2.281  10.396  0.2626  0.8653  0.0967
 8448TIP3    H146759   3.992   2.246  10.467 -0.9881  1.9127  1.6342
 8448TIP3    H246760   3.864   2.221  10.391  0.3786  0.7586 -0.3933
 8449TIP3   OH246761   2.365   5.713   0.142  0.0701  0.8870 -0.0548
 8449TIP3    H146762   2.280   5.670   0.133  1.1553 -1.7803  1.1638
 8449TIP3    H246763   2.353   5.800   0.105 -3.3666  0.8695  0.7299
 8450TIP3   OH246764   3.780   0.402   5.557  0.3063 -0.0930 -0.5559
 8450TIP3    H146765   3.721   0.477   5.549 -1.0150 -0.9010  0.9767
 8450TIP3    H246766   3.722   0.327   5.568  1.6156 -1.0962 -0.2532
 8451TIP3   OH246767   2.801   6.758   0.101 -0.0591 -0.0304 -0.2360
 8451TIP3    H146768   2.786   6.684   0.042  1.0211 -1.1823  0.8733
 8451TIP3    H246769   2.713   6.780   0.133 -0.2981 -1.8263  0.5235
 8452TIP3   OH246770   4.582   1.777   2.275  0.1399 -1.1860  0.3747
 8452TIP3    H146771   4.665   1.824   2.271 -0.3684 -0.3393 -1.1637
 8452TIP3    H246772   4.570   1.741   2.186 -0.9279 -1.6600  0.6894
 8453TIP3   OH246773   2.137   4.338   2.007  0.0342 -0.0313  0.3898
 8453TIP3    H146774   2.041   4.337   2.003 -0.1060  0.3591  2.3250
 8453TIP3    H246775   2.162   4.422   1.971 -0.3142 -0.3179 -0.5351
 8454TIP3   OH246776   5.191   0.489   3.651  0.1187 -0.2456  0.5131
 8454TIP3    H146777   5.205   0.520   3.562 -2.0509  2.8627  1.0405
 8454TIP3    H246778   5.277   0.493   3.693  0.8510 -0.0734 -0.9643
 8455TIP3   OH246779   6.476   4.077  11.879 -0.4937 -0.1625 -0.1020
 8455TIP3    H146780   6.399   4.124  11.912 -1.7576 -0.9029 -1.8264
 8455TIP3    H246781   6.457   3.985  11.896  0.6242 -0.2725  0.6161
 8456TIP3   OH246782   4.550   6.377   4.733  0.5344  0.2080 -0.0868
 8456TIP3    H146783   4.595   6.362   4.650 -1.6741 -0.9837 -1.1233
 8456TIP3    H246784   4.468   6.330   4.726  0.6245 -0.6962  3.1473
 8457TIP3   OH246785   1.858   2.796  11.233 -0.1503 -0.2575  0.0098
 8457TIP3    H146786   1.774   2.839  11.217 -0.8430 -1.8103 -0.8237
 8457TIP3    H246787   1.907   2.810  11.152  1.2849  2.4008  1.2188
 8458TIP3   OH246788   4.138   0.760  14.441 -0.1508  0.1916  0.0070
 8458TIP3    H146789   4.159   0.764  14.348  1.5673  0.0883  0.3518
 8458TIP3    H246790   4.206   0.813  14.483 -0.5333 -0.2729  1.2546
 8459TIP3   OH246791   4.293   5.205   3.284  0.3332 -0.5384  0.5488
 8459TIP3    H146792   4.323   5.119   3.314  0.1652 -0.1719  1.8410
 8459TIP3    H246793   4.323   5.210   3.193  1.3757 -1.4815  0.8088
 8460TIP3   OH246794   4.410   5.862  12.876 -0.4070 -0.0525  0.0067
 8460TIP3    H146795   4.355   5.940  12.865  0.1984  0.4654  0.5316
 8460TIP3    H246796   4.381   5.802  12.808 -2.5892 -0.3652  1.1250
 8461TIP3   OH246797   5.983   1.100  16.817 -0.3639  0.0793 -0.2759
 8461TIP3    H146798   6.003   1.191  16.841 -0.6484  0.3163 -0.9230
 8461TIP3    H246799   5.888   1.094  16.826 -0.3102 -0.2530  0.0923
 8462TIP3   OH246800   0.998   3.749  17.241 -0.3741 -0.1301 -0.2081
 8462TIP3    H146801   1.023   3.799  17.163 -0.0600 -0.4903 -0.3399
 8462TIP3    H246802   0.910   3.781  17.262  0.1441  1.1085  0.2216
 8463TIP3   OH246803   1.093   5.735  15.088  0.2848 -0.5690 -0.3248
 8463TIP3    H146804   1.068   5.687  15.167  0.0730  0.9038  0.5204
 8463TIP3    H246805   1.040   5.814  15.089 -1.5136 -1.5610 -3.1936
 8464TIP3   OH246806   3.809   1.660  13.854 -0.4273  1.0132  0.5573
 8464TIP3    H146807   3.764   1.719  13.914 -1.2911  1.3577 -0.4099
 8464TIP3    H246808   3.758   1.579  13.858  0.2664  0.5909  1.2408
 8465TIP3   OH246809   4.893   2.272   2.622  0.3086 -0.2340  0.3265
 8465TIP3    H146810   4.973   2.220   2.621  0.6413  0.2500 -1.4952
 8465TIP3    H246811   4.839   2.237   2.551  0.3833  1.5979 -0.7166
 8466TIP3   OH246812   0.600   1.870  14.230 -0.2029  0.3063  0.2794
 8466TIP3    H146813   0.619   1.954  14.272  0.4781  0.3380 -0.0689
 8466TIP3    H246814   0.550   1.821  14.296 -0.0320  0.7343  0.7387
 8467TIP3   OH246815   4.328   4.742  15.670  0.8161  0.8147  0.3687
 8467TIP3    H146816   4.310   4.820  15.617 -0.2672  0.8187  0.7048
 8467TIP3    H246817   4.314   4.668  15.610  1.9797  0.8756  0.0141
 8468TIP3   OH246818   0.356   2.863  15.190 -0.4328 -0.0760 -0.0384
 8468TIP3    H146819   0.413   2.935  15.161 -0.8894  0.2399 -0.1714
 8468TIP3    H246820   0.408   2.815  15.254 -0.3714  0.7908  0.5846
 8469TIP3   OH246821   4.718   6.092   1.478 -0.1529 -0.2395 -0.8089
 8469TIP3    H146822   4.697   6.183   1.461 -1.3153 -0.2274  0.5779
 8469TIP3    H246823   4.636   6.044   1.464  0.0492 -0.8534  0.0347
 8470TIP3   OH246824   3.972   6.421  12.602  0.3251  0.4352  0.9834
 8470TIP3    H146825   3.963   6.410  12.507 -0.3871  1.2601  0.9501
 8470TIP3    H246826   4.045   6.481  12.612 -0.3964  1.3537  0.8945
 8471TIP3   OH246827   2.606   2.787  13.804 -0.4179  0.2274 -0.1794
 8471TIP3    H146828   2.531   2.731  13.821 -0.7515  0.3619 -1.1315
 8471TIP3    H246829   2.670   2.730  13.761 -0.5115  0.4236 -0.5850
 8472TIP3   OH246830   2.106   3.994  14.712 -0.1456  0.0034  0.0508
 8472TIP3    H146831   2.070   3.951  14.790 -0.1080 -3.4043 -1.6507
 8472TIP3    H246832   2.188   4.032  14.742  0.0162 -1.4789  1.6609
 8473TIP3   OH246833   5.400   6.152   2.379  0.3906 -0.3623 -0.1120
 8473TIP3    H146834   5.482   6.166   2.332  1.0069 -0.6761  0.8473
 8473TIP3    H246835   5.403   6.061   2.407 -0.1794 -0.3107  0.1357
 8474TIP3   OH246836   1.230   3.178  15.104  0.0769  0.6905 -0.0860
 8474TIP3    H146837   1.293   3.109  15.125  0.5871  0.9532 -0.7090
 8474TIP3    H246838   1.206   3.215  15.189  2.6517  2.2261  0.0961
 8475TIP3   OH246839   3.581   0.649   4.277  0.1886  0.0488 -0.0566
 8475TIP3    H146840   3.541   0.567   4.307 -0.3709  0.4166  0.2100
 8475TIP3    H246841   3.561   0.653   4.184  0.9286 -0.5206 -0.2528
 8476TIP3   OH246842   0.010   1.695  14.847 -0.6099  0.2814  0.0251
 8476TIP3    H146843   0.022   1.784  14.879 -1.1040  0.2300  0.3514
 8476TIP3    H246844   0.012   1.703  14.752 -0.8183  0.6605  0.0549
 8477TIP3   OH246845   0.722   5.009   4.667 -0.1275  0.1157  0.1387
 8477TIP3    H146846   0.762   4.924   4.648  0.3785  0.6458 -1.2670
 8477TIP3    H246847   0.651   4.990   4.729 -0.8371 -1.4890 -1.1291
 8478TIP3   OH246848   0.600   0.139   2.675  0.3077 -0.9608  0.2137
 8478TIP3    H146849   0.519   0.168   2.718  1.1260 -0.4335  1.4848
 8478TIP3    H246850   0.653   0.104   2.746  1.2642 -1.1481 -0.5711
 8479TIP3   OH246851   3.283   4.062   4.987 -0.0286 -0.7106  0.2252
 8479TIP3    H146852   3.248   4.087   4.902 -0.1588 -0.9453  0.2077
 8479TIP3    H246853   3.207   4.033   5.037 -0.0297 -0.0412  0.6146
 8480TIP3   OH246854   6.295   2.048  11.139  0.0127 -0.5886  0.0890
 8480TIP3    H146855   6.351   2.125  11.149  0.2362 -0.6191 -0.8314
 8480TIP3    H246856   6.232   2.055  11.210  1.5667 -0.9017  1.5884
 8481TIP3   OH246857   5.877   2.570   0.802 -0.2352  0.2837  0.0202
 8481TIP3    H146858   5.941   2.514   0.757 -0.7380 -1.1587  1.0144
 8481TIP3    H246859   5.930   2.623   0.862  0.2558  0.9302 -0.9561
 8482TIP3   OH246860   1.626   0.433   6.009  0.5447  0.2665 -0.4792
 8482TIP3    H146861   1.584   0.359   6.051  1.8736 -0.4903 -0.4363
 8482TIP3    H246862   1.685   0.469   6.075  0.2380  1.1013 -0.6415
 8483TIP3   OH246863   2.910   6.392   5.073 -0.6921 -0.4528  0.3423
 8483TIP3    H146864   2.937   6.348   4.992 -1.6589  1.3022 -0.9937
 8483TIP3    H246865   2.985   6.447   5.096 -0.7753 -0.2468  0.1193
 8484TIP3   OH246866   2.295   0.297   1.874  0.0035 -0.5181 -0.3914
 8484TIP3    H146867   2.314   0.327   1.785 -0.0721 -0.4327 -0.3791
 8484TIP3    H246868   2.375   0.253   1.902 -0.1471 -0.9905 -0.6886
 8485TIP3   OH246869   6.510   3.158  14.586  0.2250  0.4241 -0.2682
 8485TIP3    H146870   6.465   3.168  14.670  0.9202  0.8951  0.0490
 8485TIP3    H246871   6.453   3.098  14.536  0.6789 -1.2856  1.1588
 8486TIP3   OH246872   1.148   4.994  11.764  0.1796  0.1895 -0.1069
 8486TIP3    H146873   1.094   5.058  11.810  0.1101  0.8815 -1.1006
 8486TIP3    H246874   1.218   5.047  11.725 -0.7069 -0.0825 -2.2036
 8487TIP3   OH246875   1.252   5.755   5.916 -0.4362 -0.2257 -0.5515
 8487TIP3    H146876   1.203   5.838   5.914  0.4845  0.3948  0.9688
 8487TIP3    H246877   1.216   5.709   5.991  0.5107 -0.2618 -0.1095
 8488TIP3   OH246878   0.866   1.592   0.154 -0.0706  0.4877  0.0371
 8488TIP3    H146879   0.858   1.683   0.179 -0.3758  1.2266 -2.4575
 8488TIP3    H246880   0.778   1.565   0.129  0.1625 -0.2107 -0.0884
 8489TIP3   OH246881   3.977   0.592  14.744 -0.0115  0.0376 -0.4207
 8489TIP3    H146882   3.910   0.543  14.791  0.9050 -0.4686  0.3794
 8489TIP3    H246883   3.927   0.652  14.688 -1.1462 -1.4257 -1.0526
 8490TIP3   OH246884   2.282   2.270  13.993  0.2607  0.4682 -0.6294
 8490TIP3    H146885   2.313   2.266  14.083  0.1343  1.8928 -0.5149
 8490TIP3    H246886   2.250   2.181  13.975 -0.1672  0.2926  0.8875
 8491TIP3   OH246887   0.794   2.822   3.393  0.3585  0.1405 -0.0176
 8491TIP3    H146888   0.809   2.901   3.341 -0.1424 -0.1973 -0.6980
 8491TIP3    H246889   0.730   2.848   3.459  1.2803  0.6715  0.6824
 8492TIP3   OH246890   2.712   5.437  15.986 -0.1486 -0.1128 -0.0756
 8492TIP3    H146891   2.740   5.413  16.074 -0.6947  0.4601  0.2613
 8492TIP3    H246892   2.732   5.531  15.979 -0.7265 -0.0053 -0.3193
 8493TIP3   OH246893   2.173   0.439  16.558  0.3226  0.6487 -0.8480
 8493TIP3    H146894   2.100   0.378  16.556  1.3295 -0.6003 -0.6862
 8493TIP3    H246895   2.159   0.490  16.639  0.6253 -0.8744  0.2040
 8494TIP3   OH246896   0.722   0.259   1.015 -0.2537 -0.0593 -0.3161
 8494TIP3    H146897   0.739   0.302   0.932 -3.3208 -0.5724 -1.3468
 8494TIP3    H246898   0.667   0.320   1.064 -0.5385 -0.7827  0.2930
 8495TIP3   OH246899   2.442   1.236  17.103  0.2190  0.1366  0.1571
 8495TIP3    H146900   2.452   1.289  17.024 -0.9390  0.1472  0.0066
 8495TIP3    H246901   2.434   1.299  17.174  0.5243  0.1333  0.1977
 8496TIP3   OH246902   4.528   3.888  14.151 -0.0813  0.5391  0.3492
 8496TIP3    H146903   4.584   3.924  14.082  0.1289 -1.4408 -0.5818
 8496TIP3    H246904   4.588   3.844  14.210 -0.5209 -0.4550  0.0685
 8497TIP3   OH246905   4.539   3.609  16.362 -0.0074 -0.1424 -0.0248
 8497TIP3    H146906   4.611   3.554  16.395  0.8084  0.3184 -0.9778
 8497TIP3    H246907   4.557   3.696  16.399  0.0108  0.0095 -0.3905
 8498TIP3   OH246908   6.184   6.465  11.656 -1.0349  0.0769 -0.4679
 8498TIP3    H146909   6.128   6.413  11.599 -1.1162 -0.6597  0.2516
 8498TIP3    H246910   6.272   6.451  11.622 -1.3931  3.2730 -3.2009
 8499TIP3   OH246911   2.563   4.646   0.552  0.2399 -0.3317 -0.3533
 8499TIP3    H146912   2.627   4.663   0.621 -0.8290  0.8016  0.4247
 8499TIP3    H246913   2.599   4.574   0.502  0.9555 -1.3789  1.5579
 8500TIP3   OH246914   1.912   5.758  11.481  0.9058 -0.2801  0.7540
 8500TIP3    H146915   2.002   5.767  11.450  0.2974  0.9115 -0.7627
 8500TIP3    H246916   1.858   5.765  11.402 -0.4826 -2.7078  1.3662
 8501TIP3   OH246917   2.947   1.117   1.287 -0.0501 -0.1721 -0.1282
 8501TIP3    H146918   3.003   1.051   1.328  1.6476  1.1863 -0.1353
 8501TIP3    H246919   2.984   1.128   1.199 -0.6005  0.4544 -0.2870
 8502TIP3   OH246920   4.166   3.100   3.048  0.0168  0.5621  0.5708
 8502TIP3    H146921   4.094   3.054   3.004 -0.3594  0.4473  1.2811
 8502TIP3    H246922   4.182   3.047   3.127 -0.0927  1.3836  1.1507
 8503TIP3   OH246923   0.897   6.749  12.288 -0.5455  0.3338  0.0730
 8503TIP3    H146924   0.845   6.735  12.209 -0.7676 -0.0004  0.2784
 8503TIP3    H246925   0.918   6.661  12.320  1.4508  0.4317 -0.8505
 8504TIP3   OH246926   4.455   2.586  13.164 -0.1400 -0.0434  0.3660
 8504TIP3    H146927   4.439   2.493  13.182 -1.2975 -0.2279 -1.3472
 8504TIP3    H246928   4.493   2.587  13.076 -1.3200  1.1524 -0.1662
 8505TIP3   OH246929   3.738   6.189  15.495 -0.3880 -0.8505  0.1219
 8505TIP3    H146930   3.746   6.167  15.402  0.8134 -0.1378  0.0359
 8505TIP3    H246931   3.677   6.263  15.497  0.4209 -0.1530 -0.2309
 8506TIP3   OH246932   0.479   5.931   4.815 -0.1355 -0.0487 -0.4655
 8506TIP3    H146933   0.454   5.951   4.725 -0.4381  2.5080  0.0930
 8506TIP3    H246934   0.411   5.973   4.868  0.9809  0.0323  0.9691
 8507TIP3   OH246935   4.107   6.289   0.984 -0.3307 -0.1062 -0.3158
 8507TIP3    H146936   4.023   6.306   0.941 -0.2582 -0.3797 -0.5732
 8507TIP3    H246937   4.084   6.266   1.074 -0.3856  2.0275  0.2646
 8508TIP3   OH246938   3.646   2.665   6.384 -0.1319 -0.0900 -0.3743
 8508TIP3    H146939   3.552   2.649   6.376 -0.4669  1.4873  0.0514
 8508TIP3    H246940   3.654   2.761   6.380  1.3087 -0.1140  1.1504
 8509TIP3   OH246941   4.639   6.701  13.267  0.3109  0.3993 -0.7575
 8509TIP3    H146942   4.717   6.647  13.285  0.3908  0.4002 -1.0913
 8509TIP3    H246943   4.642   6.770  13.333 -0.0165 -0.2453 -0.0634
 8510TIP3   OH246944   6.705   2.699   4.348 -0.4834  0.2097 -0.4102
 8510TIP3    H146945   6.762   2.692   4.271  0.1267  0.7340 -0.0142
 8510TIP3    H246946   6.634   2.756   4.319  0.2055  1.1303 -0.3289
 8511TIP3   OH246947   3.120   2.398  13.730  0.1485  0.4374 -0.0082
 8511TIP3    H146948   3.035   2.358  13.748  0.5639 -0.2140  0.5557
 8511TIP3    H246949   3.180   2.324  13.724  0.7441  0.9170 -0.0306
 8512TIP3   OH246950   0.075   6.314   5.170 -0.3106  0.4176  0.1271
 8512TIP3    H146951   0.162   6.304   5.209 -0.2535  3.3581  0.9961
 8512TIP3    H246952   0.031   6.231   5.189  1.9347 -0.7763  0.5273
 8513TIP3   OH246953   5.147   0.988  12.854  0.0183  0.1662 -0.4634
 8513TIP3    H146954   5.154   1.084  12.848 -1.2447  0.2180 -2.1109
 8513TIP3    H246955   5.133   0.971  12.947 -0.0007  1.6135 -0.1662
 8514TIP3   OH246956   6.475   2.039  10.636 -0.7517  0.1651 -0.3407
 8514TIP3    H146957   6.469   1.957  10.587  0.2017 -0.4585  0.5292
 8514TIP3    H246958   6.384   2.064  10.653 -1.0638 -1.4355  0.5318
 8515TIP3   OH246959   2.220   2.220  12.220  0.2732  0.2046  0.4560
 8515TIP3    H146960   2.247   2.135  12.254 -0.8802 -0.1820  0.4264
 8515TIP3    H246961   2.207   2.274  12.298 -0.0026  0.0448  0.5213
 8516TIP3   OH246962   3.639   2.389   1.767  0.0283 -0.2144  0.3653
 8516TIP3    H146963   3.666   2.471   1.727 -1.4871  0.6202  0.9766
 8516TIP3    H246964   3.597   2.414   1.849 -1.0115 -1.5479  0.2834
 8517TIP3   OH246965   4.681   2.718   1.649  0.5941 -0.4578 -1.1214
 8517TIP3    H146966   4.669   2.708   1.554 -2.5747  1.1446 -1.0289
 8517TIP3    H246967   4.625   2.792   1.672  1.3016 -0.7820  2.0320
 8518TIP3   OH246968   6.154   4.012  15.739  0.4062 -0.0472  0.4775
 8518TIP3    H146969   6.091   4.031  15.809  1.4473  0.5166  1.2978
 8518TIP3    H246970   6.190   4.098  15.715 -0.8767 -0.0594 -1.7119
 8519TIP3   OH246971   2.151   5.718  11.289  0.0784 -0.4361 -0.1218
 8519TIP3    H146972   2.233   5.669  11.282  0.8032  0.1816  2.6330
 8519TIP3    H246973   2.083   5.655  11.265  1.2844 -1.1761 -1.7588
 8520TIP3   OH246974   5.016   0.108  11.078 -0.4062 -0.1283  0.2570
 8520TIP3    H146975   5.039   0.115  10.985  0.7064 -0.4304  0.4904
 8520TIP3    H246976   5.057   0.027  11.106 -0.0406  0.3664  1.1967
 8521TIP3   OH246977   1.568   0.571   3.501  1.2667  0.1014  0.2951
 8521TIP3    H146978   1.590   0.517   3.577  0.1456 -0.4002  0.2760
 8521TIP3    H246979   1.608   0.526   3.427  1.1969 -0.1553  0.4113
 8522TIP3   OH246980   0.193   5.080   3.324  0.0843  0.0710 -0.6573
 8522TIP3    H146981   0.162   5.020   3.257 -0.7631 -0.1441 -0.0842
 8522TIP3    H246982   0.281   5.049   3.345  0.3413  0.1148 -1.6210
 8523TIP3   OH246983   2.956   5.162  10.464 -0.1336  0.5164  0.1707
 8523TIP3    H146984   3.043   5.120  10.462 -0.3239  0.1037  0.4257
 8523TIP3    H246985   2.916   5.137  10.381 -0.0463  0.6203  0.0980
 8524TIP3   OH246986   3.821   5.057   5.683  0.1703 -0.1320  0.7063
 8524TIP3    H146987   3.836   5.129   5.745  1.5815  0.1095  0.1291
 8524TIP3    H246988   3.726   5.044   5.683 -0.3818  3.0049 -0.5547
 8525TIP3   OH246989   5.211   6.059  15.754 -0.1219  0.2689 -0.6578
 8525TIP3    H146990   5.206   6.070  15.659 -2.4919 -0.2608 -0.6543
 8525TIP3    H246991   5.304   6.049  15.772  0.3604  0.0160 -2.9615
 8526TIP3   OH246992   6.523   6.526   6.450  0.1388 -0.5571  0.1511
 8526TIP3    H146993   6.496   6.435   6.462  0.9693 -0.6212  1.7262
 8526TIP3    H246994   6.592   6.540   6.515 -0.4350  1.4043  0.4068
 8527TIP3   OH246995   4.480   1.992  17.231 -0.6753 -0.0550 -0.3806
 8527TIP3    H146996   4.543   2.026  17.167  0.5879 -1.6883 -0.0872
 8527TIP3    H246997   4.428   1.929  17.182 -1.2471  0.3746 -0.3275
 8528TIP3   OH246998   5.920   2.490   5.936 -0.3364  0.1017 -0.1423
 8528TIP3    H146999   6.000   2.438   5.928  1.5094  2.9166 -1.8735
 8528TIP3    H247000   5.923   2.522   6.026 -0.7238 -1.5158  0.4802
 8529TIP3   OH247001   3.259   0.639  16.434  0.0670  0.9287  0.4440
 8529TIP3    H147002   3.235   0.551  16.406  1.3057  0.6770  0.1008
 8529TIP3    H247003   3.345   0.629  16.474 -0.8659  1.5762  2.7704
 8530TIP3   OH247004   4.486   1.153   2.947 -0.7451 -0.3323 -0.1719
 8530TIP3    H147005   4.462   1.215   3.016  1.1361  0.2972 -0.0399
 8530TIP3    H247006   4.445   1.070   2.973 -1.8076  0.4108  0.5739
 8531TIP3   OH247007   0.142   3.435  10.730 -0.0575 -0.5117  0.2761
 8531TIP3    H147008   0.230   3.421  10.766 -0.4063 -1.8723  0.6986
 8531TIP3    H247009   0.131   3.363  10.668 -0.2224  0.6803 -1.1041
 8532TIP3   OH247010   6.700   1.066   4.194 -0.1790 -0.2114 -0.0524
 8532TIP3    H147011   6.698   0.970   4.197 -1.3122 -0.2240 -0.6964
 8532TIP3    H247012   6.609   1.092   4.185  0.0853  0.9568  0.4704
 8533TIP3   OH247013   0.350   2.649   1.806 -0.4452 -0.3143  0.3819
 8533TIP3    H147014   0.430   2.606   1.836  0.0075 -1.6581 -2.4511
 8533TIP3    H247015   0.305   2.583   1.754 -1.6361  1.4959 -1.0196
 8534TIP3   OH247016   4.231   5.320   0.448  0.0407  0.0874  0.0428
 8534TIP3    H147017   4.311   5.370   0.459 -0.7170  1.4901 -0.5548
 8534TIP3    H247018   4.167   5.384   0.417 -1.8009 -0.5875  2.2163
 8535TIP3   OH247019   4.322   0.070  11.923 -0.6592  0.0253  0.3665
 8535TIP3    H147020   4.298  -0.022  11.939  0.2847  0.0948  2.3723
 8535TIP3    H247021   4.367   0.098  12.002 -2.1304  2.6757  0.3671
 8536TIP3   OH247022   6.141   4.336   5.161 -0.3668 -0.4470 -0.0071
 8536TIP3    H147023   6.131   4.317   5.254 -1.0176 -1.5046 -0.2789
 8536TIP3    H247024   6.230   4.371   5.153 -0.2799 -0.4080  0.9916
 8537TIP3   OH247025   0.933   2.516  16.498  0.1710  0.1941 -0.0250
 8537TIP3    H147026   1.001   2.564  16.450  0.6820  0.9153  1.3510
 8537TIP3    H247027   0.979   2.440  16.534 -0.0992 -0.0925 -0.2776
 8538TIP3   OH247028   4.445   6.713   3.523 -0.3569 -0.2069  0.0297
 8538TIP3    H147029   4.483   6.625   3.518  1.6965  0.6740 -1.2064
 8538TIP3    H247030   4.407   6.727   3.437 -0.8455  0.0752  0.2871
 8539TIP3   OH247031   0.635   2.469  14.354  0.3473  0.5640  0.1040
 8539TIP3    H147032   0.593   2.531  14.295 -0.4834 -0.1199 -0.0378
 8539TIP3    H247033   0.677   2.524  14.421 -0.5267  1.2706  0.0870
 8540TIP3   OH247034   1.442   3.187  14.191  0.5867  0.4061  0.0945
 8540TIP3    H147035   1.408   3.133  14.263 -0.7843  1.7760  0.5229
 8540TIP3    H247036   1.474   3.124  14.127 -0.8798 -0.9184  0.6074
 8541TIP3   OH247037   2.143   1.030  10.546 -0.0266 -0.4536  0.2381
 8541TIP3    H147038   2.082   0.999  10.613  1.0924  1.3153  2.1906
 8541TIP3    H247039   2.175   0.950  10.504 -1.3691 -1.5759  1.2600
 8542TIP3   OH247040   6.485   1.428  16.735 -0.0635  0.3776  0.3349
 8542TIP3    H147041   6.425   1.397  16.803  0.7977 -0.5502  0.7196
 8542TIP3    H247042   6.440   1.500  16.693 -2.6127 -1.9063 -1.1816
 8543TIP3   OH247043   5.452   4.708   4.585  0.0428  0.6512  0.0314
 8543TIP3    H147044   5.406   4.635   4.626  0.5225  0.9712  1.1720
 8543TIP3    H247045   5.544   4.696   4.609  0.0506  1.9126  0.7147
 8544TIP3   OH247046   4.349   0.379   0.979  0.5410 -0.6495 -0.0520
 8544TIP3    H147047   4.358   0.469   1.012 -1.4314  0.1563 -1.4765
 8544TIP3    H247048   4.412   0.373   0.908 -0.6670  0.3712 -1.2826
 8545TIP3   OH247049   5.573   6.033   1.282  0.2367  0.4434 -0.1848
 8545TIP3    H147050   5.504   6.057   1.221 -1.1394 -0.6663  0.8629
 8545TIP3    H247051   5.559   5.939   1.298  2.2336  0.0901 -0.2201
 8546TIP3   OH247052   6.413   2.697  16.318 -1.0691  0.0136 -0.3695
 8546TIP3    H147053   6.388   2.784  16.286 -0.9583 -0.0976 -0.7633
 8546TIP3    H247054   6.333   2.645  16.313 -0.9815 -0.0832 -0.7357
 8547TIP3   OH247055   5.066   3.545   1.155 -0.6793 -0.0736  0.1799
 8547TIP3    H147056   5.087   3.467   1.207  0.5439  1.0831  1.4914
 8547TIP3    H247057   4.970   3.547   1.152 -0.7308 -1.3445  0.5477
 8548TIP3   OH247058   1.936   6.674   0.410  0.3530  0.1097  0.4747
 8548TIP3    H147059   1.926   6.703   0.501  0.8846 -0.4441  0.7155
 8548TIP3    H247060   1.966   6.583   0.417  0.2016  0.0000 -0.2583
 8549TIP3   OH247061   4.877   6.440  14.119 -0.0929  0.4260  0.4619
 8549TIP3    H147062   4.833   6.362  14.153 -1.4715  1.0289  0.1401
 8549TIP3    H247063   4.815   6.512  14.135  1.2102  1.5039  0.9032
 8550TIP3   OH247064   6.162   6.221  14.369  0.3671  0.6105  0.8412
 8550TIP3    H147065   6.192   6.131  14.381  1.7349  0.5531 -2.0967
 8550TIP3    H247066   6.078   6.213  14.324  0.3190  0.7783  0.9010
 8551TIP3   OH247067   6.036   3.173   3.854  0.2644 -0.1571  0.1235
 8551TIP3    H147068   5.976   3.163   3.927  0.4064  1.7715  0.5385
 8551TIP3    H247069   6.022   3.262   3.822  1.2267 -0.4701 -1.2865
 8552TIP3   OH247070   6.578   5.705   5.582 -0.0098 -0.8947 -0.1194
 8552TIP3    H147071   6.639   5.668   5.519 -0.2419 -0.6041 -0.5210
 8552TIP3    H247072   6.629   5.771   5.630 -0.4062  0.5374 -1.5751
 8553TIP3   OH247073   5.406   6.479  15.788  0.0131 -0.1963 -0.4503
 8553TIP3    H147074   5.376   6.414  15.724  0.8490  0.0442 -1.1039
 8553TIP3    H247075   5.499   6.461  15.799  0.1594  0.6083 -0.3083
 8554TIP3   OH247076   1.471   4.386  16.916  0.8353  0.1003  0.0056
 8554TIP3    H147077   1.472   4.383  17.011 -0.6029 -0.3452  0.0300
 8554TIP3    H247078   1.437   4.300  16.890 -0.4927  0.8573 -0.8423
 8555TIP3   OH247079   2.517   1.382   2.398  0.1130  0.0555  0.0027
 8555TIP3    H147080   2.580   1.379   2.326  1.0732  2.5142  0.6562
 8555TIP3    H247081   2.559   1.434   2.466 -0.5659 -2.5201  2.6276
 8556TIP3   OH247082   5.312   1.423  14.253  0.0523  0.0700 -0.4853
 8556TIP3    H147083   5.242   1.364  14.226 -0.6913  0.6398  0.1467
 8556TIP3    H247084   5.330   1.400  14.344  0.0035  0.5798 -0.3444
 8557TIP3   OH247085   2.680   0.223   5.076 -0.5420 -0.3783 -0.0051
 8557TIP3    H147086   2.601   0.218   5.023 -0.0635 -0.3526 -0.7410
 8557TIP3    H247087   2.725   0.140   5.059  0.0910  0.0438 -0.4035
 8558TIP3   OH247088   2.451   5.307   3.330 -0.9005 -0.0517  0.1353
 8558TIP3    H147089   2.368   5.284   3.372 -1.4913  1.0440 -0.3978
 8558TIP3    H247090   2.429   5.315   3.237  0.2475 -1.7704 -0.3224
 8559TIP3   OH247091   4.140   5.746   4.226 -0.1721 -0.0152  0.0040
 8559TIP3    H147092   4.115   5.815   4.165 -0.5174 -0.4111 -0.3069
 8559TIP3    H247093   4.230   5.723   4.202 -0.4969 -0.5505 -0.7179
 8560TIP3   OH247094   0.074   4.848   4.301 -0.5865  0.1139 -0.0464
 8560TIP3    H147095   0.109   4.935   4.318 -0.4182  0.3094 -1.2677
 8560TIP3    H247096  -0.019   4.862   4.284 -0.1804  0.3954 -2.3696
 8561TIP3   OH247097   0.435   4.455   5.465 -0.2112  0.3642 -0.5079
 8561TIP3    H147098   0.352   4.501   5.451 -0.4397 -0.1705 -0.9214
 8561TIP3    H247099   0.500   4.525   5.473 -0.8440  0.8427  0.9022
 8562TIP3   OH247100   1.254   1.005  11.422 -0.1738 -0.5220 -0.7094
 8562TIP3    H147101   1.236   1.025  11.330  0.6376  1.5343 -0.4644
 8562TIP3    H247102   1.230   1.084  11.470 -0.0808 -1.3621  0.8030
 8563TIP3   OH247103   4.352   1.201   0.150 -0.6548 -0.5738 -0.2247
 8563TIP3    H147104   4.274   1.173   0.102 -0.3622 -2.9835  0.5724
 8563TIP3    H247105   4.420   1.208   0.083 -0.7455 -1.8662 -0.4779
 8564TIP3   OH247106   5.857   5.258   5.902  0.1078  0.0532 -0.0412
 8564TIP3    H147107   5.893   5.344   5.922 -1.2887  0.5350  0.5121
 8564TIP3    H247108   5.791   5.243   5.970 -0.9394 -0.6513 -1.1674
 8565TIP3   OH247109   4.922   1.686   4.033 -0.2561  0.5146  0.1488
 8565TIP3    H147110   4.966   1.690   4.118 -1.5102 -0.5116  0.8972
 8565TIP3    H247111   4.986   1.720   3.971  0.6839  1.3369  1.5038
 8566TIP3   OH247112   5.811   3.324   1.435  0.6283  0.1592  0.0791
 8566TIP3    H147113   5.738   3.386   1.445  0.2729 -0.4986  2.0093
 8566TIP3    H247114   5.854   3.351   1.354 -1.6675  0.6554 -1.0752
 8567TIP3   OH247115   4.469   4.110  11.165 -0.3302  0.7633  0.5483
 8567TIP3    H147116   4.518   4.034  11.197  0.8282  0.5114 -1.6067
 8567TIP3    H247117   4.525   4.185  11.187 -0.1846  0.7114  0.3685
 8568TIP3   OH247118   5.246   1.220   2.161  0.2415  0.1168  0.5737
 8568TIP3    H147119   5.193   1.154   2.116 -1.8613  1.2746  1.1969
 8568TIP3    H247120   5.235   1.299   2.109 -0.7621  1.0194  2.0828
 8569TIP3   OH247121   4.950   2.105  11.905 -0.1817  0.0638  0.3372
 8569TIP3    H147122   4.893   2.049  11.957 -1.0575  0.8645  0.2621
 8569TIP3    H247123   5.038   2.068  11.918 -0.6967 -1.1670  0.4685
 8570TIP3   OH247124   5.660   6.140  15.996  0.3153 -0.2303 -0.3635
 8570TIP3    H147125   5.651   6.093  15.913 -0.8548  0.2563 -0.5204
 8570TIP3    H247126   5.575   6.131  16.038  0.1971  1.3760 -0.1967
 8571TIP3   OH247127   5.884   3.898   5.551  0.2891  0.2777  0.1073
 8571TIP3    H147128   5.912   3.808   5.532 -0.9089 -0.2589  0.7988
 8571TIP3    H247129   5.966   3.948   5.552  1.0112 -0.8514  0.0229
 8572TIP3   OH247130   3.292   4.791   6.236  0.2414 -0.2289 -0.7178
 8572TIP3    H147131   3.301   4.880   6.200  1.5010 -0.4150 -0.9068
 8572TIP3    H247132   3.198   4.779   6.248  0.0942  1.4653  0.1432
 8573TIP3   OH247133   4.541   5.988   1.849 -0.1001  0.0506 -0.1649
 8573TIP3    H147134   4.451   5.995   1.880  0.5869 -0.3332  2.1162
 8573TIP3    H247135   4.588   5.947   1.922  1.6502 -1.0824 -1.8362
 8574TIP3   OH247136   5.834   0.402   3.245 -0.3959 -0.2814  0.6320
 8574TIP3    H147137   5.790   0.475   3.289  0.9762  1.3430 -0.5834
 8574TIP3    H247138   5.762   0.349   3.211 -1.4821  1.5773 -0.1524
 8575TIP3   OH247139   6.077   6.677   5.804 -0.3697  0.5400 -0.7593
 8575TIP3    H147140   6.045   6.613   5.868 -0.8393  1.3411 -0.1705
 8575TIP3    H247141   6.105   6.624   5.729  1.4605 -0.5474  0.6026
 8576TIP3   OH247142   6.272   2.252   5.535  0.0002 -0.3277 -0.2011
 8576TIP3    H147143   6.227   2.209   5.462  1.7400 -0.0319 -1.5242
 8576TIP3    H247144   6.278   2.344   5.508 -0.9206  0.1659  1.1700
 8577TIP3   OH247145   2.460   5.369  13.129  0.1414  0.1268 -0.1732
 8577TIP3    H147146   2.447   5.323  13.212  2.5777 -1.0509 -0.3495
 8577TIP3    H247147   2.428   5.308  13.062 -2.2228  1.2490 -0.1564
 8578TIP3   OH247148   1.826   2.105   2.526 -0.4003  0.4080 -0.3547
 8578TIP3    H147149   1.764   2.177   2.538 -1.6771 -0.6774 -0.1422
 8578TIP3    H247150   1.881   2.133   2.453 -0.5041  1.8246  0.0698
 8579TIP3   OH247151   2.739   5.493   4.387 -0.0799 -1.2203 -0.1753
 8579TIP3    H147152   2.735   5.552   4.311 -0.3715 -0.8653  0.1109
 8579TIP3    H247153   2.758   5.407   4.350 -2.1230 -1.4284 -0.8320
 8580TIP3   OH247154   1.836   0.130  11.386  0.1187 -0.8837  0.0801
 8580TIP3    H147155   1.921   0.085  11.390 -0.4758 -1.9927  1.9614
 8580TIP3    H247156   1.785   0.079  11.323  0.2258 -1.4172  0.4183
 8581TIP3   OH247157   1.227   5.957  15.417 -0.2558 -0.4304  0.4316
 8581TIP3    H147158   1.197   6.015  15.347 -0.6424 -1.5227 -0.3440
 8581TIP3    H247159   1.180   5.875  15.403  1.6509 -1.5887  0.3026
 8582TIP3   OH247160   4.052   4.044   1.180 -0.8128 -0.0668 -0.4081
 8582TIP3    H147161   4.134   4.084   1.150 -0.2489 -2.0417 -1.6416
 8582TIP3    H247162   3.998   4.036   1.101 -1.1359 -1.1902 -0.0895
 8583TIP3   OH247163   0.046   2.969   1.113  0.3371 -0.2549 -0.1200
 8583TIP3    H147164   0.008   2.937   1.194 -0.0979 -2.2020 -1.0390
 8583TIP3    H247165  -0.028   2.980   1.054  0.8568 -0.9415 -0.9176
 8584TIP3   OH247166   5.900   3.236   3.302 -0.0300 -0.0678 -0.1309
 8584TIP3    H147167   5.889   3.292   3.225 -2.3997  0.8835  0.8100
 8584TIP3    H247168   5.895   3.146   3.268 -3.5133  0.2884 -0.9305
 8585TIP3   OH247169   3.993   5.495   2.658  0.2515 -0.0898  0.2915
 8585TIP3    H147170   4.068   5.492   2.598 -0.0352 -0.7480 -0.0426
 8585TIP3    H247171   3.944   5.415   2.639 -0.7807  0.5506  0.1960
 8586TIP3   OH247172   2.019   3.216  15.383 -0.1200 -0.8641  0.1727
 8586TIP3    H147173   2.078   3.286  15.355  0.1746 -1.5498 -0.9937
 8586TIP3    H247174   1.942   3.227  15.327  0.0280 -1.6091 -0.1872
 8587TIP3   OH247175   2.312   5.076   3.968 -0.3787 -0.2104  0.1517
 8587TIP3    H147176   2.313   5.078   3.872  0.1432 -1.5574  0.1053
 8587TIP3    H247177   2.392   5.029   3.991 -0.3574  0.3548  1.2693
 8588TIP3   OH247178   0.179   6.715  15.478 -0.6259 -0.1462  0.0320
 8588TIP3    H147179   0.263   6.729  15.521  0.4129 -1.0630 -1.6055
 8588TIP3    H247180   0.119   6.776  15.522  0.6530 -0.1124  1.8416
 8589TIP3   OH247181   2.439   2.222  11.222  0.3326  0.1840  0.3521
 8589TIP3    H147182   2.464   2.169  11.298 -1.1659 -0.4640  0.4279
 8589TIP3    H247183   2.513   2.283  11.210  1.8798 -1.5593  0.5641
 8590TIP3   OH247184   2.099   3.356  13.761  0.0418 -0.0943  0.0034
 8590TIP3    H147185   2.123   3.448  13.773 -0.6947  0.0304  0.6619
 8590TIP3    H247186   2.182   3.311  13.746  0.4263  0.6551 -0.1678
 8591TIP3   OH247187   4.808   5.897   1.049  0.1192  0.2887 -0.2700
 8591TIP3    H147188   4.737   5.944   1.004  0.3636  0.5877 -0.3435
 8591TIP3    H247189   4.774   5.882   1.138  0.4849  1.6176  0.1045
 8592TIP3   OH247190   6.339   1.382   5.142 -0.1756  0.0017 -0.0065
 8592TIP3    H147191   6.335   1.354   5.234 -0.0472  1.0108  0.3218
 8592TIP3    H247192   6.293   1.313   5.094  0.2624 -0.8346  0.7426
 8593TIP3   OH247193   3.498   5.377   1.135  0.6283  0.2183  0.3988
 8593TIP3    H147194   3.471   5.365   1.044 -0.0268 -1.6028  0.7814
 8593TIP3    H247195   3.592   5.359   1.135  0.4703 -0.6579  0.2005
 8594TIP3   OH247196   3.181   6.665   1.224  0.5568 -0.0492  0.1919
 8594TIP3    H147197   3.152   6.748   1.262 -1.8004 -0.4558 -0.5554
 8594TIP3    H247198   3.247   6.690   1.159  0.1865  1.2089  0.2743
 8595TIP3   OH247199   5.135   5.298   5.535  0.3656 -0.0312 -0.1441
 8595TIP3    H147200   5.140   5.379   5.586 -0.3141  2.0669 -3.1197
 8595TIP3    H247201   5.224   5.282   5.506  0.8040 -1.3802  1.7180
 8596TIP3   OH247202   4.472   0.242  12.105  0.1717 -0.0889  0.0299
 8596TIP3    H147203   4.480   0.191  12.185 -0.5725 -0.9915 -0.4460
 8596TIP3    H247204   4.487   0.333  12.132 -0.0880 -0.3732  1.1908
 8597TIP3   OH247205   5.771   0.546   0.288 -0.3334 -0.2164 -0.1403
 8597TIP3    H147206   5.698   0.494   0.323 -0.4261  0.5878  0.9093
 8597TIP3    H247207   5.761   0.632   0.330  0.4242  0.3259 -1.0431
 8598TIP3   OH247208   0.505   3.879   2.276  0.2961 -0.2423 -0.3970
 8598TIP3    H147209   0.464   3.862   2.361 -0.0438  1.4365 -0.1935
 8598TIP3    H247210   0.593   3.910   2.297  0.1126  0.4488 -0.6390
 8599TIP3   OH247211   4.708   6.391   6.429 -0.0476  0.0851  0.4838
 8599TIP3    H147212   4.619   6.369   6.454 -0.6224  0.9053 -0.7491
 8599TIP3    H247213   4.749   6.306   6.410 -0.9276 -0.2360 -0.0682
 8600TIP3   OH247214   2.361   4.078  14.793  0.3858 -0.4530 -0.2148
 8600TIP3    H147215   2.401   4.101  14.710  1.0027 -0.0479  0.1810
 8600TIP3    H247216   2.376   4.155  14.849 -0.8715 -0.3322 -0.0237
 8601TIP3   OH247217   1.747   4.420  11.773 -0.5176 -0.0191 -0.2170
 8601TIP3    H147218   1.749   4.449  11.682 -1.6205  0.8417  0.0084
 8601TIP3    H247219   1.835   4.438  11.806 -0.2542  0.1117 -0.9713
 8602TIP3   OH247220   4.661   2.012   0.609 -0.0155  0.4750 -0.0295
 8602TIP3    H147221   4.709   2.068   0.670  1.7789 -0.2518 -0.7049
 8602TIP3    H247222   4.711   1.930   0.607 -0.7379  0.0246 -1.5039
 8603TIP3   OH247223   3.831   0.841  13.697  0.6642  0.0006 -0.2194
 8603TIP3    H147224   3.752   0.879  13.657  0.7745 -0.1426 -0.5779
 8603TIP3    H247225   3.798   0.793  13.773  0.4222  0.0707 -0.2771
 8604TIP3   OH247226   5.158   3.419  14.491  0.0142  0.6829  0.6769
 8604TIP3    H147227   5.103   3.355  14.535  1.8663 -1.0329  0.6003
 8604TIP3    H247228   5.096   3.485  14.458 -2.4476 -2.6433 -2.0992
 8605TIP3   OH247229   0.545   1.357  15.740 -0.5130 -0.2882  0.2754
 8605TIP3    H147230   0.453   1.356  15.768 -0.8305  1.1124 -0.5776
 8605TIP3    H247231   0.540   1.369  15.645  0.5430 -3.0285 -0.2236
 8606TIP3   OH247232   6.577   4.117  13.000 -0.6405  0.3828  0.7186
 8606TIP3    H147233   6.601   4.030  12.967 -2.2879 -0.4032  1.4892
 8606TIP3    H247234   6.623   4.177  12.941  0.8128 -0.9807  0.3650
 8607TIP3   OH247235   1.584   1.977  14.154 -0.0071 -0.1057 -0.5888
 8607TIP3    H147236   1.524   1.903  14.164  1.1091 -0.9803 -0.2362
 8607TIP3    H247237   1.564   2.011  14.067 -1.1631 -0.2304 -0.3994
 8608TIP3   OH247238   1.617   3.733   1.843  0.2009  0.2144 -0.8075
 8608TIP3    H147239   1.563   3.781   1.906  1.2103 -0.8727  0.9903
 8608TIP3    H247240   1.704   3.733   1.882  0.8433 -0.6142 -2.1761
 8609TIP3   OH247241   0.608   0.387   5.522  0.5367 -0.4493 -0.2323
 8609TIP3    H147242   0.604   0.445   5.598  1.1970 -0.3540 -0.2698
 8609TIP3    H247243   0.593   0.445   5.447 -3.0796 -0.9291 -0.0732
 8610TIP3   OH247244   1.442   0.967  14.193 -0.0739  0.6937 -0.4266
 8610TIP3    H147245   1.484   1.011  14.267 -0.7826  1.6469 -0.5653
 8610TIP3    H247246   1.499   0.984  14.118  0.7527 -0.4488 -0.0804
 8611TIP3   OH247247   5.810   2.555  13.806 -0.6504  0.3996 -0.0777
 8611TIP3    H147248   5.756   2.501  13.864 -3.4250  1.3855 -1.5792
 8611TIP3    H247249   5.787   2.645  13.830  0.4475  0.8650 -0.7051
 8612TIP3   OH247250   1.597   3.240   5.839 -0.9596  0.0654  0.4040
 8612TIP3    H147251   1.575   3.263   5.749  0.4548  0.1179  0.0464
 8612TIP3    H247252   1.604   3.323   5.885  2.8093  0.4456 -0.5663
 8613TIP3   OH247253   5.958   2.115   3.993 -0.7770  0.1167  0.3625
 8613TIP3    H147254   5.985   2.077   3.910  0.3507  0.3861  0.5864
 8613TIP3    H247255   5.871   2.152   3.976 -0.6642 -0.0505 -0.6135
 8614TIP3   OH247256   5.646   0.713   5.785 -0.3488  0.1868 -0.3707
 8614TIP3    H147257   5.563   0.741   5.823  0.2965  0.8058  0.6191
 8614TIP3    H247258   5.710   0.777   5.817  0.1140  1.3049 -3.2110
 8615TIP3   OH247259   5.089   1.821  16.940  0.4031 -0.0117 -0.5265
 8615TIP3    H147260   5.163   1.776  16.899 -0.0374 -1.3833  0.1440
 8615TIP3    H247261   5.130   1.888  16.995  1.3211 -2.1937  1.5981
 8616TIP3   OH247262   2.332   1.171   1.878 -0.1922  0.2966  0.3895
 8616TIP3    H147263   2.355   1.111   1.807 -0.1510 -0.4902  1.0549
 8616TIP3    H247264   2.302   1.115   1.949 -2.6853  1.1802  0.1411
 8617TIP3   OH247265   1.970   1.353   3.939 -0.7318 -0.2210 -0.2027
 8617TIP3    H147266   1.885   1.332   3.900 -0.2236 -0.2524 -1.3291
 8617TIP3    H247267   2.006   1.268   3.965 -1.0326 -0.2092  0.2633
 8618TIP3   OH247268   4.074   6.451   0.467 -0.0459 -0.6220  0.0623
 8618TIP3    H147269   4.096   6.481   0.556  0.1414 -0.4890 -0.0278
 8618TIP3    H247270   4.158   6.448   0.422 -0.3550  1.4678 -0.7856
 8619TIP3   OH247271   1.526   1.817   2.342  0.5556 -0.1951  0.3254
 8619TIP3    H147272   1.595   1.865   2.297  0.1525  0.5928  0.5254
 8619TIP3    H247273   1.531   1.728   2.306  1.9260 -0.2578  0.6400
 8620TIP3   OH247274   0.066   6.041  14.606 -0.4201 -0.0408 -0.7371
 8620TIP3    H147275   0.105   6.042  14.694 -1.1965  0.0860 -0.3888
 8620TIP3    H247276   0.135   6.005  14.550  1.3565  2.9416 -0.6856
 8621TIP3   OH247277   0.896   4.128  17.006 -0.0493 -0.0335  0.3247
 8621TIP3    H147278   0.808   4.129  16.968  0.1620  1.1298 -0.1775
 8621TIP3    H247279   0.893   4.193  17.076  0.5793  0.4806 -0.1126
 8622TIP3   OH247280   2.117   2.692   1.037 -0.1370 -0.2117  0.5047
 8622TIP3    H147281   2.092   2.601   1.020 -0.1943 -0.0999 -0.0307
 8622TIP3    H247282   2.083   2.740   0.962 -0.9968  0.4082  1.2700
 8623TIP3   OH247283   0.078   6.553  11.622 -0.4425 -0.1406 -0.3606
 8623TIP3    H147284   0.091   6.460  11.642 -0.0692  0.1301  0.6820
 8623TIP3    H247285   0.086   6.598  11.706  3.2526  1.2769 -1.2522
 8624TIP3   OH247286   0.109   4.667   2.499 -0.2215 -0.2278 -0.0451
 8624TIP3    H147287   0.175   4.727   2.464 -0.2740 -0.6575 -0.9008
 8624TIP3    H247288   0.104   4.689   2.592  0.0290  0.8290 -0.2710
 8625TIP3   OH247289   5.026   5.416   3.238  0.0448  0.4071  0.4547
 8625TIP3    H147290   5.043   5.339   3.291  1.7937  0.8289  0.5588
 8625TIP3    H247291   5.089   5.481   3.268  0.1482  1.1245 -1.1819
 8626TIP3   OH247292   0.604   3.472   0.875 -0.7786 -0.0181  0.2051
 8626TIP3    H147293   0.594   3.459   0.969 -0.2235 -0.7696  0.1633
 8626TIP3    H247294   0.583   3.387   0.836  0.7020 -0.2190 -0.2255
 8627TIP3   OH247295   3.634   2.271  16.865 -0.4961  0.4669 -0.0456
 8627TIP3    H147296   3.722   2.284  16.902 -0.6384 -0.7551  0.7974
 8627TIP3    H247297   3.649   2.222  16.784 -0.4159 -0.1131  0.3135
 8628TIP3   OH247298   5.036   3.654  10.868 -0.1363  0.6854  0.5505
 8628TIP3    H147299   5.053   3.620  10.780 -2.5928  1.8037 -0.4620
 8628TIP3    H247300   5.038   3.577  10.925  1.2163 -0.0956 -0.5005
 8629TIP3   OH247301   4.061   3.118  13.306 -0.0949  0.0829 -0.2254
 8629TIP3    H147302   4.064   3.188  13.371  1.5554  1.5572 -1.7780
 8629TIP3    H247303   4.106   3.154  13.229 -1.9337 -1.5655 -2.2143
 8630TIP3   OH247304   5.329   6.757   3.656  0.2209  0.2683  0.7036
 8630TIP3    H147305   5.326   6.831   3.596  1.1461  2.3795  3.0655
 8630TIP3    H247306   5.238   6.740   3.678 -0.1687 -0.8127 -1.4846
 8631TIP3   OH247307   1.057   0.465  14.308  0.3927 -0.3983 -0.0893
 8631TIP3    H147308   1.119   0.425  14.247 -0.0682 -2.2655  0.5835
 8631TIP3    H247309   0.999   0.517  14.252  1.5305  0.0205 -0.9179
 8632TIP3   OH247310   0.109   3.338   1.161 -0.0006 -0.4124 -0.4039
 8632TIP3    H147311   0.124   3.334   1.255  1.0916 -3.5579 -0.5976
 8632TIP3    H247312   0.025   3.294   1.148  0.3218 -0.8796 -0.9640
 8633TIP3   OH247313   6.191   4.534   2.865 -0.4034  0.1256 -0.4570
 8633TIP3    H147314   6.112   4.483   2.847 -0.6425 -0.3254  1.5833
 8633TIP3    H247315   6.161   4.625   2.867 -1.6746 -0.1884  3.3397
 8634TIP3   OH247316   4.205   2.362   3.525 -0.2178 -0.2479  0.3470
 8634TIP3    H147317   4.245   2.276   3.511  1.1106  0.2309  1.0394
 8634TIP3    H247318   4.112   2.343   3.533  0.0088 -1.5885  0.1831
 8635TIP3   OH247319   0.791   5.203  16.739 -0.0415  0.1031  0.2046
 8635TIP3    H147320   0.835   5.124  16.770  0.3308  0.8357  1.6066
 8635TIP3    H247321   0.710   5.207  16.790  0.6221  1.3798  1.1996
 8636TIP3   OH247322   6.604   3.856  13.963  0.2270  0.3564  0.3105
 8636TIP3    H147323   6.632   3.947  13.957  1.1781  0.0359 -0.2210
 8636TIP3    H247324   6.650   3.822  14.040  1.0580 -0.0761 -0.3647
 8637TIP3   OH247325   4.101   4.460  10.541 -0.2024 -0.3648  0.6118
 8637TIP3    H147326   4.109   4.446  10.446 -2.1872 -0.0973  0.3535
 8637TIP3    H247327   4.072   4.551  10.549  0.1170 -0.3373  1.4847
 8638TIP3   OH247328   2.594   5.663   1.678  0.3107 -0.2622 -0.0972
 8638TIP3    H147329   2.603   5.675   1.772 -1.4080  0.9289 -0.0540
 8638TIP3    H247330   2.684   5.661   1.646  0.9671 -1.5283  1.6337
 8639TIP3   OH247331   2.552   2.007   2.957 -0.3966 -0.2092 -0.1218
 8639TIP3    H147332   2.483   2.069   2.934  0.1576  0.4245 -0.0988
 8639TIP3    H247333   2.537   1.932   2.900 -0.4557  0.3688 -0.8774
 8640TIP3   OH247334   1.715   5.462  11.269 -0.1447  0.1376  0.1540
 8640TIP3    H147335   1.681   5.437  11.183 -0.7194 -0.8176  0.6407
 8640TIP3    H247336   1.665   5.408  11.331 -0.1729  1.2495  1.1324
 8641TIP3   OH247337   2.294   3.774   6.308  0.2392 -0.3873 -0.1038
 8641TIP3    H147338   2.359   3.756   6.376 -0.2914  0.9283  0.7871
 8641TIP3    H247339   2.280   3.868   6.313  0.6774 -0.1452 -2.5173
 8642TIP3   OH247340   5.220   1.166  16.049  0.1864  0.3116 -0.3141
 8642TIP3    H147341   5.218   1.073  16.027  0.6292  0.6563 -1.9480
 8642TIP3    H247342   5.312   1.184  16.069  0.2114  0.5202 -0.6092
 8643TIP3   OH247343   2.621   1.812   3.533  0.8577  0.0338  0.0595
 8643TIP3    H147344   2.660   1.729   3.561  0.5989 -0.7640 -1.7731
 8643TIP3    H247345   2.687   1.849   3.473  1.6365  1.9231  1.9784
 8644TIP3   OH247346   5.835   2.416  14.835 -0.4222  0.2927  0.1577
 8644TIP3    H147347   5.774   2.361  14.787  0.0443 -0.8173  0.8160
 8644TIP3    H247348   5.907   2.432  14.773  0.0648 -0.9329  0.3878
 8645TIP3   OH247349   1.100   0.812   1.010 -0.4409 -0.6685  0.5276
 8645TIP3    H147350   1.072   0.893   1.053 -0.3744 -0.9985  1.2048
 8645TIP3    H247351   1.129   0.756   1.082  2.4419 -0.1717 -0.1322
 8646TIP3   OH247352   1.822   4.169   5.723 -0.2781 -0.2498  0.2675
 8646TIP3    H147353   1.771   4.122   5.789  1.2761 -0.3113  1.4917
 8646TIP3    H247354   1.760   4.186   5.652 -2.1954  0.3956  2.0044
 8647TIP3   OH247355   0.622   3.994  16.632  0.2495  0.2896  0.2271
 8647TIP3    H147356   0.543   4.049  16.629 -0.3670 -0.4206  2.1956
 8647TIP3    H247357   0.693   4.053  16.606 -0.6324  1.5615  0.5888
 8648TIP3   OH247358   5.600   0.237   0.309  0.5520 -0.1974 -0.2284
 8648TIP3    H147359   5.670   0.235   0.243  1.1756  0.1304  0.4049
 8648TIP3    H247360   5.626   0.170   0.372  0.8443  0.6136  0.5377
 8649TIP3   OH247361   0.150   5.632   3.548 -0.1981  0.1928  0.0556
 8649TIP3    H147362   0.180   5.542   3.562  0.2326  0.3318  0.0177
 8649TIP3    H247363   0.134   5.637   3.454  0.3199  0.3227 -0.0276
 8650TIP3   OH247364   1.259   5.042   3.760 -0.4643 -0.1136  0.1215
 8650TIP3    H147365   1.350   5.060   3.736 -0.1491 -0.8928  0.6921
 8650TIP3    H247366   1.255   5.060   3.854 -1.3761  1.7118 -0.2116
 8651TIP3   OH247367   1.681   0.137   5.900 -0.1278  0.6843  0.7318
 8651TIP3    H147368   1.616   0.104   5.962  0.3343 -0.7926  0.4799
 8651TIP3    H247369   1.741   0.064   5.888  0.7203  1.5060 -0.2073
 8652TIP3   OH247370   5.180   6.028   4.338 -0.7658  0.1712 -0.2790
 8652TIP3    H147371   5.233   5.994   4.410 -0.0999  1.2953 -0.2129
 8652TIP3    H247372   5.234   6.016   4.260 -0.3503  1.4234 -0.1956
 8653TIP3   OH247373   4.854   4.154  15.205  0.1011 -0.0693 -0.1921
 8653TIP3    H147374   4.884   4.223  15.264 -2.6559  1.1691 -0.1253
 8653TIP3    H247375   4.863   4.191  15.117 -0.8257  0.1496 -0.1955
 8654TIP3   OH247376   2.999   2.604  17.136  0.2983 -0.4048 -0.4370
 8654TIP3    H147377   2.991   2.700  17.144  0.9660 -0.3619 -0.2662
 8654TIP3    H247378   3.029   2.575  17.222  0.1654 -0.7648 -0.5107
 8655TIP3   OH247379   4.491   1.574  14.275  0.4092  0.1708 -0.3894
 8655TIP3    H147380   4.549   1.628  14.330 -0.0707  1.3268 -0.9789
 8655TIP3    H247381   4.404   1.587  14.312  0.5748 -2.2795  1.0603
 8656TIP3   OH247382   5.746   4.184  14.855 -0.0869  0.2499  0.4289
 8656TIP3    H147383   5.700   4.108  14.890 -2.2427  1.8747  1.3654
 8656TIP3    H247384   5.735   4.178  14.760  2.4844 -2.1630  0.1581
 8657TIP3   OH247385   2.300   0.459  12.121  0.1863  0.0343 -0.5880
 8657TIP3    H147386   2.299   0.367  12.094 -1.0265  0.0555 -0.6577
 8657TIP3    H247387   2.208   0.485  12.122  0.5273  1.3136 -0.7690
 8658TIP3   OH247388   5.498   0.181  16.967  1.1005  0.1368  0.3411
 8658TIP3    H147389   5.458   0.260  16.932  0.9014  1.1090  2.5888
 8658TIP3    H247390   5.508   0.198  17.061  1.8206 -2.1827  0.7629
 8659TIP3   OH247391   3.559   0.498   0.912 -0.4537 -0.5312  0.1624
 8659TIP3    H147392   3.467   0.471   0.909 -0.6146  0.0426 -0.1639
 8659TIP3    H247393   3.604   0.436   0.856 -0.9257  0.2597 -1.1360
 8660TIP3   OH247394   0.593   6.483  12.065  0.3876 -0.5453 -0.5397
 8660TIP3    H147395   0.542   6.415  12.110  0.3623 -0.5970 -0.6468
 8660TIP3    H247396   0.681   6.475  12.101  0.7855 -1.6938 -1.6974
 8661TIP3   OH247397   2.208   2.597   4.249  0.6613 -0.1888 -0.2427
 8661TIP3    H147398   2.233   2.510   4.219 -1.6622 -1.6155  1.6055
 8661TIP3    H247399   2.241   2.602   4.339  0.0596  0.4884 -0.0482
 8662TIP3   OH247400   2.945   4.273   4.641 -0.1360  0.1730 -0.1332
 8662TIP3    H147401   2.907   4.280   4.553 -1.8740  0.5665  0.5990
 8662TIP3    H247402   2.922   4.356   4.683  1.5190  0.3945  0.4032
 8663TIP3   OH247403   3.086   1.394   4.325 -0.1418 -0.0605 -0.4419
 8663TIP3    H147404   3.098   1.469   4.267 -1.1197  0.2830 -0.2205
 8663TIP3    H247405   3.152   1.405   4.394  0.8695 -0.3480 -1.3424
 8664TIP3   OH247406   1.108   3.139  11.722 -0.4103 -0.8339  0.0721
 8664TIP3    H147407   1.095   3.151  11.816  0.8038 -1.0089  0.2780
 8664TIP3    H247408   1.020   3.144  11.685 -0.8898 -0.6092  1.1967
 8665TIP3   OH247409   4.203   4.257  14.919  0.1141  0.6103 -0.2233
 8665TIP3    H147410   4.260   4.320  14.964 -0.4441  0.7524  0.2942
 8665TIP3    H247411   4.201   4.182  14.978  0.8920  0.0306 -0.9017
 8666TIP3   OH247412   6.491   4.135   6.249  0.0700  0.0468  0.1161
 8666TIP3    H147413   6.446   4.079   6.312  0.2616  1.5825  1.6960
 8666TIP3    H247414   6.556   4.182   6.302  1.3761  0.1869 -1.5482
 8667TIP3   OH247415   4.870   5.428  14.966  0.2625  0.1439 -0.4758
 8667TIP3    H147416   4.809   5.379  15.021  1.1391 -0.7421 -0.2593
 8667TIP3    H247417   4.889   5.369  14.893  0.1940  0.7563 -0.9981
 8668TIP3   OH247418   3.081   1.912   2.979  0.0752 -0.2090 -0.6781
 8668TIP3    H147419   3.133   1.834   2.958 -0.7751 -0.6300 -1.2673
 8668TIP3    H247420   3.000   1.901   2.930 -1.3459 -0.4211  1.5646
 8669TIP3   OH247421   5.484   1.787   4.192 -0.3283 -0.5463  0.0788
 8669TIP3    H147422   5.520   1.715   4.243  1.4526 -0.7281 -1.3410
 8669TIP3    H247423   5.557   1.849   4.184 -0.7590 -0.2214 -1.6326
 8670TIP3   OH247424   0.553   1.316   2.807  0.1633  0.1036  0.2391
 8670TIP3    H147425   0.625   1.354   2.756  0.0656  0.4200  0.3342
 8670TIP3    H247426   0.553   1.367   2.889 -0.7897  0.7642 -0.1490
 8671TIP3   OH247427   5.851   1.420  10.791 -0.4604 -0.3416 -0.2861
 8671TIP3    H147428   5.903   1.403  10.713 -0.6181 -2.9179  0.1082
 8671TIP3    H247429   5.888   1.501  10.827  0.6730  0.0076 -2.1019
 8672TIP3   OH247430   0.762   3.488  16.017 -0.2319  0.0744 -0.4290
 8672TIP3    H147431   0.700   3.418  16.000 -0.6081  0.0281  1.0382
 8672TIP3    H247432   0.826   3.481  15.946 -1.5627 -0.2394 -1.6307
 8673TIP3   OH247433   3.909   4.165  15.806  0.0005  0.2759 -0.1898
 8673TIP3    H147434   3.925   4.100  15.738  0.2708  1.1000 -0.9330
 8673TIP3    H247435   3.912   4.249  15.760  1.6308  0.9673  1.0709
 8674TIP3   OH247436   2.124   3.460   0.533  0.1319 -0.5920 -0.2990
 8674TIP3    H147437   2.128   3.421   0.446  0.7334 -1.3990  0.0776
 8674TIP3    H247438   2.112   3.554   0.517 -0.4675 -0.8237 -1.2309
 8675TIP3   OH247439   0.688   4.563   0.392 -0.5115 -0.1159  0.4240
 8675TIP3    H147440   0.738   4.482   0.392  0.5280  0.5001  0.2123
 8675TIP3    H247441   0.652   4.570   0.480  2.3547  0.9185  1.6251
 8676TIP3   OH247442   0.115   4.244  12.624 -0.3025 -0.1508 -0.4337
 8676TIP3    H147443   0.116   4.340  12.634  0.3204 -0.2314  0.3986
 8676TIP3    H247444   0.023   4.220  12.636 -0.2670  0.2267  0.7650
 8677TIP3   OH247445   3.854   3.346  12.080 -0.2503  0.4648 -0.4446
 8677TIP3    H147446   3.909   3.362  12.003  1.0995  0.8833  0.5724
 8677TIP3    H247447   3.892   3.268  12.121 -1.2356 -0.0250 -0.4091
 8678TIP3   OH247448   3.269   3.785  14.410  0.0173 -0.1658  0.1852
 8678TIP3    H147449   3.349   3.814  14.454  0.6122  1.6718 -1.9447
 8678TIP3    H247450   3.282   3.808  14.318 -1.9710 -2.0705 -0.6621
 8679TIP3   OH247451   4.894   5.032   3.498  0.0005 -0.7687 -0.3491
 8679TIP3    H147452   4.858   5.115   3.467  0.1389 -0.1828  1.0052
 8679TIP3    H247453   4.961   5.056   3.561 -1.7017 -1.8569  2.0437
 8680TIP3   OH247454   0.893   6.556   3.053 -0.0528  0.0080 -0.0043
 8680TIP3    H147455   0.923   6.552   3.144  0.3620  1.4797 -0.0410
 8680TIP3    H247456   0.884   6.465   3.026  2.1841 -0.5023  0.7553
 8681TIP3   OH247457   1.294   6.392   3.541  0.0550 -0.1059  0.0175
 8681TIP3    H147458   1.347   6.316   3.564  2.5067  0.7352 -2.2950
 8681TIP3    H247459   1.280   6.383   3.447 -2.9908  0.3645  0.3380
 8682TIP3   OH247460   1.003   3.356   2.995  0.3286 -0.8699 -0.1566
 8682TIP3    H147461   1.050   3.280   2.959  0.2431 -1.6385  1.2872
 8682TIP3    H247462   0.975   3.405   2.918  0.6957 -2.1166 -1.1210
 8683TIP3   OH247463   4.934   6.594   3.008  0.3321  0.1232 -0.3424
 8683TIP3    H147464   4.958   6.513   2.962 -0.1972 -1.1124  1.4422
 8683TIP3    H247465   5.002   6.657   2.983  1.5974 -1.2968 -0.6543
 8684TIP3   OH247466   1.034   1.913  12.516  0.4265  0.2481 -0.2635
 8684TIP3    H147467   0.942   1.899  12.538  1.0629 -1.9234  1.4667
 8684TIP3    H247468   1.034   1.939  12.424 -1.8498 -0.5532 -0.5492
 8685TIP3   OH247469   5.953   3.212  14.275 -0.8771 -0.1655  0.1650
 8685TIP3    H147470   6.047   3.214  14.293 -0.6651 -2.7207 -0.2970
 8685TIP3    H247471   5.947   3.222  14.180 -1.1452  0.5692  0.2480
 8686TIP3   OH247472   0.590   5.608  12.729  0.0146  0.0299 -0.3244
 8686TIP3    H147473   0.500   5.585  12.705 -0.5183 -0.7047  2.1052
 8686TIP3    H247474   0.640   5.528  12.716 -0.6266 -0.9166  2.3937
 8687TIP3   OH247475   3.008   0.880  13.123 -0.2135  0.6931 -0.2113
 8687TIP3    H147476   2.986   0.787  13.127 -1.0388  0.9032  0.4948
 8687TIP3    H247477   3.103   0.883  13.125 -0.1880 -0.1242  0.0944
 8688TIP3   OH247478   6.138   2.337   0.142  0.2301  0.3329  0.2985
 8688TIP3    H147479   6.044   2.342   0.121  0.3682  0.7397 -0.2607
 8688TIP3    H247480   6.155   2.244   0.156 -0.2768  0.2680  0.4958
 8689TIP3   OH247481   0.658   2.435   3.473 -0.2093 -0.2198 -0.0641
 8689TIP3    H147482   0.667   2.373   3.399  2.2809  0.9544 -0.8787
 8689TIP3    H247483   0.736   2.491   3.466 -0.9964  1.2918  2.2457
 8690TIP3   OH247484   1.566   1.181  12.074 -0.0821 -0.3980  0.3764
 8690TIP3    H147485   1.619   1.232  12.013  2.0865  1.2274  3.3898
 8690TIP3    H247486   1.564   1.093  12.036  3.8840 -0.2721 -0.5246
 8691TIP3   OH247487   1.196   3.244  15.359  0.0778  0.2752  0.5948
 8691TIP3    H147488   1.164   3.334  15.347  1.8439  0.8068 -0.7106
 8691TIP3    H247489   1.287   3.255  15.388  1.3920 -0.9426 -2.5477
 8692TIP3   OH247490   3.339   2.566  10.835  0.0555 -0.3165 -0.0249
 8692TIP3    H147491   3.378   2.616  10.763 -0.4587 -2.1552 -1.6549
 8692TIP3    H247492   3.246   2.560  10.813 -0.0258 -1.3269  0.5405
 8693TIP3   OH247493   0.987   0.439  12.863 -0.9083  0.0849 -0.2203
 8693TIP3    H147494   0.923   0.472  12.926  0.7265  0.1971  1.4704
 8693TIP3    H247495   1.066   0.490  12.880 -0.1557 -0.4775 -1.8120
 8694TIP3   OH247496   3.648   3.701  16.174 -0.6578  0.4586 -0.0865
 8694TIP3    H147497   3.721   3.640  16.161  1.1805  2.6048 -0.4981
 8694TIP3    H247498   3.641   3.710  16.269  0.0877  0.7505 -0.0526
 8695TIP3   OH247499   5.549   0.690   1.774 -0.7106 -0.0308 -0.6436
 8695TIP3    H147500   5.511   0.670   1.859 -0.7129 -0.5539 -0.7675
 8695TIP3    H247501   5.644   0.692   1.789 -0.5183 -2.5176 -1.0904
 8696TIP3   OH247502   3.102   4.748   5.236 -0.3425 -0.1883 -0.0748
 8696TIP3    H147503   3.050   4.815   5.280  0.9767  0.8197 -0.0020
 8696TIP3    H247504   3.057   4.666   5.256 -1.2602  0.5294  0.9148
 8697TIP3   OH247505   3.535   6.743   3.056 -0.4274 -0.0147 -0.0068
 8697TIP3    H147506   3.440   6.748   3.047 -0.3286 -0.6845 -1.7801
 8697TIP3    H247507   3.555   6.797   3.133 -1.9691  2.4567 -1.2137
 8698TIP3   OH247508   5.070   3.759   2.093  0.4732  0.1837 -0.5892
 8698TIP3    H147509   5.134   3.702   2.051  2.1485 -0.5600  2.6798
 8698TIP3    H247510   5.006   3.699   2.132 -0.0825  0.7601 -0.5963
 8699TIP3   OH247511   2.672   4.939   1.035  0.3519 -0.4204  0.1640
 8699TIP3    H147512   2.659   4.941   0.940  1.1889  2.5677  0.0069
 8699TIP3    H247513   2.590   4.973   1.070  0.8026  0.5042  0.3458
 8700TIP3   OH247514   0.257   6.572  16.283  0.0039 -0.3002 -0.6287
 8700TIP3    H147515   0.317   6.646  16.292 -0.8600  0.2333  1.2844
 8700TIP3    H247516   0.176   6.602  16.324 -1.2607 -1.3771 -2.2162
 8701TIP3   OH247517   4.387   3.738  15.595  0.3577  0.3364 -0.1498
 8701TIP3    H147518   4.357   3.731  15.685  0.7242 -0.6695 -0.0913
 8701TIP3    H247519   4.337   3.671  15.548  0.1266  0.8862 -0.7148
 8702TIP3   OH247520   0.794   3.045   6.117 -0.3670  0.0582  0.3834
 8702TIP3    H147521   0.723   2.980   6.121 -2.1954  1.9802  0.7283
 8702TIP3    H247522   0.816   3.063   6.208  0.2394 -0.1669  0.2859
 8703TIP3   OH247523   6.383   1.198   3.841 -0.3517  0.5901 -0.4535
 8703TIP3    H147524   6.347   1.238   3.920 -2.4069 -1.5246 -0.1841
 8703TIP3    H247525   6.307   1.183   3.785  0.7643  0.0226 -1.8923
 8704TIP3   OH247526   5.562   3.052  15.694 -0.4575 -0.0646 -0.1769
 8704TIP3    H147527   5.563   3.139  15.734  0.0965 -0.3348  0.4274
 8704TIP3    H247528   5.486   3.009  15.732 -1.5306  0.6096 -1.5152
 8705TIP3   OH247529   1.641   0.256  16.116  0.2174 -0.0242 -0.2785
 8705TIP3    H147530   1.687   0.211  16.045 -1.5273 -0.1050 -1.3988
 8705TIP3    H247531   1.632   0.190  16.185  0.7773 -0.3233 -0.4864
 8706TIP3   OH247532   6.256   0.009   1.576  0.0177  0.1460 -0.7319
 8706TIP3    H147533   6.242  -0.074   1.620  0.1880  1.0431  1.1014
 8706TIP3    H247534   6.351   0.018   1.570  0.0564  0.9716  0.6792
 8707TIP3   OH247535   4.570   6.357   2.621 -0.5399  0.1691  0.8795
 8707TIP3    H147536   4.520   6.421   2.569 -0.3591 -0.1259  0.3346
 8707TIP3    H247537   4.662   6.377   2.601 -0.4868 -1.3465 -0.6783
 8708TIP3   OH247538   3.482   0.794   3.586  0.0378  0.4581  0.1824
 8708TIP3    H147539   3.438   0.868   3.628 -1.6760  0.8388 -2.1288
 8708TIP3    H247540   3.430   0.717   3.611 -0.2619  0.5195 -0.2478
 8709TIP3   OH247541   0.308   6.337  11.802 -0.1231 -0.3786 -0.4196
 8709TIP3    H147542   0.323   6.425  11.835  0.1997 -0.7488  0.4492
 8709TIP3    H247543   0.213   6.328  11.799 -0.1573 -0.0994 -0.2372
 8710TIP3   OH247544   6.469   5.234  11.495 -0.4331  0.7342 -0.0042
 8710TIP3    H147545   6.377   5.257  11.502 -0.8525 -1.0469  0.9745
 8710TIP3    H247546   6.492   5.199  11.582  0.8148 -0.0104 -0.5947
 8711TIP3   OH247547   6.302   0.172   4.660  0.2231  0.0790 -0.8546
 8711TIP3    H147548   6.246   0.128   4.724 -0.6209  1.5493 -0.5587
 8711TIP3    H247549   6.373   0.209   4.711 -0.3581  1.1035 -0.7640
 8712TIP3   OH247550   1.763   0.470   4.829  0.4114 -0.6222  0.4117
 8712TIP3    H147551   1.702   0.452   4.901 -1.7510  1.0265 -0.8401
 8712TIP3    H247552   1.782   0.564   4.838 -0.3775 -0.2472 -1.4320
 8713TIP3   OH247553   4.994   1.247   3.146  0.7170  0.1914 -0.0475
 8713TIP3    H147554   5.067   1.269   3.089  3.0987 -4.0485  0.9170
 8713TIP3    H247555   4.934   1.198   3.090  0.4796  0.4812 -0.0452
 8714TIP3   OH247556   3.144   6.487  13.115 -0.2414  1.0082  0.2508
 8714TIP3    H147557   3.150   6.434  13.036  2.0768 -1.0170  1.6442
 8714TIP3    H247558   3.107   6.429  13.181  1.0002  1.5092  1.4649
 8715TIP3   OH247559   6.420   5.721   2.556  0.1369 -0.0155 -0.7499
 8715TIP3    H147560   6.367   5.641   2.560  0.7502 -0.4184 -0.4967
 8715TIP3    H247561   6.357   5.792   2.561 -0.3164 -0.4857  0.5715
 8716TIP3   OH247562   1.735   5.101   1.101 -0.2109  0.2509 -0.0941
 8716TIP3    H147563   1.691   5.067   1.024 -0.3968 -1.6399  0.7964
 8716TIP3    H247564   1.671   5.092   1.172  0.9982 -1.0486  0.9000
 8717TIP3   OH247565   5.382   1.980  14.045  0.1115 -0.3475 -0.6159
 8717TIP3    H147566   5.352   1.916  14.110  0.9318 -0.0756  0.0514
 8717TIP3    H247567   5.431   2.045  14.096 -0.4229  0.6397 -1.3316
 8718TIP3   OH247568   4.019   2.193   5.114 -0.8670 -0.4191 -0.1057
 8718TIP3    H147569   3.995   2.284   5.095 -0.6580 -0.1090  0.9917
 8718TIP3    H247570   3.938   2.144   5.102 -1.1758  0.0471  0.0296
 8719TIP3   OH247571   3.248   1.671  13.971 -0.0263  0.6640  0.2748
 8719TIP3    H147572   3.283   1.744  13.920 -1.4313  0.2683 -1.3285
 8719TIP3    H247573   3.191   1.623  13.910  0.3141 -1.3920  1.4606
 8720TIP3   OH247574   2.963   1.079  16.928  0.0554 -0.1748  0.0162
 8720TIP3    H147575   3.041   1.046  16.971  0.0209  0.7967  0.8413
 8720TIP3    H247576   2.959   1.029  16.846  0.7708 -1.1999  0.5758
 8721TIP3   OH247577   1.303   3.644   4.036  0.2576 -0.3149 -0.1026
 8721TIP3    H147578   1.239   3.574   4.021 -0.0329 -0.1391  0.3101
 8721TIP3    H247579   1.295   3.665   4.129 -1.3504  1.8853 -0.6480
 8722TIP3   OH247580   2.272   0.543  15.489  0.5353  0.6096 -0.1851
 8722TIP3    H147581   2.249   0.583  15.405 -0.5581  0.7105  0.1575
 8722TIP3    H247582   2.301   0.617  15.543  0.8171  0.6052 -0.3289
 8723TIP3   OH247583   5.277   0.851   5.020  0.3639 -0.1064 -0.4941
 8723TIP3    H147584   5.246   0.933   4.982 -1.0467  0.1379  1.0424
 8723TIP3    H247585   5.277   0.867   5.114 -0.6749 -2.0606 -0.1055
 8724TIP3   OH247586   6.686   1.571   0.623 -0.2821  0.4654  0.1269
 8724TIP3    H147587   6.616   1.602   0.681  0.5114  0.9761  0.8349
 8724TIP3    H247588   6.642   1.557   0.538 -1.6245 -1.0932  1.0275
 8725TIP3   OH247589   5.605   4.267  16.959  0.0977  0.3362 -0.0069
 8725TIP3    H147590   5.642   4.286  17.045  1.3276  2.8001 -0.9713
 8725TIP3    H247591   5.666   4.204  16.920  1.3120  1.5572 -0.1740
 8726TIP3   OH247592   2.982   4.993   1.445  1.0162 -0.0223  0.0765
 8726TIP3    H147593   2.980   4.991   1.349 -1.4162  2.7132 -0.0645
 8726TIP3    H247594   2.915   4.930   1.472 -0.4713  1.3770 -0.2061
 8727TIP3   OH247595   4.504   5.373  16.413 -0.3522 -0.0800 -0.4782
 8727TIP3    H147596   4.566   5.323  16.361  0.9317 -0.3057  1.1953
 8727TIP3    H247597   4.532   5.464  16.402 -1.5452  0.1354 -2.0276
 8728TIP3   OH247598   4.397   0.257   4.371  0.1753 -0.5331  0.1634
 8728TIP3    H147599   4.411   0.351   4.363  1.6549 -0.8866 -2.5691
 8728TIP3    H247600   4.455   0.231   4.443 -0.1361  0.5908  0.8548
 8729TIP3   OH247601   3.461   5.963  14.365  0.3979  0.0960  0.5373
 8729TIP3    H147602   3.449   5.946  14.272 -0.0512  0.7436  0.4724
 8729TIP3    H247603   3.556   5.958  14.379  0.6401  1.7064 -0.3006
 8730TIP3   OH247604   3.843   1.806   2.286 -0.6427 -0.3511  0.1059
 8730TIP3    H147605   3.768   1.830   2.342 -1.0853 -1.1780 -0.1045
 8730TIP3    H247606   3.803   1.784   2.202 -0.2972 -1.8464  0.3021
 8731TIP3   OH247607   5.150   5.358   0.210 -0.3187 -0.1617  0.3060
 8731TIP3    H147608   5.198   5.369   0.292 -0.2988 -0.1523  0.2930
 8731TIP3    H247609   5.214   5.378   0.142 -0.3164 -0.2341  0.2862
 8732TIP3   OH247610   1.039   1.263  13.345 -0.1026 -0.1283  0.9111
 8732TIP3    H147611   1.076   1.216  13.271  0.4500  2.4657 -0.5997
 8732TIP3    H247612   1.109   1.267  13.410  0.3007 -0.1877  0.4772
 8733TIP3   OH247613   3.307   6.243   5.024 -0.1501 -0.6823  0.3093
 8733TIP3    H147614   3.251   6.273   4.952 -3.2311 -0.0784  2.7923
 8733TIP3    H247615   3.272   6.157   5.047  1.5714 -1.4000  0.3684
 8734TIP3   OH247616   3.583   1.696  17.144  0.4076  0.5663 -0.2592
 8734TIP3    H147617   3.514   1.761  17.162 -0.2746  0.4011 -2.0451
 8734TIP3    H247618   3.580   1.637  17.220 -1.7970  0.2666 -0.5010
 8735TIP3   OH247619   4.054   0.979  12.872 -0.2147  0.4273 -0.5448
 8735TIP3    H147620   4.122   1.006  12.811  0.1360 -0.3543 -0.5091
 8735TIP3    H247621   3.999   0.919  12.822  0.7023 -1.0785  0.1917
 8736TIP3   OH247622   2.609   1.485  16.603  0.0726 -0.1156  0.4398
 8736TIP3    H147623   2.518   1.518  16.601 -0.0014 -0.2516  1.3472
 8736TIP3    H247624   2.653   1.542  16.666  0.1083 -1.3209  1.5427
 8737TIP3   OH247625   6.770   5.241  12.716 -0.1507  0.2034  0.3915
 8737TIP3    H147626   6.730   5.300  12.780 -1.4929 -1.0352  0.7642
 8737TIP3    H247627   6.803   5.168  12.769  4.0081  1.7242  0.2963
 8738TIP3   OH247628   4.220   2.744  16.484  0.2884 -0.8736 -0.2452
 8738TIP3    H147629   4.297   2.790  16.452 -0.8766  0.9255 -0.5706
 8738TIP3    H247630   4.149   2.772  16.426 -0.5553 -2.8288 -0.2389
 8739TIP3   OH247631   3.068   5.479   3.361  0.2143 -0.4128  0.2633
 8739TIP3    H147632   3.085   5.563   3.317 -1.0762 -0.1842  0.1712
 8739TIP3    H247633   3.111   5.487   3.446 -1.9731  1.3654  1.3001
 8740TIP3   OH247634   5.864   4.377   5.144  0.7404 -0.2048  0.2108
 8740TIP3    H147635   5.841   4.284   5.138 -0.1029  0.0550 -1.2715
 8740TIP3    H247636   5.956   4.381   5.120  0.2442 -0.4861 -2.0367
 8741TIP3   OH247637   6.105   4.140   3.285  0.1806 -0.1141  0.0438
 8741TIP3    H147638   6.146   4.195   3.351  1.7322 -1.1974  0.0304
 8741TIP3    H247639   6.063   4.201   3.225 -0.1838  0.9304  1.3205
 8742TIP3   OH247640   2.298   3.288   6.082  0.0587 -0.3540 -0.1616
 8742TIP3    H147641   2.203   3.288   6.092 -0.1423  0.4224 -1.7486
 8742TIP3    H247642   2.332   3.295   6.171 -1.3778 -0.2622  0.3960
 8743TIP3   OH247643   4.398   1.505   2.691 -0.5211 -0.0116  0.1032
 8743TIP3    H147644   4.476   1.449   2.686  0.3605  1.1573  0.3006
 8743TIP3    H247645   4.397   1.536   2.781 -1.9852 -1.0392  0.4704
 8744TIP3   OH247646   4.204   4.251   5.254 -0.6045  0.6701  1.1161
 8744TIP3    H147647   4.261   4.239   5.330  1.4323  0.0337 -0.4089
 8744TIP3    H247648   4.166   4.164   5.238 -0.9050  0.7656  1.3021
 8745TIP3   OH247649   0.518   5.522  13.641  0.3260 -0.3768 -0.5794
 8745TIP3    H147650   0.445   5.477  13.684 -0.6575  0.8199 -0.9359
 8745TIP3    H247651   0.499   5.515  13.547  0.3764  0.3727 -0.6560
 8746TIP3   OH247652   2.640   6.031   4.868 -0.0495 -0.2372 -0.1306
 8746TIP3    H147653   2.668   6.093   4.935 -1.3776 -0.7695  0.9786
 8746TIP3    H247654   2.638   5.946   4.913 -1.6764 -0.4872 -0.6022
 8747TIP3   OH247655   0.846   5.240  10.707 -0.6364 -0.3592  0.0269
 8747TIP3    H147656   0.762   5.223  10.664 -0.2405  1.1980 -1.4837
 8747TIP3    H247657   0.873   5.326  10.675  1.1669 -0.4557  1.1045
 8748TIP3   OH247658   5.390   2.433  16.729 -0.0345 -0.1921  0.1309
 8748TIP3    H147659   5.459   2.469  16.674  1.7612 -3.5647 -0.1093
 8748TIP3    H247660   5.386   2.492  16.804  1.3534  1.4666 -1.0307
 8749TIP3   OH247661   1.865   0.078  13.775 -0.3245 -0.0647 -0.3638
 8749TIP3    H147662   1.885  -0.009  13.740 -0.2253 -0.3291  0.3367
 8749TIP3    H247663   1.915   0.138  13.720  1.2139 -0.6065  0.4062
 8750TIP3   OH247664   3.207   1.694   5.305  0.1756 -0.0156 -0.1755
 8750TIP3    H147665   3.143   1.658   5.244 -1.8013  2.7077  0.1099
 8750TIP3    H247666   3.167   1.684   5.391  0.3533  1.1976  0.0735
 8751TIP3   OH247667   3.367   6.283  13.173 -0.3011  0.7753  0.1451
 8751TIP3    H147668   3.389   6.237  13.092 -1.7024  0.1940  0.0640
 8751TIP3    H247669   3.420   6.362  13.171  1.3078 -0.2626 -0.2851
 8752TIP3   OH247670   3.242   6.009  15.909 -0.5141  0.2849  0.4228
 8752TIP3    H147671   3.183   6.036  15.980 -0.8671  0.8321 -0.0673
 8752TIP3    H247672   3.189   6.018  15.830  0.4438  1.5111 -0.1125
 8753TIP3   OH247673   6.448   6.229   6.462 -0.0037 -0.1516  0.0776
 8753TIP3    H147674   6.521   6.204   6.519 -0.1193 -2.3337 -0.6262
 8753TIP3    H247675   6.379   6.259   6.522  0.1998 -1.5233  1.0357
 8754TIP3   OH247676   2.293   5.893   0.356 -0.6196 -0.1239 -0.7199
 8754TIP3    H147677   2.330   5.849   0.279 -0.4346  1.5774 -1.6633
 8754TIP3    H247678   2.328   5.982   0.352  0.5177 -0.3271  2.1297
 8755TIP3   OH247679   1.675   6.109  13.714 -0.2951  0.1616  0.1699
 8755TIP3    H147680   1.665   6.203  13.700 -1.3086 -0.0316 -0.4954
 8755TIP3    H247681   1.618   6.069  13.648  0.1107 -0.9165  0.4616
 8756TIP3   OH247682   1.324   1.426  12.748  0.2144  0.2932 -0.1337
 8756TIP3    H147683   1.316   1.502  12.692 -0.5440 -0.6270 -1.3125
 8756TIP3    H247684   1.253   1.435  12.812 -0.1360  0.3673 -0.5309
 8757TIP3   OH247685   1.938   1.129   1.724 -0.6419 -0.5069  0.0956
 8757TIP3    H147686   1.987   1.067   1.778  1.3833 -0.8278 -2.0084
 8757TIP3    H247687   1.930   1.087   1.639 -0.8181  1.3779 -0.8760
 8758TIP3   OH247688   6.489   1.348   5.656  0.2721 -0.0328  0.6603
 8758TIP3    H147689   6.423   1.352   5.725  0.0621 -1.3054  0.5666
 8758TIP3    H247690   6.564   1.304   5.696  0.5218  0.1030  0.3522
 8759TIP3   OH247691   1.263   6.267  14.031  0.0829 -0.0995  0.9035
 8759TIP3    H147692   1.266   6.262  14.127 -0.9817  0.1309  0.9578
 8759TIP3    H247693   1.333   6.327  14.008  1.0350 -0.9612  1.4651
 8760TIP3   OH247694   0.333   0.299   6.182 -0.1392 -0.5066  0.7115
 8760TIP3    H147695   0.390   0.222   6.192  0.1662 -0.2366  1.1085
 8760TIP3    H247696   0.271   0.274   6.115  2.7751  0.5424 -2.6799
 8761TIP3   OH247697   6.301   1.188  15.409  0.0970 -0.3352  0.5850
 8761TIP3    H147698   6.255   1.226  15.334 -0.7634 -1.7071  0.3921
 8761TIP3    H247699   6.294   1.256  15.477 -0.1323  0.4431 -0.1909
 8762TIP3   OH247700   5.822   0.707  11.335  0.2950  0.1951 -0.0494
 8762TIP3    H147701   5.817   0.793  11.294  2.0471  1.7234  2.5926
 8762TIP3    H247702   5.735   0.692  11.372 -0.5338 -0.0423 -2.0042
 8763TIP3   OH247703   6.686   5.285   5.898  0.0117 -0.2326 -0.3689
 8763TIP3    H147704   6.621   5.356   5.901 -0.9319 -1.0802 -0.1009
 8763TIP3    H247705   6.764   5.322   5.937 -1.0602  0.0809  1.5923
 8764TIP3   OH247706   4.183   2.040  16.726  0.1805 -0.6972  0.3513
 8764TIP3    H147707   4.179   1.945  16.713 -0.3806 -0.7897  1.1115
 8764TIP3    H247708   4.126   2.056  16.801 -1.2204  0.4837 -0.9128
 8765TIP3   OH247709   4.605   6.117   2.899  0.4497 -0.1941 -0.1035
 8765TIP3    H147710   4.536   6.177   2.870 -1.4408 -1.3282  1.7201
 8765TIP3    H247711   4.639   6.157   2.979  3.5318  1.4205 -2.0311
 8766TIP3   OH247712   0.173   3.134   1.683 -0.1777 -0.0288  0.0127
 8766TIP3    H147713   0.118   3.075   1.631 -0.2834 -0.4961  0.6391
 8766TIP3    H247714   0.232   3.075   1.730  0.6731  0.4530 -0.4330
 8767TIP3   OH247715   2.836   3.299  11.043  0.1442 -0.2416 -0.0604
 8767TIP3    H147716   2.857   3.260  10.958  2.1588 -3.3261  1.6821
 8767TIP3    H247717   2.839   3.226  11.105 -2.4654  1.6496  2.5738
 8768TIP3   OH247718   5.813   2.859  11.676  0.0216  0.1702  0.3556
 8768TIP3    H147719   5.773   2.935  11.720 -0.1523  0.8242 -0.8791
 8768TIP3    H247720   5.760   2.847  11.597  0.0965 -1.2098  0.4875
 8769TIP3   OH247721   6.711   4.027   2.358 -0.2250 -0.0851  0.0902
 8769TIP3    H147722   6.743   3.988   2.440 -0.6139  3.4436  2.1112
 8769TIP3    H247723   6.790   4.043   2.306  0.3538  0.2470  1.0550
 8770TIP3   OH247724   3.778   5.020  15.650  0.2745 -0.0361 -0.0266
 8770TIP3    H147725   3.706   4.960  15.671  0.1889  0.1123  0.0985
 8770TIP3    H247726   3.856   4.977  15.685  0.2560 -0.2272 -0.2185
 8771TIP3   OH247727   2.552   4.825   4.649  0.3228  0.2566  0.2984
 8771TIP3    H147728   2.554   4.881   4.571  0.1878  1.2347  0.9710
 8771TIP3    H247729   2.469   4.847   4.691 -0.1888 -1.1695  0.0917
 8772TIP3   OH247730   2.768   3.335  13.012 -0.3941  0.1112  0.5616
 8772TIP3    H147731   2.746   3.273  13.081 -1.0589 -0.1461  0.1338
 8772TIP3    H247732   2.785   3.418  13.058  2.9149 -0.8840  1.3915
 8773TIP3   OH247733   0.249   2.906   0.177  0.1253 -0.2456 -0.3313
 8773TIP3    H147734   0.247   2.936   0.086 -1.2105  0.7095 -0.0334
 8773TIP3    H247735   0.342   2.902   0.200  0.4639 -0.2949 -1.6671
 8774TIP3   OH247736   4.822   5.093   0.188 -0.3745 -0.1853 -0.2328
 8774TIP3    H147737   4.814   5.119   0.096 -1.7145 -1.2617 -0.4537
 8774TIP3    H247738   4.732   5.093   0.221  0.1699  1.3942  1.4627
 8775TIP3   OH247739   5.644   5.411   6.040  0.1328 -0.5887  0.0474
 8775TIP3    H147740   5.713   5.445   6.097 -1.7172  2.9748  0.4727
 8775TIP3    H247741   5.607   5.337   6.088  2.9506 -2.0143  0.1968
 8776TIP3   OH247742   3.389   5.903   0.885 -0.5159  0.3554 -0.0334
 8776TIP3    H147743   3.435   5.820   0.898  0.1393  0.5572 -0.9454
 8776TIP3    H247744   3.306   5.892   0.931 -0.0960 -0.5015  0.5462
 8777TIP3   OH247745   3.075   1.433  14.533 -0.5590 -0.2074  0.0942
 8777TIP3    H147746   3.077   1.338  14.546 -2.2660 -0.3258 -0.2163
 8777TIP3    H247747   3.132   1.448  14.458  1.5276 -0.6820  1.5109
 8778TIP3   OH247748   1.361   4.104   0.905  0.3535  0.0948  0.5206
 8778TIP3    H147749   1.288   4.149   0.949 -0.9627 -1.8376  0.4075
 8778TIP3    H247750   1.345   4.117   0.812  0.4171  0.0455  0.5024
 8779TIP3   OH247751   5.859   1.485  12.497 -0.1761 -0.2072 -0.4607
 8779TIP3    H147752   5.888   1.536  12.572  1.0587 -1.2678 -0.1701
 8779TIP3    H247753   5.860   1.546  12.424 -0.2242  0.5428  0.1590
 8780TIP3   OH247754   1.940   1.398  13.082 -0.3601 -0.3407  0.5081
 8780TIP3    H147755   1.866   1.337  13.075 -1.2619  0.5033  2.0253
 8780TIP3    H247756   1.916   1.472  13.026  0.9719 -1.4960 -1.7533
 8781TIP3   OH247757   0.814   4.525  10.967  0.0492 -0.0667 -0.5403
 8781TIP3    H147758   0.781   4.549  10.880 -1.4085  1.1193  0.2884
 8781TIP3    H247759   0.740   4.481  11.008  0.9078 -1.0919 -0.0650
 8782TIP3   OH247760   0.816   2.925  14.527  0.1287  0.0029  0.0050
 8782TIP3    H147761   0.739   2.939  14.582  1.0083 -1.9752  1.8804
 8782TIP3    H247762   0.886   2.973  14.570  0.4156  0.0163 -0.4644
 8783TIP3   OH247763   4.786   5.684  11.506  0.2087 -0.3716 -0.3622
 8783TIP3    H147764   4.857   5.672  11.444 -0.2958 -0.4177 -0.9358
 8783TIP3    H247765   4.716   5.725  11.456  0.7176  2.0882  0.7756
 8784TIP3   OH247766   1.605   4.306   0.636  0.5026 -0.7280  0.3771
 8784TIP3    H147767   1.599   4.393   0.597  0.5045 -0.7670  0.2912
 8784TIP3    H247768   1.699   4.288   0.639  0.4506 -2.0917 -2.6162
 8785TIP3   OH247769   1.409   2.081   2.285 -0.5295 -0.4442 -0.1141
 8785TIP3    H147770   1.394   2.096   2.378 -1.7848  1.4290 -0.5548
 8785TIP3    H247771   1.504   2.086   2.274 -0.0078 -3.9608  1.4874
 8786TIP3   OH247772   6.229   5.395  12.659  0.4395  0.0747 -0.5137
 8786TIP3    H147773   6.224   5.486  12.688 -0.1594  0.2215 -1.0616
 8786TIP3    H247774   6.315   5.388  12.618  0.5862  0.3275 -0.2541
 8787TIP3   OH247775   0.962   0.796  11.985  0.2721 -0.2022  0.3152
 8787TIP3    H147776   1.057   0.786  11.989  0.2448 -1.9053 -1.5085
 8787TIP3    H247777   0.930   0.749  12.062  0.8559 -1.1446 -0.0004
 8788TIP3   OH247778   0.238   3.048   3.553  0.0754 -0.0691  0.3110
 8788TIP3    H147779   0.273   2.975   3.602  0.9330  0.6371  0.7765
 8788TIP3    H247780   0.146   3.052   3.578 -0.2605 -1.6186 -0.5324
 8789TIP3   OH247781   5.788   4.327   5.647 -0.0137 -0.2192  0.2363
 8789TIP3    H147782   5.728   4.317   5.573  0.9734  0.1548 -0.6458
 8789TIP3    H247783   5.812   4.237   5.670  1.2037 -0.3185 -1.2284
 8790TIP3   OH247784   0.863   1.393  13.068 -0.3337 -0.2631 -0.4515
 8790TIP3    H147785   0.905   1.358  13.147 -1.0545  0.0389  0.0770
 8790TIP3    H247786   0.878   1.326  13.001  1.7120  0.1844 -0.5306
 8791TIP3   OH247787   6.474   0.228   3.514 -0.3961 -0.2860  0.2681
 8791TIP3    H147788   6.390   0.235   3.467 -1.3797  1.4062  2.1251
 8791TIP3    H247789   6.539   0.249   3.447 -1.5087 -0.7150 -1.0104
 8792TIP3   OH247790   2.415   1.735  14.874  0.3791 -0.0031  0.6285
 8792TIP3    H147791   2.399   1.771  14.787 -0.4159  0.9189  1.1373
 8792TIP3    H247792   2.331   1.740  14.918  0.5476 -1.3699  1.1412
 8793TIP3   OH247793   2.843   1.891  16.141 -0.4776 -0.3235  0.1726
 8793TIP3    H147794   2.800   1.976  16.142  0.3810  0.1328 -0.1634
 8793TIP3    H247795   2.814   1.850  16.060  0.0532  0.1669 -0.2725
 8794TIP3   OH247796   0.399   0.874   3.511  0.1230  0.3509 -0.5577
 8794TIP3    H147797   0.411   0.779   3.511  1.2673  0.4351  1.4807
 8794TIP3    H247798   0.325   0.888   3.570 -0.7245  0.6992 -1.6719
 8795TIP3   OH247799   4.353   3.702  16.957  0.2435  0.4373 -0.2989
 8795TIP3    H147800   4.440   3.723  16.991  0.5123  0.2634 -0.8630
 8795TIP3    H247801   4.324   3.781  16.913  0.3067  0.3489 -0.5003
 8796TIP3   OH247802   0.675   0.549  13.804  0.3859  0.0223  0.3665
 8796TIP3    H147803   0.712   0.487  13.741  2.4368  0.6987  0.8366
 8796TIP3    H247804   0.658   0.628  13.753 -0.2044 -0.2115  0.1965
 8797TIP3   OH247805   4.008   6.690  10.616 -0.6286 -0.0576 -0.0217
 8797TIP3    H147806   4.094   6.693  10.657 -0.1191 -1.4564 -0.8974
 8797TIP3    H247807   3.956   6.635  10.674 -0.4215 -0.5907 -0.3297
 8798TIP3   OH247808   3.531   1.876  14.903  0.3087 -0.7013 -0.2560
 8798TIP3    H147809   3.454   1.830  14.938  0.1997 -0.8408 -0.6812
 8798TIP3    H247810   3.514   1.968  14.925  0.9031 -0.9209  1.3000
 8799TIP3   OH247811   6.002   0.804   3.344 -0.6232 -0.0326  0.1145
 8799TIP3    H147812   5.999   0.750   3.423  0.9164 -1.4964 -0.7814
 8799TIP3    H247813   5.910   0.814   3.319 -1.0883 -0.1804  1.6431
 8800TIP3   OH247814   3.544   4.998   5.681  0.4471  0.1505 -0.7044
 8800TIP3    H147815   3.567   4.946   5.758  2.3983  1.9659  0.0479
 8800TIP3    H247816   3.476   5.058   5.711  0.8818  0.5445 -0.4796
 8801TIP3   OH247817   4.553   0.336  16.607 -0.0645 -0.1941  0.4104
 8801TIP3    H147818   4.559   0.431  16.610 -2.0805 -0.0402  0.8653
 8801TIP3    H247819   4.578   0.307  16.695  0.5253 -0.1128  0.2787
 8802TIP3   OH247820   0.950   5.363  17.034  0.2638 -0.3364 -0.5669
 8802TIP3    H147821   1.029   5.342  16.984 -0.3949 -1.5116 -1.1764
 8802TIP3    H247822   0.909   5.435  16.986  0.6908 -0.0949 -0.5651
 8803TIP3   OH247823   0.291   2.934   5.343  0.4257  0.1698 -0.4157
 8803TIP3    H147824   0.198   2.913   5.349  0.4504 -0.3008 -1.5728
 8803TIP3    H247825   0.329   2.898   5.423 -0.3820  0.3808  0.0723
 8804TIP3   OH247826   6.436   3.189   0.114  0.4194  0.3214 -0.2030
 8804TIP3    H147827   6.372   3.170   0.046  0.0345  2.0364 -0.3597
 8804TIP3    H247828   6.384   3.212   0.191  0.7946  1.6582 -0.3076
 8805TIP3   OH247829   1.769   3.028   1.535 -0.5210 -0.6563  0.3303
 8805TIP3    H147830   1.708   3.023   1.462  0.0093 -0.8325 -0.1132
 8805TIP3    H247831   1.833   2.959   1.517 -0.4275 -0.7460  1.0033
 8806TIP3   OH247832   1.314   4.992   6.263  0.9388  0.2331  0.3103
 8806TIP3    H147833   1.292   4.903   6.291 -0.9036  0.4187 -0.4025
 8806TIP3    H247834   1.362   5.029   6.337 -2.0277  0.0485  2.5262
 8807TIP3   OH247835   2.659   1.146  11.738  0.4853 -1.0758 -0.2242
 8807TIP3    H147836   2.672   1.109  11.825  0.9414 -1.4584 -0.4516
 8807TIP3    H247837   2.598   1.086  11.695  0.1098 -0.7822 -0.1033
 8808TIP3   OH247838   2.363   2.864  13.624  0.0240 -0.1677 -0.4756
 8808TIP3    H147839   2.320   2.858  13.709  0.1256 -0.8060 -0.4658
 8808TIP3    H247840   2.313   2.929  13.575  0.9379  1.4530  0.6516
 8809TIP3   OH247841   4.630   5.492  14.336  0.0369  0.3353  0.0254
 8809TIP3    H147842   4.581   5.439  14.399  2.5963 -1.8923  0.3173
 8809TIP3    H247843   4.617   5.447  14.252 -0.5433  1.3089 -0.4354
 8810TIP3   OH247844   3.638   5.737  10.740  0.6531 -0.3429  0.0721
 8810TIP3    H147845   3.610   5.751  10.830  1.4678 -1.1505  0.4650
 8810TIP3    H247846   3.709   5.801  10.727 -1.0495  1.4750 -0.8168
 8811TIP3   OH247847   3.200   6.101  11.268  0.1308 -0.3339 -0.2003
 8811TIP3    H147848   3.167   6.188  11.291  2.0901 -0.2628  2.8360
 8811TIP3    H247849   3.145   6.074  11.194 -2.5287  2.2015  0.6535
 8812TIP3   OH247850   4.742   5.716  13.212  0.2546  0.0849 -0.3659
 8812TIP3    H147851   4.668   5.687  13.265 -0.1456 -0.4604 -1.2063
 8812TIP3    H247852   4.739   5.812  13.218  0.8720  0.0354  1.4517
 8813TIP3   OH247853   1.693   4.905   1.296  0.3918  0.4114  0.2292
 8813TIP3    H147854   1.770   4.960   1.314  0.4037  0.0357  1.4046
 8813TIP3    H247855   1.705   4.876   1.206  1.3042  0.8818  0.1885
 8814TIP3   OH247856   5.787   6.356  14.222  0.3913 -0.3711 -0.0400
 8814TIP3    H147857   5.732   6.350  14.301  0.3913 -0.7679 -0.0701
 8814TIP3    H247858   5.768   6.442  14.186  1.0329  0.1742  0.8717
 8815TIP3   OH247859   0.673   5.660  13.006  0.7738 -0.4497 -0.2189
 8815TIP3    H147860   0.630   5.610  12.936  0.8361  0.7687 -1.1708
 8815TIP3    H247861   0.757   5.686  12.968  0.3765  1.1143 -0.1000
 8816TIP3   OH247862   1.897   0.361  13.653  0.3528  0.5999  0.3246
 8816TIP3    H147863   1.958   0.358  13.727 -0.1377  0.0163  0.7095
 8816TIP3    H247864   1.821   0.409  13.686 -0.0028  0.0554  0.3068
 8817TIP3   OH247865   4.561   2.179  13.476 -0.5571 -0.1492 -0.6008
 8817TIP3    H147866   4.474   2.195  13.441 -1.6620  1.6832  2.5548
 8817TIP3    H247867   4.547   2.159  13.568  2.2831 -1.6016 -0.3794
 8818TIP3   OH247868   2.469   3.278   0.931  0.2086 -0.1936 -0.2209
 8818TIP3    H147869   2.430   3.215   0.991  0.5651  0.7983  1.0952
 8818TIP3    H247870   2.395   3.313   0.881 -0.2932 -0.0973  0.5590
 8819TIP3   OH247871   1.525   3.269   5.131 -0.0847  0.2123 -0.3855
 8819TIP3    H147872   1.540   3.219   5.211  2.6062  1.0539 -0.2716
 8819TIP3    H247873   1.460   3.335   5.156 -1.0306 -0.9865  0.4171
 8820TIP3   OH247874   2.228   2.257   2.431 -0.0373 -0.0655 -0.2364
 8820TIP3    H147875   2.176   2.247   2.511  3.1790  1.3508  2.2832
 8820TIP3    H247876   2.195   2.338   2.392 -0.5580  0.1447  0.6012
 8821TIP3   OH247877   4.527   5.362  14.860  0.3471  0.1722 -0.5418
 8821TIP3    H147878   4.586   5.370  14.935 -0.9065 -0.1619  0.5222
 8821TIP3    H247879   4.581   5.385  14.784  1.4806  1.1622  0.5245
 8822TIP3   OH247880   5.602   3.473   5.483 -0.2168 -0.4948  0.1121
 8822TIP3    H147881   5.626   3.485   5.575  1.7238 -0.8877 -0.3143
 8822TIP3    H247882   5.597   3.562   5.448  1.3871 -0.3947  0.0609
 8823TIP3   OH247883   3.093   5.522  12.927  0.0084 -0.5152 -0.1401
 8823TIP3    H147884   3.058   5.541  13.014 -0.6666  0.4265 -0.6011
 8823TIP3    H247885   3.070   5.430  12.911  1.0006 -1.0108  1.0534
 8824TIP3   OH247886   2.010   1.473  12.031 -0.3667 -0.0007  0.0736
 8824TIP3    H147887   2.003   1.399  11.970  0.1240 -0.4671  0.5776
 8824TIP3    H247888   2.005   1.550  11.974 -0.8714 -0.4106 -0.4606
 8825TIP3   OH247889   0.311   1.174   0.168 -0.6803  0.2470 -1.2253
 8825TIP3    H147890   0.280   1.256   0.129 -0.5871  0.9603  0.1238
 8825TIP3    H247891   0.374   1.202   0.235 -0.5837 -0.9308 -0.7998
 8826TIP3   OH247892   0.894   6.716   0.095  0.0197 -0.4950 -0.3356
 8826TIP3    H147893   0.851   6.635   0.123 -0.8588 -0.5307 -1.7418
 8826TIP3    H247894   0.953   6.737   0.168 -0.2657 -1.9936  0.3741
 8827TIP3   OH247895   1.855   5.477   5.007 -0.2598 -0.1152 -0.3939
 8827TIP3    H147896   1.879   5.465   4.915 -0.4513 -1.4619 -0.2992
 8827TIP3    H247897   1.828   5.389   5.035  0.7983  0.0517  1.2368
 8828TIP3   OH247898   0.556   6.488   0.003 -0.0581 -0.0828 -0.2022
 8828TIP3    H147899   0.642   6.485   0.045  0.1092 -0.1677 -0.5486
 8828TIP3    H247900   0.549   6.407  -0.046 -0.9962 -0.8159  1.0821
 8829TIP3   OH247901   1.482   3.940   3.701 -0.0379  0.0350 -0.1102
 8829TIP3    H147902   1.574   3.964   3.688 -0.0833  0.8587  0.9536
 8829TIP3    H247903   1.437   4.024   3.712 -1.0043 -0.3290 -1.0704
 8830TIP3   OH247904   4.763   5.867   4.983 -0.4315 -0.8403 -0.1205
 8830TIP3    H147905   4.811   5.946   5.008  1.2910 -1.9849  0.3828
 8830TIP3    H247906   4.717   5.841   5.063 -0.5020 -0.6884 -0.1120
 8831TIP3   OH247907   3.792   2.505   3.917  0.3071  0.5713  0.2046
 8831TIP3    H147908   3.884   2.492   3.896  0.3230  0.4342  0.3570
 8831TIP3    H247909   3.762   2.421   3.950 -0.2153  0.2385 -1.0675
 8832TIP3   OH247910   2.584   0.508  11.964  0.1495 -0.2336 -0.3176
 8832TIP3    H147911   2.504   0.528  11.915  1.0476 -0.0958 -1.8049
 8832TIP3    H247912   2.621   0.431  11.919  1.4219  0.3902 -0.3785
 8833TIP3   OH247913   1.661   0.424   3.298  0.0715  0.2088 -0.4186
 8833TIP3    H147914   1.683   0.487   3.230  2.4869 -0.2141 -0.1167
 8833TIP3    H247915   1.633   0.346   3.251  1.5703 -0.0300 -0.9703
 8834TIP3   OH247916   5.927   1.043   2.082 -0.0011 -0.5422 -0.2291
 8834TIP3    H147917   6.016   1.016   2.060 -0.0905 -1.4593  0.4577
 8834TIP3    H247918   5.875   0.962   2.073 -0.8176  0.0307 -0.8576
 8835TIP3   OH247919   3.563   4.837   2.603 -0.8190  0.0252 -0.5383
 8835TIP3    H147920   3.503   4.900   2.641 -0.1040  0.6923 -0.4910
 8835TIP3    H247921   3.531   4.752   2.633 -1.9204  0.3404 -0.7823
 8836TIP3   OH247922   5.051   3.604  13.712  0.0827 -0.3295 -0.1771
 8836TIP3    H147923   5.146   3.618  13.714  0.0866 -0.4206  0.4109
 8836TIP3    H247924   5.026   3.591  13.803 -0.2655 -1.8761 -0.4609
 8837TIP3   OH247925   1.467   3.045   0.553  0.0941 -0.5728 -0.7463
 8837TIP3    H147926   1.538   3.104   0.576 -2.6093  3.5360 -1.8385
 8837TIP3    H247927   1.500   2.998   0.476  1.6941  1.1243 -1.1778
 8838TIP3   OH247928   2.511   2.180   5.477 -0.1111  0.1841 -0.5335
 8838TIP3    H147929   2.460   2.135   5.410  0.0677 -3.0193  1.2468
 8838TIP3    H247930   2.452   2.185   5.553  1.4212 -1.8682  0.9399
 8839TIP3   OH247931   6.324   0.786   6.075  0.3456  0.0901 -0.0151
 8839TIP3    H147932   6.352   0.854   6.137 -1.2267  0.4286  0.3684
 8839TIP3    H247933   6.394   0.721   6.078  0.6115  0.4083  1.6514
 8840TIP3   OH247934   2.492   0.221   3.785  0.2260  0.3588 -0.2069
 8840TIP3    H147935   2.463   0.153   3.724 -1.1317  0.8347 -0.1256
 8840TIP3    H247936   2.482   0.303   3.737  1.2646  0.5579 -0.0954
 8841TIP3   OH247937   1.474   4.416  12.876  0.6682 -0.6162  0.8766
 8841TIP3    H147938   1.380   4.397  12.869  0.3543  0.9451  0.3414
 8841TIP3    H247939   1.478   4.504  12.914  1.8558 -0.0520 -0.4566
 8842TIP3   OH247940   3.357   2.587  16.507 -0.3895 -0.4999  0.3121
 8842TIP3    H147941   3.390   2.664  16.555  0.2142  0.6841 -1.8809
 8842TIP3    H247942   3.430   2.525  16.509 -0.4231 -0.5250  1.0276
 8843TIP3   OH247943   3.480   1.615  10.789 -0.2708 -0.1564  0.1358
 8843TIP3    H147944   3.556   1.672  10.803 -0.3607 -0.5109  2.6097
 8843TIP3    H247945   3.405   1.670  10.808 -0.4946 -0.4367  0.0643
 8844TIP3   OH247946   0.488   3.775   6.439 -0.0785 -0.0903  0.0580
 8844TIP3    H147947   0.418   3.836   6.413 -0.0419 -0.8687 -2.1072
 8844TIP3    H247948   0.562   3.799   6.384  0.5860 -0.7861  0.6383
 8845TIP3   OH247949   2.443   5.735   4.638  0.2413 -0.0413 -0.4627
 8845TIP3    H147950   2.429   5.641   4.635 -0.2055  0.0586 -2.0241
 8845TIP3    H247951   2.509   5.752   4.571 -0.2775  0.8454 -0.7642
 8846TIP3   OH247952   2.639   1.254   4.416 -0.1734  0.5610  0.0539
 8846TIP3    H147953   2.701   1.185   4.392  0.8092  1.8030 -1.1854
 8846TIP3    H247954   2.694   1.326   4.447 -1.0086  1.4994 -0.5659
 8847TIP3   OH247955   4.504   3.530   2.162 -0.0314 -0.0682  0.0343
 8847TIP3    H147956   4.519   3.488   2.247 -0.8780 -1.3189 -0.4160
 8847TIP3    H247957   4.456   3.610   2.184  2.1742  1.0834  0.9554
 8848TIP3   OH247958   1.115   3.810   1.678  0.1693  0.0456  0.4711
 8848TIP3    H147959   1.103   3.784   1.769  0.9424 -0.7210  0.3636
 8848TIP3    H247960   1.203   3.848   1.675  0.6238 -0.9913 -0.1666
 8849TIP3   OH247961   4.040   1.512   0.966  0.3957  0.0456  0.5447
 8849TIP3    H147962   4.116   1.463   0.998  1.4240  1.6222  0.6141
 8849TIP3    H247963   3.992   1.449   0.912  2.2744 -0.7363 -0.3038
 8850TIP3   OH247964   2.906   0.833  13.607 -0.1419  0.2665 -0.4224
 8850TIP3    H147965   2.916   0.892  13.532 -0.8791  0.2515 -0.5385
 8850TIP3    H247966   2.923   0.889  13.683  0.0802  0.4116 -0.5771
 8851TIP3   OH247967   5.446   5.366   5.282  0.2149 -0.1964  0.4597
 8851TIP3    H147968   5.518   5.326   5.233  0.4535  0.2230  0.4721
 8851TIP3    H247969   5.439   5.313   5.362  0.7301 -0.0278  0.6153
 8852TIP3   OH247970   4.997   5.500   2.451 -0.2280 -0.4616  0.0362
 8852TIP3    H147971   5.037   5.587   2.455  0.4198 -0.6517 -1.6325
 8852TIP3    H247972   5.055   5.445   2.504  0.8337 -0.3924 -1.0189
 8853TIP3   OH247973   5.964   0.294  11.547 -0.1232 -0.1898  0.1944
 8853TIP3    H147974   5.931   0.379  11.576 -0.3342 -0.6794  1.4538
 8853TIP3    H247975   5.890   0.234  11.560  0.6485 -0.9428  1.2881
 8854TIP3   OH247976   4.977   5.856   4.573 -0.7248  0.9432  0.1210
 8854TIP3    H147977   4.969   5.948   4.598  2.5178  1.0113  1.4341
 8854TIP3    H247978   4.974   5.808   4.656 -1.0248 -0.0084 -0.4222
 8855TIP3   OH247979   5.895   6.557  15.697  0.4507 -0.0779  0.3658
 8855TIP3    H147980   5.971   6.520  15.742  0.1827 -0.5625  0.4289
 8855TIP3    H247981   5.907   6.530  15.606  0.6781  0.3865  0.2535
 8856TIP3   OH247982   6.552   0.037  15.457 -0.2508  0.3556  0.1895
 8856TIP3    H147983   6.502   0.029  15.376 -0.8505 -1.0320  0.6628
 8856TIP3    H247984   6.504  -0.017  15.521  2.4617 -2.1723  0.3451
 8857TIP3   OH247985   6.002   3.864   0.341 -0.0447  0.1766 -0.0036
 8857TIP3    H147986   6.037   3.950   0.363  0.5126 -0.5564  2.3365
 8857TIP3    H247987   5.907   3.874   0.351  0.0658  0.3773  0.9515
 8858TIP3   OH247988   3.453   3.277  12.170 -0.6459 -0.0156  0.1099
 8858TIP3    H147989   3.447   3.304  12.078  1.2644 -0.4073 -0.1640
 8858TIP3    H247990   3.515   3.204  12.169 -0.4715  0.0817  1.7424
 8859TIP3   OH247991   5.452   5.390  13.713 -0.3868 -0.3274  0.1388
 8859TIP3    H147992   5.360   5.362  13.715  0.1154 -2.1433  2.3657
 8859TIP3    H247993   5.497   5.320  13.665 -0.2287  1.1280 -2.0009
 8860TIP3   OH247994   4.758   2.543  16.848 -0.1307 -0.4980  0.0037
 8860TIP3    H147995   4.714   2.615  16.893 -1.7833  0.4442 -2.8847
 8860TIP3    H247996   4.851   2.554  16.871 -0.4387  2.0863  0.2880
 8861TIP3   OH247997   5.210   6.178   3.629 -0.2570  0.4155 -0.0392
 8861TIP3    H147998   5.124   6.216   3.610 -0.4263  0.4562  0.7812
 8861TIP3    H247999   5.239   6.222   3.708  0.2610 -0.0242  0.0235
 8862TIP3   OH248000   1.305   1.795  13.346  1.0507  0.4418  0.4904
 8862TIP3    H148001   1.304   1.700  13.343  1.5700  0.4650 -1.0521
 8862TIP3    H248002   1.396   1.819  13.330  0.4015  1.2238 -2.7820
 8863TIP3   OH248003   6.446   5.807  12.372 -0.2228 -0.4729 -0.4996
 8863TIP3    H148004   6.447   5.807  12.276 -0.8717  0.2984 -0.5191
 8863TIP3    H248005   6.499   5.883  12.396  0.1067 -0.7842 -0.2374
 8864TIP3   OH248006   5.335   6.504  10.437 -0.5091 -0.0959  0.0753
 8864TIP3    H148007   5.365   6.588  10.402 -1.6203  0.9304  1.4239
 8864TIP3    H248008   5.374   6.499  10.524 -1.3745 -0.3916  0.4650
 8865TIP3   OH248009   4.947   6.216   1.321  0.1607  0.2574 -0.3489
 8865TIP3    H148010   4.864   6.254   1.350 -1.1565 -1.5142 -1.5789
 8865TIP3    H248011   4.946   6.126   1.356  1.5652  0.1989 -0.3996
 8866TIP3   OH248012   2.623   3.341   4.414  0.0188  0.1347  0.3517
 8866TIP3    H148013   2.657   3.278   4.477  0.2069 -0.8751 -0.7210
 8866TIP3    H248014   2.600   3.418   4.466  0.3370 -0.6018  1.6067
 8867TIP3   OH248015   3.896   3.897  16.330 -0.3195  0.3383  0.6548
 8867TIP3    H148016   3.891   3.952  16.252 -1.2968 -1.1086 -0.3397
 8867TIP3    H248017   3.839   3.941  16.394 -0.5760  0.8168  0.1050
 8868TIP3   OH248018   6.086   6.587   0.076 -0.0157  0.0643  0.1559
 8868TIP3    H148019   6.062   6.495   0.093  1.7630 -0.4268  0.1732
 8868TIP3    H248020   6.069   6.599  -0.017  1.5969 -0.9268 -0.3123
 8869TIP3   OH248021   6.449   6.545  11.523  0.3484 -0.4341  0.0994
 8869TIP3    H148022   6.381   6.524  11.459 -1.4114  1.2954  1.2765
 8869TIP3    H248023   6.525   6.570  11.470 -0.0500 -1.9253 -1.2571
 8870TIP3   OH248024   6.546   3.801   0.020 -0.1359 -0.7905 -0.1869
 8870TIP3    H148025   6.565   3.734  -0.046  0.2446 -2.3452  1.4064
 8870TIP3    H248026   6.460   3.775   0.055 -0.9953  0.8265 -0.9873
 8871TIP3   OH248027   0.923   1.308  13.784 -0.2884  0.0393  0.2068
 8871TIP3    H148028   0.902   1.304  13.691 -1.9302  0.1560  0.5333
 8871TIP3    H248029   0.907   1.220  13.817  3.2389 -0.8773 -0.1073
 8872TIP3   OH248030   2.708   4.593  15.841 -0.0863 -0.0666  0.1945
 8872TIP3    H148031   2.717   4.563  15.751  0.2334 -1.6077  0.7198
 8872TIP3    H248032   2.718   4.688  15.835  1.9995 -0.3108 -1.1240
 8873TIP3   OH248033   6.647   2.777   2.844 -0.4157 -0.2395  0.0038
 8873TIP3    H148034   6.676   2.862   2.875 -0.9488  0.0659 -0.3246
 8873TIP3    H248035   6.719   2.744   2.791 -0.8285  0.6940 -1.1603
 8874TIP3   OH248036   3.584   3.042   0.552  0.0143 -0.1117  0.7085
 8874TIP3    H148037   3.643   3.112   0.581 -0.2416  1.0550 -1.3417
 8874TIP3    H248038   3.642   2.972   0.524  0.4176  0.4967 -0.0304
 8875TIP3   OH248039   5.011   0.166   4.867 -0.5740  0.2298  0.3530
 8875TIP3    H148040   5.023   0.097   4.931  1.8825  0.7841  0.5684
 8875TIP3    H248041   5.066   0.140   4.793 -2.2902  0.2902 -1.0222
 8876TIP3   OH248042   1.035   2.228   5.404  0.4410 -0.1917  0.2244
 8876TIP3    H148043   1.097   2.267   5.466  0.5049 -1.9861  1.3635
 8876TIP3    H248044   0.979   2.173   5.457 -2.2099  1.3365 -0.7819
 8877TIP3   OH248045   1.693   2.773  13.506 -0.6074 -0.9138  0.2729
 8877TIP3    H148046   1.618   2.781  13.447 -1.3559 -0.4604  1.2497
 8877TIP3    H248047   1.691   2.682  13.535  1.0858 -1.7779 -2.0539
 8878TIP3   OH248048   1.132   0.100  13.002  0.2578  0.3825 -0.4877
 8878TIP3    H148049   1.147   0.192  12.978  0.1686  0.9842  1.5639
 8878TIP3    H248050   1.216   0.069  13.033  0.4422 -0.4599 -1.7738
 8879TIP3   OH248051   6.499   5.060   1.725  0.3568 -0.0989  0.2562
 8879TIP3    H148052   6.468   4.990   1.668  0.0176  0.2320  0.0288
 8879TIP3    H248053   6.420   5.101   1.759  0.5539 -0.6929  1.4796
 8880TIP3   OH248054   3.564   2.352   4.160 -0.8529  0.1011 -0.0104
 8880TIP3    H148055   3.623   2.394   4.222 -1.9047 -1.5057  2.2036
 8880TIP3    H248056   3.621   2.313   4.094  0.5594 -1.0135  1.7949
 8881TIP3   OH248057   2.631   0.872  14.699 -0.0037 -0.3094 -0.9253
 8881TIP3    H148058   2.578   0.840  14.772 -0.7298 -1.6455 -1.9873
 8881TIP3    H248059   2.637   0.797  14.640  1.5698  0.3778 -1.6900
 8882TIP3   OH248060   5.250   4.860   0.648  0.4392 -0.2857  0.0136
 8882TIP3    H148061   5.301   4.867   0.728  2.2266  2.3400 -1.2173
 8882TIP3    H248062   5.310   4.818   0.586  0.9934  2.1464 -1.2371
 8883TIP3   OH248063   5.802   4.756  16.220 -0.0693  0.1616  0.3027
 8883TIP3    H148064   5.765   4.721  16.138  0.4506  2.5324 -1.0451
 8883TIP3    H248065   5.748   4.717  16.289 -0.0652 -2.5153 -1.0443
 8884TIP3   OH248066   5.138   6.667  11.167 -0.3230  0.5745  0.0885
 8884TIP3    H148067   5.120   6.574  11.155  2.4406 -0.3040  1.7193
 8884TIP3    H248068   5.109   6.686  11.256  0.1179  0.9578  0.1570
 8885TIP3   OH248069   6.380   2.569  16.722 -0.5760 -0.0151 -0.3892
 8885TIP3    H148070   6.369   2.477  16.746  0.9910 -0.2842 -0.5986
 8885TIP3    H248071   6.434   2.606  16.792 -0.6425  0.5917 -0.6518
 8886TIP3   OH248072   5.476   5.242   2.594  0.3822 -0.1059 -0.0039
 8886TIP3    H148073   5.548   5.242   2.656  1.9151  3.0189 -1.5383
 8886TIP3    H248074   5.517   5.231   2.508 -1.2960 -0.9952 -0.7584
 8887TIP3   OH248075   6.777   6.740   2.969 -0.5799  0.6932  0.1975
 8887TIP3    H148076   6.868   6.746   2.941 -0.6937  4.2345  0.1216
 8887TIP3    H248077   6.727   6.759   2.889 -1.3163  0.6797  0.6486
 8888TIP3   OH248078   5.578   5.741   0.920  0.6803  0.0897 -0.0777
 8888TIP3    H148079   5.673   5.740   0.912  0.6196  1.1537 -1.2898
 8888TIP3    H248080   5.560   5.696   1.003  2.2689  0.4412  0.4938
 8889TIP3   OH248081   2.679   3.287   3.353  1.2239  0.3673  0.2157
 8889TIP3    H148082   2.692   3.193   3.358  0.3480  0.2904  3.6338
 8889TIP3    H248083   2.767   3.324   3.359  1.5939 -0.1683 -1.4114
 8890TIP3   OH248084   5.562   1.412   1.721  1.8814  0.0886  0.3969
 8890TIP3    H148085   5.502   1.344   1.752  0.1240  1.2783 -0.2575
 8890TIP3    H248086   5.599   1.448   1.802  2.2436 -1.0965  0.7839
 8891TIP3   OH248087   5.872   3.848  15.193 -0.0628  0.4293 -0.6636
 8891TIP3    H148088   5.947   3.806  15.236 -0.0908  0.6711 -0.3714
 8891TIP3    H248089   5.861   3.931  15.240 -0.4618  0.4321 -0.7555
 8892TIP3   OH248090   3.812   2.339  15.603  0.1663  0.1413 -0.3655
 8892TIP3    H148091   3.744   2.387  15.554 -2.2313  0.5232  2.9967
 8892TIP3    H248092   3.771   2.255  15.625  2.0070 -0.9406 -0.8397
 8893TIP3   OH248093   4.620   2.321  12.486 -0.3871 -0.1980  0.0984
 8893TIP3    H148094   4.570   2.360  12.414  2.6672 -0.8889 -2.6971
 8893TIP3    H248095   4.689   2.385  12.504  0.3655 -1.1274  0.6289
 8894TIP3   OH248096   5.305   2.504   3.033  0.0666  0.2059  0.4459
 8894TIP3    H148097   5.393   2.542   3.035  0.6096 -0.8591 -1.1387
 8894TIP3    H248098   5.315   2.424   2.982 -1.7964 -0.0273  0.3868
 8895TIP3   OH248099   0.004   2.561  10.558  0.1671 -0.7307  0.1396
 8895TIP3    H148100   0.010   2.657  10.563  0.6548 -0.6897 -1.0786
 8895TIP3    H248101   0.036   2.531  10.643 -0.5660  0.1998  0.7747
 8896TIP3   OH248102   0.403   6.433   1.563  0.3878  0.1621 -0.5697
 8896TIP3    H148103   0.334   6.427   1.629  1.4592 -1.9853  0.4505
 8896TIP3    H248104   0.356   6.441   1.480 -1.0254  0.8331  0.2475
 8897TIP3   OH248105   6.406   5.659   2.271 -0.0307 -0.1906  0.5245
 8897TIP3    H148106   6.485   5.648   2.219 -0.6820 -1.3758 -0.2426
 8897TIP3    H248107   6.425   5.734   2.328  1.3148  0.0671 -0.2335
 8898TIP3   OH248108   0.807   0.085  14.029 -0.3785 -0.3918  0.1851
 8898TIP3    H148109   0.770   0.059  13.944  2.6599 -0.3805 -1.2554
 8898TIP3    H248110   0.841   0.173  14.015 -0.0586 -0.2863  1.5082
 8899TIP3   OH248111   6.326   2.848   5.414  0.5448  0.2806 -0.0466
 8899TIP3    H148112   6.264   2.897   5.360 -0.0542 -1.3776 -0.9447
 8899TIP3    H248113   6.400   2.830   5.356 -0.2494 -1.8013 -0.5215
 8900TIP3   OH248114   3.054   5.745   1.236 -0.1956 -0.1390 -0.8066
 8900TIP3    H148115   3.087   5.817   1.290 -1.0492 -0.6559  0.4424
 8900TIP3    H248116   3.116   5.674   1.252  1.6737  0.7638 -3.3922
 8901TIP3   OH248117   3.536   0.773  14.453 -0.1258  0.0572 -0.2332
 8901TIP3    H148118   3.457   0.821  14.428 -0.3789 -0.3735 -0.2718
 8901TIP3    H248119   3.593   0.839  14.494 -1.2130  0.0407  1.3845
 8902TIP3   OH248120   4.207   3.342   2.107 -0.2992 -0.3053  0.6058
 8902TIP3    H148121   4.139   3.334   2.041 -0.7313 -0.3336  1.0480
 8902TIP3    H248122   4.169   3.400   2.173  0.2969  0.0894  0.6110
 8903TIP3   OH248123   3.751   1.359  13.820  0.1307  0.2141 -0.0386
 8903TIP3    H148124   3.806   1.400  13.753  0.0961  1.2025  0.5235
 8903TIP3    H248125   3.810   1.301  13.868 -0.1991 -1.9023 -2.0037
 8904TIP3   OH248126   3.994   3.178   1.281  0.0973  0.5023  0.4373
 8904TIP3    H148127   4.071   3.206   1.231 -0.7854  1.4902 -0.4304
 8904TIP3    H248128   3.985   3.085   1.260 -0.5771  0.9997 -1.7971
 8905TIP3   OH248129   4.157   4.966  15.116 -0.5470 -0.3742  0.3514
 8905TIP3    H148130   4.200   4.888  15.081 -1.8662 -0.3185 -1.5134
 8905TIP3    H248131   4.179   5.036  15.055 -1.4237  0.1490  0.6107
 8906TIP3   OH248132   6.626   4.143  12.730  0.0958  0.1566 -0.2980
 8906TIP3    H148133   6.535   4.132  12.699 -0.2191 -0.6256  0.8723
 8906TIP3    H248134   6.665   4.056  12.720 -0.0355 -0.1497  1.4942
 8907TIP3   OH248135   3.209   5.703   1.727 -0.0215  1.0458  0.3236
 8907TIP3    H148136   3.138   5.643   1.750 -0.7030  1.9305  0.5733
 8907TIP3    H248137   3.263   5.653   1.665 -1.6607  0.8333 -1.0202
 8908TIP3   OH248138   2.262   5.668  17.056  0.6501 -0.3342  0.2492
 8908TIP3    H148139   2.214   5.682  16.975  1.6165  0.2699 -0.2344
 8908TIP3    H248140   2.200   5.691  17.125  0.7887  2.2910 -0.4099
 8909TIP3   OH248141   4.409   0.861  12.586 -0.2534  0.4432 -0.1658
 8909TIP3    H148142   4.426   0.921  12.659  0.3020  0.1662 -0.0544
 8909TIP3    H248143   4.426   0.912  12.507 -2.3330  1.2037 -0.1773
 8910TIP3   OH248144   0.721   1.026   0.205  0.1700 -0.1585 -0.5554
 8910TIP3    H148145   0.793   1.008   0.265  1.7024  0.5209 -2.0882
 8910TIP3    H248146   0.679   1.105   0.240 -0.1230 -0.7996  0.5784
 8911TIP3   OH248147   2.607   0.852  17.024  0.3581 -0.0684  0.3070
 8911TIP3    H148148   2.552   0.895  17.089 -0.5820  0.7364 -0.9800
 8911TIP3    H248149   2.635   0.771  17.067  1.7511  1.4854  2.5997
 8912TIP3   OH248150   0.250   0.259  11.768  0.0070 -0.1930  0.7318
 8912TIP3    H148151   0.345   0.249  11.758 -0.0298 -0.5117  0.7057
 8912TIP3    H248152   0.229   0.212  11.849 -0.1170 -0.0504  0.7827
 8913TIP3   OH248153   3.660   3.732   4.458  0.2415  0.4453 -0.1202
 8913TIP3    H148154   3.697   3.772   4.537 -0.4610  3.0050 -0.9621
 8913TIP3    H248155   3.586   3.680   4.490  0.0018  1.3914  0.9566
 8914TIP3   OH248156   1.210   1.013   1.891 -0.3019  0.0435  0.5734
 8914TIP3    H148157   1.245   0.924   1.893 -1.1297 -0.2834  0.8248
 8914TIP3    H248158   1.279   1.064   1.848 -0.2712 -0.9269 -0.6195
 8915TIP3   OH248159   1.741   5.561   5.464  0.2312  0.2174 -0.7101
 8915TIP3    H148160   1.800   5.624   5.422  0.9567 -0.2765 -0.4606
 8915TIP3    H248161   1.654   5.582   5.430  0.6001  0.7538 -1.3364
 8916TIP3   OH248162   4.802   4.312  12.794  0.5513  0.4422  0.2171
 8916TIP3    H148163   4.788   4.221  12.817  1.1839  0.7810  2.0885
 8916TIP3    H248164   4.753   4.361  12.860  1.2160  1.4758 -0.0351
 8917TIP3   OH248165   4.084   2.111   4.854 -0.2968  0.0622 -0.0160
 8917TIP3    H148166   4.061   2.130   4.945 -0.7892  1.4046 -0.3974
 8917TIP3    H248167   4.165   2.060   4.860  2.0042  3.4766  1.1426
 8918TIP3   OH248168   3.297   3.959  17.259 -0.0949  0.2268  0.0093
 8918TIP3    H148169   3.330   3.886  17.311 -2.2544 -0.3504  0.6610
 8918TIP3    H248170   3.369   3.981  17.200  1.2520 -1.2175  1.0430
 8919TIP3   OH248171   3.182   2.651   2.746  0.4987 -0.2546  0.2018
 8919TIP3    H148172   3.212   2.564   2.720  0.8428  0.4427 -1.9212
 8919TIP3    H248173   3.110   2.634   2.807  0.3624 -2.0228 -0.3992
 8920TIP3   OH248174   4.992   5.060  13.889  0.3544 -0.7438  0.2307
 8920TIP3    H148175   4.931   5.025  13.954  0.4489  0.5525  1.0409
 8920TIP3    H248176   5.074   5.014  13.907 -0.6175 -3.5693 -1.7769
 8921TIP3   OH248177   1.358   5.347   1.543 -0.4622  0.3320 -0.1491
 8921TIP3    H148178   1.389   5.437   1.548  0.8483 -0.0879 -0.2983
 8921TIP3    H248179   1.275   5.352   1.496  0.8068  1.2084 -2.4583
 8922TIP3   OH248180   3.045   1.992  15.154  0.1625  0.2210 -0.2809
 8922TIP3    H148181   2.954   1.990  15.124 -0.0455  0.8461  0.2865
 8922TIP3    H248182   3.072   2.083  15.143  0.4920  0.1879  0.2003
 8923TIP3   OH248183   6.279   0.317  13.423 -0.5614 -0.0984 -0.5136
 8923TIP3    H148184   6.310   0.228  13.407 -0.9256 -0.3564  0.1651
 8923TIP3    H248185   6.291   0.362  13.340  0.9230 -0.3906 -0.4857
 8924TIP3   OH248186   6.028   3.267   1.190 -0.0090  0.5215 -0.0117
 8924TIP3    H148187   6.031   3.352   1.233  1.1167  0.6764 -0.3777
 8924TIP3    H248188   6.094   3.214   1.234  0.3951  0.3360 -0.8069
 8925TIP3   OH248189   5.762   5.748   3.838 -0.3546  0.4762 -1.0211
 8925TIP3    H148190   5.696   5.714   3.777 -0.9013 -0.0186 -0.1799
 8925TIP3    H248191   5.788   5.671   3.889 -0.6742  1.0627  0.0609
 8926TIP3   OH248192   5.276   1.797  16.117 -0.1307  0.6927  0.3130
 8926TIP3    H148193   5.310   1.787  16.028 -1.4390 -1.6246 -0.0043
 8926TIP3    H248194   5.295   1.888  16.139  0.1109  1.3913 -2.3797
 8927TIP3   OH248195   2.236   0.958  14.996 -0.2108  0.0727 -0.4602
 8927TIP3    H148196   2.211   1.031  14.938  0.6648 -0.0048 -0.9557
 8927TIP3    H248197   2.234   0.996  15.084 -2.2772  0.0064 -0.4232
 8928TIP3   OH248198   5.954   6.386   2.450 -0.3413  0.8521 -0.4958
 8928TIP3    H148199   5.864   6.399   2.421 -0.8532 -0.7502  0.2262
 8928TIP3    H248200   5.952   6.405   2.543 -0.0888  0.2499 -0.3611
 8929TIP3   OH248201   2.905   0.300  12.221  0.0417 -0.4290  0.1663
 8929TIP3    H148202   3.000   0.287  12.224  0.0015 -0.7868 -0.0880
 8929TIP3    H248203   2.868   0.217  12.251 -0.2161 -0.8762 -1.3515
 8930TIP3   OH248204   4.301   0.999  10.972 -0.5536  0.2393  0.0889
 8930TIP3    H148205   4.357   1.059  10.922 -0.3058 -2.2268 -2.8703
 8930TIP3    H248206   4.363   0.945  11.021 -0.5849  0.1065 -0.0192
 8931TIP3   OH248207   4.789   5.420  11.598  0.1225 -0.0589  0.5776
 8931TIP3    H148208   4.812   5.401  11.507  1.2863  0.4493  0.7474
 8931TIP3    H248209   4.804   5.514  11.607  1.2009 -0.3130  1.6117
 8932TIP3   OH248210   5.531   5.693   3.654 -0.2465 -0.5588 -0.2348
 8932TIP3    H148211   5.442   5.659   3.653 -0.9858  1.1808  0.9885
 8932TIP3    H248212   5.538   5.745   3.574 -0.1322 -1.1059 -0.5878
 8933TIP3   OH248213   0.116   4.535  12.638  0.0305 -0.5500 -0.1977
 8933TIP3    H148214   0.208   4.561  12.627  0.3240 -1.4562  0.0197
 8933TIP3    H248215   0.091   4.571  12.723 -0.3500  1.1404 -0.9765
 8934TIP3   OH248216   3.926   0.734  16.070 -0.1312 -0.1084  0.1386
 8934TIP3    H148217   3.974   0.817  16.073  0.8109 -0.6601  0.8021
 8934TIP3    H248218   3.835   0.759  16.085  0.2581  0.7075  1.2572
 8935TIP3   OH248219   3.895   3.670   3.348  0.2440 -0.5182  0.6269
 8935TIP3    H148220   3.859   3.715   3.425  1.2146  0.0845  0.7327
 8935TIP3    H248221   3.871   3.726   3.274  1.6697  0.3472  0.7834
 8936TIP3   OH248222   3.874   1.819  17.072 -0.2947  0.0273 -0.7821
 8936TIP3    H148223   3.844   1.867  17.149 -0.0978 -0.8984 -0.1195
 8936TIP3    H248224   3.863   1.727  17.095  1.5173 -0.3037 -1.1351
 8937TIP3   OH248225   2.479   6.163   2.688 -0.2527 -0.3949 -0.0889
 8937TIP3    H148226   2.440   6.246   2.717  0.3549  0.0189 -0.4324
 8937TIP3    H248227   2.553   6.150   2.748 -0.1855 -0.5493 -0.2052
 8938TIP3   OH248228   5.005   4.248   3.798 -0.0693 -0.6642  0.1140
 8938TIP3    H148229   4.972   4.280   3.882 -2.2888 -1.3686 -0.4237
 8938TIP3    H248230   5.036   4.159   3.817  1.7844  0.0406  0.6444
 8939TIP3   OH248231   3.535   1.385   0.336 -0.1764  0.1137 -0.2890
 8939TIP3    H148232   3.630   1.387   0.340 -0.1758  0.6345 -0.4391
 8939TIP3    H248233   3.513   1.293   0.323  0.2695 -0.1158  0.5287
 8940TIP3   OH248234   2.455   5.855   5.225 -0.1318 -0.3202  0.5333
 8940TIP3    H148235   2.536   5.850   5.175 -0.5707 -0.2929 -0.2102
 8940TIP3    H248236   2.433   5.948   5.225 -0.3690 -0.3748  0.3834
 8941TIP3   OH248237   0.564   0.400   2.899 -0.6443 -0.2963 -0.2744
 8941TIP3    H148238   0.574   0.305   2.909  0.3323 -0.2203 -0.4847
 8941TIP3    H248239   0.619   0.423   2.824 -0.6031  0.4841 -0.0172
 8942TIP3   OH248240   0.063   6.374   2.415 -0.2857 -0.2265 -0.0462
 8942TIP3    H148241   0.141   6.399   2.365 -0.8162 -0.1136 -0.8196
 8942TIP3    H248242   0.053   6.444   2.480 -1.5342  1.4531 -1.9396
 8943TIP3   OH248243   4.914   5.304   3.803  0.1553 -0.3501 -0.2133
 8943TIP3    H148244   4.992   5.260   3.836  0.9137  0.6967 -0.5495
 8943TIP3    H248245   4.845   5.280   3.865  0.6603 -1.5563 -0.1007
 8944TIP3   OH248246   3.878   0.718  14.517 -0.1793 -0.2823 -0.4585
 8944TIP3    H148247   3.969   0.749  14.515 -0.1474 -0.3698 -0.3543
 8944TIP3    H248248   3.874   0.651  14.449  0.2970 -1.5639  0.7268
 8945TIP3   OH248249   4.969   6.723  14.554  0.2903  0.4591 -0.1659
 8945TIP3    H148250   4.897   6.775  14.520  1.1945  0.9795 -1.3925
 8945TIP3    H248251   5.037   6.729  14.486  1.7005  0.4536  1.1736
 8946TIP3   OH248252   2.603   6.281  13.110 -0.0877 -0.1994  0.3701
 8946TIP3    H148253   2.508   6.277  13.102  0.0019  0.2503 -1.2624
 8946TIP3    H248254   2.630   6.191  13.126 -0.8068 -0.2636  1.2998
 8947TIP3   OH248255   4.191   2.573  15.324 -0.1185 -0.2782  0.1302
 8947TIP3    H148256   4.168   2.636  15.256 -0.8456 -1.4956 -0.7973
 8947TIP3    H248257   4.175   2.488  15.284 -0.7452 -1.0429  1.8908
 8948TIP3   OH248258   5.975   0.145   4.012  0.2130 -0.3961  0.1860
 8948TIP3    H148259   6.059   0.106   3.991  0.6872  0.4451  0.4811
 8948TIP3    H248260   5.965   0.217   3.950  0.6281  0.7301  1.3734
 8949TIP3   OH248261   3.140   1.775   1.087 -0.2917 -0.2666 -0.0148
 8949TIP3    H148262   3.151   1.837   1.159 -0.6206 -1.5711  1.1874
 8949TIP3    H248263   3.100   1.827   1.017 -0.3172  0.9318  0.8619
 8950TIP3   OH248264   6.224   5.497   2.639 -0.3638  0.5974 -0.1500
 8950TIP3    H148265   6.168   5.442   2.584 -1.2539  0.4901  0.8212
 8950TIP3    H248266   6.214   5.460   2.727 -0.8825  2.2095  0.5015
 8951TIP3   OH248267   4.307   1.167  14.790  0.2975 -0.0572  0.0381
 8951TIP3    H148268   4.239   1.100  14.776  1.7782 -1.3029 -1.6377
 8951TIP3    H248269   4.337   1.190  14.702  0.4715  2.1984  0.6236
 8952TIP3   OH248270   3.787   1.078  14.341  0.1905 -0.4850  0.0622
 8952TIP3    H148271   3.796   1.139  14.414  3.0780  0.6395 -1.1009
 8952TIP3    H248272   3.759   1.132  14.267 -1.3231 -1.3708 -0.0687
 8953TIP3   OH248273   5.636   0.280  10.639 -0.6356 -0.3186  0.0398
 8953TIP3    H148274   5.591   0.199  10.613 -0.0073 -0.6176 -0.1307
 8953TIP3    H248275   5.565   0.344  10.651 -1.0200 -0.3979 -1.5874
 8954TIP3   OH248276   2.079   3.135  11.098 -0.1667 -0.1691  0.3457
 8954TIP3    H148277   2.099   3.042  11.108 -2.3484 -0.8737 -1.1487
 8954TIP3    H248278   2.032   3.142  11.015  0.7949  2.4522 -0.0910
 8955TIP3   OH248279   4.554   4.684  11.889  0.4493 -0.3148 -0.2819
 8955TIP3    H148280   4.464   4.707  11.866  0.6519  1.3564  0.4460
 8955TIP3    H248281   4.607   4.722  11.820  0.6393 -0.7157 -0.3555
 8956TIP3   OH248282   1.341   1.368  16.299 -0.0923 -0.5068  0.5302
 8956TIP3    H148283   1.282   1.442  16.314  1.3180  0.7607  0.0737
 8956TIP3    H248284   1.336   1.316  16.379 -1.7858 -0.4385  0.5076
 8957TIP3   OH248285   5.630   6.543   4.679 -0.1420 -0.1719  0.5350
 8957TIP3    H148286   5.673   6.512   4.759  0.1287  0.4585  0.6417
 8957TIP3    H248287   5.702   6.553   4.616  0.3523  3.3164  1.4460
 8958TIP3   OH248288   2.416   4.701  15.774  0.4121  0.0884 -0.6574
 8958TIP3    H148289   2.343   4.763  15.766 -0.3307 -0.8568 -1.3354
 8958TIP3    H248290   2.377   4.622  15.812  1.0066 -0.5381 -1.3260
 8959TIP3   OH248291   0.952   2.510  15.266 -0.1008 -0.2425  0.9165
 8959TIP3    H148292   0.873   2.466  15.236 -0.3175  1.8109 -2.0009
 8959TIP3    H248293   1.023   2.449  15.246 -0.5506 -0.1203 -1.2750
 8960TIP3   OH248294   5.794   6.738   4.858  0.3251 -0.2272  0.1967
 8960TIP3    H148295   5.875   6.688   4.855  0.7002  0.4183 -1.2185
 8960TIP3    H248296   5.787   6.779   4.772 -0.1908  1.7783  1.1131
 8961TIP3   OH248297   1.907   0.969   6.095 -0.8966  0.8129 -0.3139
 8961TIP3    H148298   1.996   0.943   6.072 -0.7195  0.7037  0.4824
 8961TIP3    H248299   1.853   0.936   6.023 -0.2402  1.3320 -1.0650
 8962TIP3   OH248300   3.081   5.819   4.824  0.4811  0.7436 -0.5575
 8962TIP3    H148301   3.166   5.807   4.868  0.0980  0.1404  0.0311
 8962TIP3    H248302   3.034   5.737   4.841 -0.3620  1.2247 -0.5651
 8963TIP3   OH248303   3.627   5.879  15.957 -0.7253  0.4410  0.3861
 8963TIP3    H148304   3.597   5.945  15.895  2.5529  1.6897 -0.1144
 8963TIP3    H248305   3.713   5.852  15.924  0.7095  0.3812  3.7200
 8964TIP3   OH248306   1.907   3.186   4.689 -0.4799  0.4805 -0.2648
 8964TIP3    H148307   1.841   3.172   4.621 -0.9068 -1.2916  0.4684
 8964TIP3    H248308   1.861   3.232   4.758 -0.7780 -0.1408 -0.0438
 8965TIP3   OH248309   2.869   6.620   3.874  0.7241  0.0866 -0.4144
 8965TIP3    H148310   2.774   6.612   3.862  0.8492  0.3681 -1.8129
 8965TIP3    H248311   2.880   6.637   3.967 -0.6765  1.1062 -0.4030
 8966TIP3   OH248312   5.479   2.825  16.400 -0.2410 -0.0895  0.7204
 8966TIP3    H148313   5.422   2.901  16.411 -1.0881 -0.6672  0.4202
 8966TIP3    H248314   5.478   2.807  16.306 -0.8096 -1.0378  0.8937
 8967TIP3   OH248315   0.129   4.348   3.204 -0.1470 -0.1223  0.1554
 8967TIP3    H148316   0.051   4.350   3.259 -0.9488  1.1109 -0.9707
 8967TIP3    H248317   0.122   4.427   3.149 -0.3325 -2.1069 -2.9536
 8968TIP3   OH248318   0.123   1.038  14.658 -1.0934 -0.9343 -0.0364
 8968TIP3    H148319   0.150   0.948  14.639 -1.3325 -1.3224  1.3152
 8968TIP3    H248320   0.059   1.029  14.730 -1.4458  0.2822 -0.1720
 8969TIP3   OH248321   5.538   5.176   1.309  0.0931 -0.1527  0.8849
 8969TIP3    H148322   5.504   5.088   1.298  0.8359 -0.4664  1.0497
 8969TIP3    H248323   5.474   5.220   1.365  0.4472 -1.0333  2.0174
 8970TIP3   OH248324   3.137   4.619  14.691  0.2182 -0.2140 -0.0522
 8970TIP3    H148325   3.155   4.536  14.735  0.9367  0.1196  0.3083
 8970TIP3    H248326   3.055   4.650  14.730  1.1937  0.4126  1.6043
 8971TIP3   OH248327   3.220   3.326  11.032 -0.1921  0.1690 -0.0359
 8971TIP3    H148328   3.243   3.301  10.943 -1.7530 -0.3367 -0.3226
 8971TIP3    H248329   3.184   3.246  11.071  0.7822  0.2916  1.1767
 8972TIP3   OH248330   0.277   5.390  12.841  0.1087  0.1596 -0.7915
 8972TIP3    H148331   0.341   5.350  12.900 -2.3542  0.1991  2.1198
 8972TIP3    H248332   0.225   5.317  12.808 -0.1595  0.3829 -0.8677
 8973TIP3   OH248333   3.012   2.578  14.394  0.0363  0.3538 -0.2579
 8973TIP3    H148334   2.943   2.561  14.330 -1.1178  0.7261  0.8397
 8973TIP3    H248335   3.008   2.672  14.410 -0.1380  0.1751  0.8340
 8974TIP3   OH248336   2.448   1.148  11.952 -0.3205 -0.4965 -0.2965
 8974TIP3    H148337   2.439   1.063  11.908  1.6313 -0.5840 -0.6301
 8974TIP3    H248338   2.436   1.129  12.045  2.2792 -1.6251 -0.1005
 8975TIP3   OH248339   4.424   2.842  14.658 -0.0199 -0.1941 -0.1106
 8975TIP3    H148340   4.501   2.818  14.607  1.4336  1.5177  1.1509
 8975TIP3    H248341   4.377   2.905  14.604 -0.4274 -1.0318 -0.7640
 8976TIP3   OH248342   5.487   2.160  12.500 -0.6606 -0.2402  0.0093
 8976TIP3    H148343   5.529   2.150  12.414  1.5468  2.0324  0.6848
 8976TIP3    H248344   5.549   2.121  12.561 -2.2164 -1.8466  0.6317
 8977TIP3   OH248345   1.599   0.223   4.953 -0.0261  0.6331  0.1233
 8977TIP3    H148346   1.624   0.233   4.862 -0.4365  0.8843  0.0368
 8977TIP3    H248347   1.525   0.162   4.951  0.2610  0.2747  0.3310
 8978TIP3   OH248348   4.654   6.301  12.490  0.7714 -0.0895 -0.2615
 8978TIP3    H148349   4.692   6.377  12.446  1.4268  0.6953  1.5723
 8978TIP3    H248350   4.725   6.237  12.493 -0.3432 -1.7364 -3.6671
 8979TIP3   OH248351   4.260   2.489  12.690  0.3068  0.2488 -0.0027
 8979TIP3    H148352   4.202   2.447  12.626 -0.5933 -0.9496  1.5213
 8979TIP3    H248353   4.335   2.430  12.697  1.3616  1.3548 -1.3157
 8980TIP3   OH248354   3.419   4.340  15.458 -0.4320 -0.1898  0.9656
 8980TIP3    H148355   3.354   4.409  15.443  0.5580  0.5315 -0.1676
 8980TIP3    H248356   3.371   4.259  15.444 -1.4154  0.2814  1.4835
 8981TIP3   OH248357   0.855   1.519   2.393  0.2162 -0.6007  0.2129
 8981TIP3    H148358   0.812   1.604   2.389 -0.1215 -0.7249  1.0579
 8981TIP3    H248359   0.949   1.539   2.393  0.1356 -0.2024  0.8185
 8982TIP3   OH248360   0.905   2.479  11.340 -0.4551 -0.3963 -0.1643
 8982TIP3    H148361   0.871   2.410  11.283 -2.8164  1.0433 -0.5969
 8982TIP3    H248362   0.909   2.557  11.285 -0.4947  0.4654  1.0108
 8983TIP3   OH248363   1.444   0.702  17.116 -0.2986 -0.3581  0.0053
 8983TIP3    H148364   1.476   0.735  17.200 -0.3214 -0.8776  0.2231
 8983TIP3    H248365   1.364   0.751  17.100 -0.6897 -0.7827  0.6488
 8984TIP3   OH248366   4.803   0.386   0.593  0.7020 -0.2196  0.2766
 8984TIP3    H148367   4.864   0.334   0.645  1.0714 -0.0248  0.0365
 8984TIP3    H248368   4.844   0.472   0.585  0.2291  0.0284  0.4247
 8985TIP3   OH248369   3.020   0.580  11.371  0.0705 -0.2342 -0.2162
 8985TIP3    H148370   3.002   0.590  11.277 -0.0885  1.6788 -0.0356
 8985TIP3    H248371   3.115   0.571  11.376 -0.0216 -1.8030 -0.6197
 8986TIP3   OH248372   6.441   2.779  14.391 -0.5889 -0.2813 -0.7051
 8986TIP3    H148373   6.415   2.862  14.350  1.7574  0.9468  0.1176
 8986TIP3    H248374   6.406   2.712  14.333 -4.9899  1.0840 -0.0167
 8987TIP3   OH248375   3.566   3.865  11.633 -0.3343  0.0802 -0.5240
 8987TIP3    H148376   3.624   3.892  11.563  0.9510 -0.8976  0.1314
 8987TIP3    H248377   3.575   3.933  11.700 -2.4911  1.6780 -1.7158
 8988TIP3   OH248378   3.620   6.295   1.092 -0.1292  0.3612 -0.2765
 8988TIP3    H148379   3.557   6.319   1.160  0.0049 -1.7538  0.6760
 8988TIP3    H248380   3.674   6.227   1.133 -0.4953 -1.5140 -2.6807
 8989TIP3   OH248381   3.005   6.735  14.404 -0.4057  0.4734 -0.0926
 8989TIP3    H148382   2.922   6.735  14.357  0.3886  0.0339 -1.5657
 8989TIP3    H248383   3.068   6.696  14.342  1.1663  1.9487  0.4928
 8990TIP3   OH248384   0.774   1.842   6.354 -0.2444 -0.2370 -0.0435
 8990TIP3    H148385   0.799   1.931   6.330  0.4303 -0.7623 -1.4257
 8990TIP3    H248386   0.679   1.845   6.364 -0.0373  1.0569  1.9296
 8991TIP3   OH248387   1.625   0.046  11.209 -0.3878  0.1496 -0.5969
 8991TIP3    H148388   1.621  -0.003  11.126  1.3679  2.0502 -1.8990
 8991TIP3    H248389   1.566   0.120  11.196  0.2952  0.7438 -0.3845
 8992TIP3   OH248390   3.126   5.794   4.557 -0.5022 -0.1183  0.7591
 8992TIP3    H148391   3.100   5.806   4.648 -2.4508 -0.7675  0.3228
 8992TIP3    H248392   3.193   5.726   4.560 -0.4523 -0.0483  1.6998
 8993TIP3   OH248393   2.611   5.623  14.426 -0.0888 -0.3830  0.7163
 8993TIP3    H148394   2.564   5.635  14.509 -0.0821  0.5834  0.5938
 8993TIP3    H248395   2.681   5.688  14.430  0.1872 -0.6469  0.1457
 8994TIP3   OH248396   0.366   6.056   5.768 -0.5168  0.2837 -0.5985
 8994TIP3    H148397   0.313   6.108   5.828  0.1428 -0.2350  0.4724
 8994TIP3    H248398   0.455   6.062   5.803 -0.5400 -2.2705  0.1488
 8995TIP3   OH248399   5.658   6.230   0.486 -0.0827 -0.4332 -0.1726
 8995TIP3    H148400   5.698   6.315   0.502 -1.0579  0.5771 -2.6281
 8995TIP3    H248401   5.700   6.171   0.549  2.3914  1.3307 -0.0547
 8996TIP3   OH248402   1.712   2.340  16.594 -0.1106 -0.2462 -0.1566
 8996TIP3    H148403   1.717   2.409  16.528 -0.6660 -0.6344 -0.6127
 8996TIP3    H248404   1.803   2.327  16.622  0.2285 -0.5628 -1.3583
 8997TIP3   OH248405   0.657   2.417  10.587 -0.4739  0.5396  0.6995
 8997TIP3    H148406   0.739   2.445  10.628  0.1262  0.3324 -0.3153
 8997TIP3    H248407   0.664   2.322  10.582 -1.9217  0.2483  2.9210
 8998TIP3   OH248408   0.654   3.351   6.400 -0.1966 -0.3154  0.1945
 8998TIP3    H148409   0.697   3.374   6.483 -0.0035 -0.1283  0.0454
 8998TIP3    H248410   0.689   3.414   6.337 -1.7185  0.7347  0.3406
 8999TIP3   OH248411   1.211   5.531   1.895 -0.3947  0.5378 -0.8244
 8999TIP3    H148412   1.284   5.469   1.892  0.5115  1.3555  1.7354
 8999TIP3    H248413   1.252   5.616   1.906 -1.6968  1.2022 -0.9294
 9000TIP3   OH248414   0.366   6.759  13.917  0.3398  0.2196 -0.2263
 9000TIP3    H148415   0.420   6.691  13.877  1.7534  1.3420 -0.3052
 9000TIP3    H248416   0.424   6.800  13.981 -1.0914  0.1078  1.2027
 9001TIP3   OH248417   0.794   5.107  11.531 -0.0488  0.4681 -0.2812
 9001TIP3    H148418   0.773   5.043  11.599 -0.5597  0.9078 -0.0164
 9001TIP3    H248419   0.865   5.159  11.568  1.8936 -1.2738 -1.3319
 9002TIP3   OH248420   5.394   4.548  16.740 -0.1259  0.1151 -0.6312
 9002TIP3    H148421   5.428   4.469  16.698  0.1317 -1.5677  2.4770
 9002TIP3    H248422   5.449   4.561  16.817 -2.6698  0.8525  1.2225
 9003TIP3   OH248423   0.535   5.861  11.078  0.1743  0.2509 -0.1852
 9003TIP3    H148424   0.568   5.866  10.988 -2.7815  0.1019 -1.4147
 9003TIP3    H248425   0.502   5.950  11.096  3.1150  1.0783  1.8998
 9004TIP3   OH248426   4.616   2.505   6.433 -0.0970 -0.3710 -0.1015
 9004TIP3    H148427   4.530   2.546   6.426  0.5821  1.2558  0.6509
 9004TIP3    H248428   4.678   2.577   6.423  1.1571 -1.3101  0.6454
 9005TIP3   OH248429   4.815   5.475   0.341 -0.3750  0.0757 -0.1836
 9005TIP3    H148430   4.872   5.518   0.277  1.3397  1.1342  1.9490
 9005TIP3    H248431   4.851   5.499   0.426 -2.5341 -1.3264  1.2308
 9006TIP3   OH248432   3.391   4.853  12.362 -0.1926  0.2494  0.2883
 9006TIP3    H148433   3.410   4.938  12.322 -0.8511 -0.6396 -2.0710
 9006TIP3    H248434   3.440   4.790  12.308 -0.6821 -0.9761  1.2406
 9007TIP3   OH248435   5.110   0.832  16.919 -0.0641  0.1844  0.4609
 9007TIP3    H148436   5.099   0.908  16.975  1.1324 -0.1621  1.2055
 9007TIP3    H248437   5.112   0.867  16.831  0.5435  1.0305  0.7973
 9008TIP3   OH248438   1.978   5.315   0.091  0.1133  0.1888 -0.1238
 9008TIP3    H148439   1.967   5.395   0.040  0.8813 -0.3408 -1.1588
 9008TIP3    H248440   1.903   5.261   0.066  1.0116 -0.4787 -1.5398
 9009TIP3   OH248441   5.109   5.733   1.219  0.2235  0.0929 -0.0757
 9009TIP3    H148442   5.198   5.701   1.206  0.0462 -1.4816  2.0135
 9009TIP3    H248443   5.053   5.666   1.181 -0.1015 -0.6294  1.6104
 9010TIP3   OH248444   5.824   4.165  16.506  0.2276  0.3197 -0.1450
 9010TIP3    H148445   5.862   4.107  16.440 -0.4117 -0.1963 -0.0624
 9010TIP3    H248446   5.885   4.161  16.580  0.1351 -0.3130 -0.1036
 9011TIP3   OH248447   0.044   5.121  16.021 -0.2538 -0.3423  0.0727
 9011TIP3    H148448   0.125   5.074  16.041 -0.1861 -0.2116  0.1042
 9011TIP3    H248449   0.003   5.069  15.952 -0.2189 -0.4915  0.1639
 9012TIP3   OH248450   5.796   1.810  15.725  0.4496  0.0960  0.0892
 9012TIP3    H148451   5.842   1.777  15.648 -0.2141  2.5001 -1.4478
 9012TIP3    H248452   5.705   1.781  15.713  0.4488  0.0363  0.2407
 9013TIP3   OH248453   0.113   1.568   1.643  0.5611  0.0465  0.2067
 9013TIP3    H148454   0.075   1.580   1.556  1.8002 -1.1706 -0.5507
 9013TIP3    H248455   0.069   1.491   1.678 -0.0573  0.6353  0.7520
 9014TIP3   OH248456   4.216   0.899   0.767 -0.1562 -0.0005 -0.7985
 9014TIP3    H148457   4.170   0.962   0.712  0.6567  1.6968  0.3783
 9014TIP3    H248458   4.309   0.919   0.754  0.0576  0.8473  1.5296
 9015TIP3   OH248459   1.818   5.310   2.423  0.3122 -0.3804  0.2718
 9015TIP3    H148460   1.872   5.296   2.501  1.2143 -0.4003 -0.3410
 9015TIP3    H248461   1.754   5.238   2.425  0.9040 -0.9082  0.5112
 9016TIP3   OH248462   2.499   5.520   3.632 -0.0611  0.4942 -0.0573
 9016TIP3    H148463   2.520   5.555   3.545 -2.2537 -1.3919 -1.4530
 9016TIP3    H248464   2.576   5.470   3.657  1.0416  1.9671 -0.3558
 9017TIP3   OH248465   6.506   3.132   3.744  0.6525  0.2297 -0.4139
 9017TIP3    H148466   6.475   3.048   3.710  0.1467 -0.1863  1.0018
 9017TIP3    H248467   6.602   3.126   3.736  0.7230 -1.0684  0.8915
 9018TIP3   OH248468   0.259   2.365  11.553  0.7863  0.5011 -0.0801
 9018TIP3    H148469   0.316   2.435  11.520 -0.9199  2.0868  0.2061
 9018TIP3    H248470   0.242   2.388  11.644 -2.2458  1.4951 -0.7848
 9019TIP3   OH248471   6.467   6.240  12.744 -0.2251  0.5465  0.1560
 9019TIP3    H148472   6.509   6.232  12.829  0.0766  1.5755  0.1148
 9019TIP3    H248473   6.489   6.159  12.698  1.4142  0.9131  0.2642
 9020TIP3   OH248474   6.636   6.517  16.103  0.1779 -0.9146  0.2033
 9020TIP3    H148475   6.685   6.464  16.041 -0.0237 -1.4148  0.4634
 9020TIP3    H248476   6.545   6.491  16.090  0.1134 -0.8777  0.5694
 9021TIP3   OH248477   5.472   4.375  16.489 -0.1824  0.0391 -0.7050
 9021TIP3    H148478   5.538   4.431  16.449  0.6505  1.4174  2.3345
 9021TIP3    H248479   5.393   4.428  16.490  0.2545  0.7168  0.9358
 9022TIP3   OH248480   4.891   0.227   3.056 -0.2409 -0.1857  0.2577
 9022TIP3    H148481   4.960   0.203   2.995 -0.4720  1.2140 -0.6129
 9022TIP3    H248482   4.819   0.167   3.036  0.2720 -0.8261  0.3115
 9023TIP3   OH248483   3.497   0.002   1.190  0.3219  0.0954 -0.2735
 9023TIP3    H148484   3.463   0.020   1.278  2.0961  0.1259  0.4485
 9023TIP3    H248485   3.444   0.057   1.132 -1.9303 -1.0768  0.5447
 9024TIP3   OH248486   4.694   5.167  13.689  0.3605 -0.4719  0.3603
 9024TIP3    H148487   4.601   5.173  13.715  0.5911  1.4980  0.9077
 9024TIP3    H248488   4.718   5.257  13.667  1.7418 -1.2101 -1.3328
 9025TIP3   OH248489   0.509   5.200  12.714 -0.5992 -0.2918  0.4649
 9025TIP3    H148490   0.424   5.168  12.744 -0.9901 -0.1106 -0.4275
 9025TIP3    H248491   0.503   5.198  12.618  0.9888 -1.8618  0.3478
 9026TIP3   OH248492   6.635   0.349  12.576  0.7013  0.1662 -0.2957
 9026TIP3    H148493   6.592   0.322  12.495  1.5859  0.0257 -0.7282
 9026TIP3    H248494   6.575   0.321  12.645  0.2605 -0.3330 -0.8691
 9027TIP3   OH248495   3.124   2.448  15.041 -0.6194 -0.4046  0.0911
 9027TIP3    H148496   3.139   2.520  15.104 -0.1950 -0.6429  0.2645
 9027TIP3    H248497   3.160   2.371  15.084 -0.4590 -0.5995 -0.3881
 9028TIP3   OH248498   2.356   2.185   5.724 -0.3524  0.0142  0.5490
 9028TIP3    H148499   2.368   2.090   5.730 -0.1903 -0.0123 -0.0617
 9028TIP3    H248500   2.294   2.207   5.793 -0.7469 -0.6029  0.3931
 9029TIP3   OH248501   3.020   0.151  16.184  0.1040 -0.2131  0.7337
 9029TIP3    H148502   2.929   0.129  16.164 -0.0238 -0.7060  1.7739
 9029TIP3    H248503   3.071   0.093  16.127 -0.2015  1.0796 -0.9084
 9030TIP3   OH248504   3.947   6.739  10.945  0.4642 -0.0223  0.1081
 9030TIP3    H148505   4.011   6.756  11.014  0.0125 -2.1142  1.1114
 9030TIP3    H248506   3.885   6.812  10.950  2.2648  1.6004 -0.3459
 9031TIP3   OH248507   3.338   2.087   0.039 -0.1238 -0.0494 -0.2491
 9031TIP3    H148508   3.365   2.127   0.122 -2.0972 -0.8773  0.8700
 9031TIP3    H248509   3.402   2.118  -0.025  0.9429  1.3359  1.4043
 9032TIP3   OH248510   5.388   0.584  16.159  0.2302 -0.2400  0.6765
 9032TIP3    H148511   5.470   0.620  16.193 -0.2887  0.9350  0.7483
 9032TIP3    H248512   5.412   0.500  16.121  0.9676 -1.3938  3.4451
 9033TIP3   OH248513   2.627   1.682  15.064  0.1034  0.3500 -0.1868
 9033TIP3    H148514   2.572   1.692  14.987  1.3764  0.7319 -1.0824
 9033TIP3    H248515   2.661   1.592  15.058  1.5035  0.8960 -1.0109
 9034TIP3   OH248516   5.130   1.283  12.263  0.1417 -0.0647  0.2177
 9034TIP3    H148517   5.146   1.207  12.207 -1.2393  0.5346 -1.0515
 9034TIP3    H248518   5.117   1.247  12.350 -1.3831 -1.3912 -0.5196
 9035TIP3   OH248519   4.772   2.716  17.245  0.2069 -0.0495 -0.0119
 9035TIP3    H148520   4.778   2.795  17.298  3.1915  0.5809 -1.1230
 9035TIP3    H248521   4.725   2.743  17.166 -2.2579 -0.4574  1.2052
 9036TIP3   OH248522   2.204   2.439   3.203 -0.3597  0.0911  0.4444
 9036TIP3    H148523   2.141   2.387   3.252  0.7847  0.1816  2.1003
 9036TIP3    H248524   2.203   2.525   3.245 -0.8326  0.8338 -1.0300
 9037TIP3   OH248525   2.051   5.064   3.010  0.1990  0.6954 -0.0842
 9037TIP3    H148526   2.043   5.132   3.078  0.3293  3.4555 -2.6270
 9037TIP3    H248527   1.987   5.089   2.944  2.5699  0.3265 -2.6936
 9038TIP3   OH248528   1.963   3.294   2.011 -0.0906 -0.4976 -0.7036
 9038TIP3    H148529   2.016   3.218   1.987  0.7586 -0.5675  1.1907
 9038TIP3    H248530   2.024   3.367   2.008 -0.6645 -0.0313 -1.5167
 9039TIP3   OH248531   3.152   4.034   4.012  0.5050 -0.0171  0.3795
 9039TIP3    H148532   3.204   4.092   3.956  1.1857  0.4284  1.4585
 9039TIP3    H248533   3.164   4.067   4.100 -0.6144 -0.6741  0.8104
 9040TIP3   OH248534   3.387   0.029   1.503 -0.0905 -0.1640 -0.1462
 9040TIP3    H148535   3.476   0.007   1.533 -0.2172 -2.2587 -1.0841
 9040TIP3    H248536   3.335  -0.048   1.526 -1.9271  1.4199  1.2637
 9041TIP3   OH248537   2.413   5.862  12.997  0.1800  0.0805 -0.4869
 9041TIP3    H148538   2.460   5.904  13.069  1.6930 -2.0052 -0.1573
 9041TIP3    H248539   2.409   5.770  13.021  0.6904 -0.6781 -3.0135
 9042TIP3   OH248540   4.080   0.950  16.698 -0.5173  0.8856  0.3904
 9042TIP3    H148541   4.000   0.908  16.731  0.4592 -0.9885  0.4828
 9042TIP3    H248542   4.146   0.934  16.765  0.3699  0.9176 -0.4492
 9043TIP3   OH248543   5.829   0.739   1.262  0.1555 -0.4038 -0.2950
 9043TIP3    H148544   5.854   0.653   1.297  1.2874  0.0061 -0.0550
 9043TIP3    H248545   5.902   0.796   1.284 -0.9355  0.8303  0.2793
 9044TIP3   OH248546   4.020   1.791  12.408  0.2057 -0.3872 -0.1321
 9044TIP3    H148547   3.948   1.838  12.451  0.1676 -1.1384  0.6661
 9044TIP3    H248548   3.977   1.737  12.342  0.1933  0.2523 -0.6595
 9045TIP3   OH248549   5.150   1.325   0.268  0.7345  0.4716  0.5191
 9045TIP3    H148550   5.192   1.366   0.344  0.8716  0.5411  0.4074
 9045TIP3    H248551   5.119   1.240   0.300  1.1951  0.3081  0.5358
 9046TIP3   OH248552   0.558   6.220   5.086 -0.0984  0.5603 -0.4662
 9046TIP3    H148553   0.487   6.163   5.116  0.3226  0.5318  0.5289
 9046TIP3    H248554   0.537   6.239   4.994 -0.7261 -0.4528 -0.5489
 9047TIP3   OH248555   3.685   6.310   1.536  0.4027  0.3177  0.2184
 9047TIP3    H148556   3.661   6.320   1.628 -2.0278 -0.0886 -0.2925
 9047TIP3    H248557   3.747   6.381   1.519  0.7147  0.5407  2.0978
 9048TIP3   OH248558   4.777   6.713   1.355  0.1788 -0.1499  0.1541
 9048TIP3    H148559   4.688   6.723   1.320  0.6413  0.1123 -1.0194
 9048TIP3    H248560   4.829   6.684   1.280  1.7592  2.9677 -0.1410
 9049TIP3   OH248561   6.556   1.063  11.010  0.1380 -0.2221  0.3750
 9049TIP3    H148562   6.493   1.088  11.077 -0.4412  0.0353 -0.2569
 9049TIP3    H248563   6.534   1.116  10.934  0.5319 -0.7951 -0.1544
 9050TIP3   OH248564   5.136   1.703   4.231  0.2392  0.0664  0.2709
 9050TIP3    H148565   5.058   1.750   4.258 -0.5618 -1.0655 -0.0203
 9050TIP3    H248566   5.207   1.742   4.283 -0.6957  0.3359  1.3683
 9051TIP3   OH248567   4.017   1.811  10.625 -0.0434  0.1630 -0.4521
 9051TIP3    H148568   3.977   1.876  10.568 -1.7250 -1.5959 -1.3877
 9051TIP3    H248569   4.056   1.862  10.696 -1.5359  2.1527 -0.9827
 9052TIP3   OH248570   2.753   5.384  11.454  0.5056 -0.4675  0.3757
 9052TIP3    H148571   2.812   5.380  11.379 -0.4894  1.2561 -0.5535
 9052TIP3    H248572   2.725   5.475  11.459 -1.1572 -0.9773  1.4974
 9053TIP3   OH248573   5.541   0.507   1.146  0.5914  0.1600 -0.0648
 9053TIP3    H148574   5.507   0.568   1.212  2.3908  1.0671  0.0879
 9053TIP3    H248575   5.556   0.561   1.069  0.5663 -0.4563 -0.5105
 9054TIP3   OH248576   5.292   4.016   2.194 -0.0835  0.1761  0.3698
 9054TIP3    H148577   5.249   4.012   2.279 -0.9969 -1.2547 -0.1188
 9054TIP3    H248578   5.225   4.053   2.135 -0.5734 -1.6626 -0.3070
 9055TIP3   OH248579   0.310   5.651  16.566 -0.5867  1.0479 -0.1750
 9055TIP3    H148580   0.362   5.704  16.505  0.4864 -0.2234 -0.4043
 9055TIP3    H248581   0.238   5.618  16.512  0.6660 -0.5347 -0.9642
 9056TIP3   OH248582   3.295   2.299   1.989 -0.5372  0.0301 -0.2316
 9056TIP3    H148583   3.254   2.381   1.962 -0.3494  0.8699  1.8801
 9056TIP3    H248584   3.364   2.325   2.050  1.5876 -1.5002 -1.7770
 9057TIP3   OH248585   1.515   3.571  15.296  0.1025 -0.2731 -0.1369
 9057TIP3    H148586   1.546   3.661  15.282 -1.8042  0.4853  0.1648
 9057TIP3    H248587   1.581   3.516  15.255  1.1761  1.2823 -0.5841
 9058TIP3   OH248588   4.454   2.901   1.624 -0.3350 -0.1609 -0.3787
 9058TIP3    H148589   4.391   2.835   1.653 -0.4179  0.7830  1.7819
 9058TIP3    H248590   4.432   2.980   1.674  0.9088  0.9783 -1.5241
 9059TIP3   OH248591   5.102   0.394  16.707  0.7076 -0.4800 -0.2177
 9059TIP3    H148592   5.038   0.324  16.722  1.0839 -0.8399 -0.2881
 9059TIP3    H248593   5.089   0.454  16.781 -0.2899 -0.1051 -0.6707
 9060TIP3   OH248594   3.074   1.330   3.577 -0.5606 -0.1794 -0.1457
 9060TIP3    H148595   3.069   1.239   3.549  0.1052 -0.9405  2.0228
 9060TIP3    H248596   3.153   1.364   3.535  1.3167 -1.7517  1.8769
 9061TIP3   OH248597   2.354   3.941  14.480 -0.2869  0.5933 -0.1553
 9061TIP3    H148598   2.260   3.945  14.499 -0.2017  0.1539  0.4133
 9061TIP3    H248599   2.376   4.027  14.443 -0.7818  0.9271  0.3219
 9062TIP3   OH248600   5.468   0.068  12.676  0.3994  0.2316  0.2172
 9062TIP3    H148601   5.479  -0.024  12.655  0.4369 -0.0264  1.3105
 9062TIP3    H248602   5.376   0.076  12.702  0.2504  0.6196 -0.4085
 9063TIP3   OH248603   3.928   3.423  14.192 -0.0221 -0.3146 -0.2477
 9063TIP3    H148604   3.844   3.467  14.183  0.7136  0.9258 -1.2780
 9063TIP3    H248605   3.962   3.453  14.276  0.3800  0.9430 -0.8457
 9064TIP3   OH248606   1.426   5.800  16.808 -0.3735  0.0954 -0.0293
 9064TIP3    H148607   1.452   5.802  16.900  0.1367 -0.8227 -0.1402
 9064TIP3    H248608   1.436   5.890  16.778  1.8577 -0.0285  0.1748
 9065TIP3   OH248609   3.408   0.484   0.633 -0.0250  0.2062 -0.0626
 9065TIP3    H148610   3.458   0.508   0.554  1.2922  1.0214  0.9753
 9065TIP3    H248611   3.349   0.559   0.646  0.6774  0.6882  0.4381
 9066TIP3   OH248612   1.503   2.888  14.115 -0.0330  0.7372 -0.3134
 9066TIP3    H148613   1.579   2.939  14.141  0.5915 -0.3431  0.0753
 9066TIP3    H248614   1.477   2.841  14.194  1.7349 -2.4142 -1.3812
 9067TIP3   OH248615   6.660   4.912   1.507  0.1190 -0.7585 -0.0202
 9067TIP3    H148616   6.574   4.873   1.524  0.7162 -2.0384  0.1552
 9067TIP3    H248617   6.641   5.004   1.485 -1.3745 -1.2857 -1.0734
 9068TIP3   OH248618   5.111   6.161  12.253  0.0984 -0.3433 -0.0638
 9068TIP3    H148619   5.111   6.242  12.202  0.2434 -0.2738  0.0465
 9068TIP3    H248620   5.161   6.099  12.200  1.4107  0.1149  0.6008
 9069TIP3   OH248621   3.729   0.369   0.442  0.0979 -0.1602  0.1716
 9069TIP3    H148622   3.822   0.377   0.421  0.0098  0.4493 -0.0058
 9069TIP3    H248623   3.697   0.460   0.446 -0.1795 -0.2911  1.6414
 9070TIP3   OH248624   4.316   4.230  12.078  0.4190 -0.5136 -0.5364
 9070TIP3    H148625   4.282   4.167  12.014 -1.0435  0.2079 -0.5201
 9070TIP3    H248626   4.295   4.316  12.039  0.5251 -0.0596  0.3912
 9071TIP3   OH248627   4.272   0.961   3.232 -0.5065 -0.0451  0.8145
 9071TIP3    H148628   4.262   1.056   3.237 -1.2576 -0.1258  1.0376
 9071TIP3    H248629   4.247   0.939   3.143  0.7799  0.0828  0.4147
 9072TIP3   OH248630   6.465   0.100   0.542  0.2824  0.3606  0.5767
 9072TIP3    H148631   6.530   0.102   0.473  0.0037  1.1330  0.3191
 9072TIP3    H248632   6.415   0.020   0.527  1.3043 -0.3611  0.9171
 9073TIP3   OH248633   3.977   4.302  16.325 -0.2468 -0.0394 -0.1297
 9073TIP3    H148634   3.897   4.250  16.325 -0.1612 -0.2389 -1.8332
 9073TIP3    H248635   3.952   4.385  16.283  0.2510  0.2079  0.0505
 9074TIP3   OH248636   1.903   0.815   3.467 -0.4514  0.0220 -0.1310
 9074TIP3    H148637   1.883   0.797   3.375 -1.7636 -0.5120  0.2351
 9074TIP3    H248638   1.971   0.752   3.489  1.9485  1.9547 -1.4432
 9075TIP3   OH248639   1.290   1.314   2.892 -0.1985 -0.1277  0.4059
 9075TIP3    H148640   1.282   1.399   2.848 -1.8045 -0.9387 -0.9797
 9075TIP3    H248641   1.218   1.262   2.857  0.8614 -2.1439  1.0679
 9076TIP3   OH248642   4.521   2.246   2.868 -0.2352  0.4565  0.3672
 9076TIP3    H148643   4.586   2.307   2.902 -1.1466  1.8230 -0.2544
 9076TIP3    H248644   4.571   2.183   2.817  0.6362  1.3307  0.1155
 9077TIP3   OH248645   2.894   5.121   2.852  0.2484 -0.3423 -0.3108
 9077TIP3    H148646   2.951   5.193   2.824 -1.2365  1.4766  1.0818
 9077TIP3    H248647   2.911   5.113   2.946  1.2124 -2.6660 -0.6087
 9078TIP3   OH248648   6.552   2.938  12.604  0.2695  0.5868 -0.0001
 9078TIP3    H148649   6.594   2.963  12.687  0.5540  1.7376 -0.4740
 9078TIP3    H248650   6.594   2.855  12.581  1.4527  1.1156  0.1473
 9079TIP3   OH248651   4.425   3.514   4.260  0.1568 -0.0905 -0.0542
 9079TIP3    H148652   4.391   3.447   4.201  0.1435  1.0887 -1.4388
 9079TIP3    H248653   4.520   3.501   4.259  0.1072 -0.4840  0.1832
 9080TIP3   OH248654   4.990   3.484  13.126 -0.3187 -0.0387  0.0167
 9080TIP3    H148655   5.006   3.447  13.039 -0.6088 -2.2183  0.8183
 9080TIP3    H248656   4.915   3.436  13.160  0.7760 -0.4294  2.0951
 9081TIP3   OH248657   5.821   2.813   2.757  0.3479 -1.3670 -0.5241
 9081TIP3    H148658   5.768   2.837   2.833 -0.2941  0.3352 -1.4398
 9081TIP3    H248659   5.910   2.810   2.790  0.3256  1.2056  0.0005
 9082TIP3   OH248660   2.004   6.626  15.975 -0.4301 -0.3342  0.4260
 9082TIP3    H148661   2.079   6.576  16.007  1.6099  0.6588 -2.4065
 9082TIP3    H248662   2.040   6.712  15.951 -2.5458  0.3171 -0.7371
 9083TIP3   OH248663   2.771   4.099  16.961  0.0799  0.1950 -0.1124
 9083TIP3    H148664   2.683   4.135  16.951 -0.0267 -0.2929 -1.0189
 9083TIP3    H248665   2.760   4.025  17.020 -0.3585 -0.6563 -1.2252
 9084TIP3   OH248666   1.257   0.619  11.083  0.3914  0.5921 -0.0308
 9084TIP3    H148667   1.208   0.539  11.106 -0.1770  0.9332 -0.0289
 9084TIP3    H248668   1.278   0.660  11.167  0.7738  0.3938 -0.0284
 9085TIP3   OH248669   4.565   2.816  11.137  0.4018 -0.5667  0.1371
 9085TIP3    H148670   4.512   2.785  11.064 -1.5256 -1.8090  1.9541
 9085TIP3    H248671   4.580   2.909  11.118 -0.7987 -0.6466 -1.3974
 9086TIP3   OH248672   3.047   4.887  16.883 -0.2152 -0.1421  0.6999
 9086TIP3    H148673   3.078   4.809  16.836  0.5815  0.8982 -0.6066
 9086TIP3    H248674   2.953   4.891  16.865 -0.3598 -1.0677  1.2143
 9087TIP3   OH248675   5.608   1.327   5.125 -0.4575 -0.0631 -0.3221
 9087TIP3    H148676   5.638   1.280   5.202  1.6124  0.0778 -0.9863
 9087TIP3    H248677   5.543   1.389   5.158  0.2050 -0.1721  1.2592
 9088TIP3   OH248678   5.164   3.322  14.210 -0.2616 -0.4331  0.0171
 9088TIP3    H148679   5.145   3.410  14.242 -2.2246 -0.7209 -0.2322
 9088TIP3    H248680   5.108   3.265  14.262  0.1290 -1.4148 -0.6100
 9089TIP3   OH248681   1.027   2.295  12.804 -0.2027 -0.3073  0.3407
 9089TIP3    H148682   1.003   2.284  12.712 -1.5432 -1.2007  0.7728
 9089TIP3    H248683   0.972   2.232  12.851  2.4328 -1.9119  1.5133
 9090TIP3   OH248684   2.888   2.099  13.004 -0.2287  0.0523  0.0281
 9090TIP3    H148685   2.944   2.164  12.961 -1.1423  0.3587 -0.7390
 9090TIP3    H248686   2.822   2.151  13.049 -1.1623 -0.3277 -0.8595
 9091TIP3   OH248687   5.713   0.340  14.610 -0.1046 -0.5221 -0.5541
 9091TIP3    H148688   5.633   0.288  14.610 -1.2387  1.1056  1.3577
 9091TIP3    H248689   5.684   0.429  14.629  1.8990  0.6529 -2.5205
 9092TIP3   OH248690   1.409   3.825   3.057  0.4760  0.9655 -0.1236
 9092TIP3    H148691   1.424   3.882   3.132 -0.8608 -0.3889  1.2319
 9092TIP3    H248692   1.314   3.826   3.045  0.3506 -1.4184  0.3365
 9093TIP3   OH248693   0.211   5.357  16.166  0.0092  0.1623 -0.3832
 9093TIP3    H148694   0.147   5.312  16.109 -0.4128  2.5929 -1.9570
 9093TIP3    H248695   0.241   5.288  16.225 -1.7519 -1.8216 -1.6098
 9094TIP3   OH248696   3.285   6.579   0.990 -0.3343 -0.1615 -0.0991
 9094TIP3    H148697   3.292   6.525   0.911  2.2606  0.8750 -0.6814
 9094TIP3    H248698   3.240   6.658   0.961 -1.9926 -0.9377  0.2079
 9095TIP3   OH248699   5.911   6.239   6.406 -0.1193 -0.2426 -0.5069
 9095TIP3    H148700   5.915   6.160   6.461 -0.9614  0.4347  0.5567
 9095TIP3    H248701   5.869   6.305   6.461  0.0083  0.7838 -1.5988
 9096TIP3   OH248702   0.488   3.231  16.436 -0.0263  0.2996  0.9352
 9096TIP3    H148703   0.488   3.277  16.352  1.5529 -1.5514 -0.1584
 9096TIP3    H248704   0.520   3.296  16.499  1.5297  0.9262 -0.4329
 9097TIP3   OH248705   5.033   3.769   0.667  0.2862  0.2074 -0.6318
 9097TIP3    H148706   5.108   3.715   0.643  0.8259  1.3408 -1.5818
 9097TIP3    H248707   5.010   3.816   0.587 -0.8014  0.6415 -0.0858
 9098TIP3   OH248708   3.171   4.032   3.284 -0.1080  0.3127  0.4791
 9098TIP3    H148709   3.097   3.982   3.318 -0.0372 -0.4890 -0.5086
 9098TIP3    H248710   3.162   4.027   3.189 -0.0879  2.1673  0.3279
 9099TIP3   OH248711   1.211   2.160   5.184 -0.6023  0.5080 -0.0028
 9099TIP3    H148712   1.172   2.188   5.102 -1.0873 -1.6018 -0.5647
 9099TIP3    H248713   1.150   2.191   5.251 -2.4504 -1.2345 -0.7544
 9100TIP3   OH248714   3.575   4.902   6.478 -0.2410  0.0611  0.0301
 9100TIP3    H148715   3.594   4.962   6.406  0.5573 -0.0227  0.1685
 9100TIP3    H248716   3.514   4.950   6.534 -1.0005  0.0665 -0.7813
 9101TIP3   OH248717   1.106   6.279   5.761 -0.4336  0.4157  0.1327
 9101TIP3    H148718   1.040   6.324   5.814 -0.5277  1.2121 -0.6215
 9101TIP3    H248719   1.065   6.271   5.675  0.1933  0.3069 -0.1585
 9102TIP3   OH248720   5.025   2.839   0.733 -0.3555 -0.1784 -0.2673
 9102TIP3    H148721   5.097   2.795   0.688  0.0488  0.8826 -0.7163
 9102TIP3    H248722   5.054   2.931   0.738 -1.1277  0.0302  0.6762
 9103TIP3   OH248723   5.485   2.969  13.077 -0.2916  0.1310 -0.0357
 9103TIP3    H148724   5.486   2.984  12.983  0.9239 -0.8207 -0.2056
 9103TIP3    H248725   5.533   2.887  13.089 -0.1331  0.4021  1.4363
 9104TIP3   OH248726   1.714   6.351  11.823  0.2395 -0.5713  0.4893
 9104TIP3    H148727   1.622   6.375  11.829  0.1629 -0.5686 -0.6014
 9104TIP3    H248728   1.723   6.307  11.739  1.6947  1.5412 -0.5539
 9105TIP3   OH248729   4.258   4.644   1.412  0.3126  0.0483 -0.6116
 9105TIP3    H148730   4.173   4.668   1.450 -0.3832 -1.4057 -1.1763
 9105TIP3    H248731   4.290   4.725   1.372  0.1875  1.1514  1.3806
 9106TIP3   OH248732   2.871   2.323   5.114  0.4928 -1.4040 -0.0861
 9106TIP3    H148733   2.796   2.306   5.170  0.3697  1.2706  0.7244
 9106TIP3    H248734   2.945   2.285   5.160  0.0496 -1.2968  0.7358
 9107TIP3   OH248735   5.887   4.318  10.661  0.1278  0.2588  0.1528
 9107TIP3    H148736   5.853   4.408  10.668  0.5018  0.2699  2.2562
 9107TIP3    H248737   5.982   4.329  10.656  0.2079 -0.0207  0.9380
 9108TIP3   OH248738   4.752   5.587   2.550  0.0713  0.0655  0.0663
 9108TIP3    H148739   4.820   5.552   2.493 -0.4840 -0.4330 -0.3066
 9108TIP3    H248740   4.700   5.510   2.575 -0.9958  0.5593 -0.5320
 9109TIP3   OH248741   4.504   2.244   4.246  0.1310  0.2673 -0.1888
 9109TIP3    H148742   4.412   2.266   4.259 -0.0972 -1.6956  2.2431
 9109TIP3    H248743   4.504   2.175   4.180 -0.1182  0.4630 -0.3918
 9110TIP3   OH248744   5.781   5.893  14.922  0.4116  0.5917 -0.2178
 9110TIP3    H148745   5.758   5.980  14.890 -0.0404  0.9569  1.0291
 9110TIP3    H248746   5.740   5.833  14.861 -0.6324  1.2551 -0.1886
 9111TIP3   OH248747   0.516   4.107   0.910  0.2721 -0.1503 -0.5582
 9111TIP3    H148748   0.533   4.179   0.971 -0.9713 -1.1274  1.0004
 9111TIP3    H248749   0.507   4.150   0.825  0.8743  1.3799  0.1083
 9112TIP3   OH248750   4.462   2.643   3.979  0.7967 -0.4770 -0.0398
 9112TIP3    H148751   4.417   2.696   4.044  0.5272 -1.2249  0.3988
 9112TIP3    H248752   4.526   2.592   4.029  1.8298  0.2333 -0.5945
 9113TIP3   OH248753   2.269   1.240  14.618 -0.3786 -0.2175 -0.1358
 9113TIP3    H148754   2.293   1.329  14.594 -2.8062  0.6038  0.1565
 9113TIP3    H248755   2.280   1.189  14.538  0.7583  0.3808 -0.3816
 9114TIP3   OH248756   5.426   4.019  12.290  0.1772  0.3442 -0.6434
 9114TIP3    H148757   5.339   4.047  12.264  0.3155  1.3451 -0.0678
 9114TIP3    H248758   5.411   3.967  12.370  0.2510  2.3392  0.7490
 9115TIP3   OH248759   1.171   6.605  15.330 -0.4691  0.3115  0.4359
 9115TIP3    H148760   1.176   6.675  15.396 -2.0069 -0.0399  0.9883
 9115TIP3    H248761   1.181   6.524  15.381  0.3187  0.0993 -0.0554
 9116TIP3   OH248762   5.888   4.097   0.742 -0.2734  0.4225  0.8100
 9116TIP3    H148763   5.897   4.184   0.705  0.1719 -0.2409 -0.7092
 9116TIP3    H248764   5.977   4.072   0.769  0.3314 -0.8928 -2.0087
 9117TIP3   OH248765   2.029   6.213  11.246  0.3064 -0.2013  0.6241
 9117TIP3    H148766   1.980   6.196  11.326 -0.9740 -3.4349 -0.6616
 9117TIP3    H248767   2.087   6.137  11.236  0.7476  0.3149 -1.2913
 9118TIP3   OH248768   6.772   0.956   5.891 -0.0206 -0.1260  0.0253
 9118TIP3    H148769   6.822   0.994   5.963  2.1141 -1.5783 -0.6037
 9118TIP3    H248770   6.736   0.875   5.926  1.1648 -0.9224 -0.5581
 9119TIP3   OH248771   3.864   6.147   3.070  0.2389  0.0451  0.3041
 9119TIP3    H148772   3.887   6.088   3.142  1.2289 -1.5117 -1.2075
 9119TIP3    H248773   3.920   6.119   2.997 -1.6297  0.6889 -1.4732
 9120TIP3   OH248774   4.051   4.315  12.507 -0.6426  0.1155 -0.1299
 9120TIP3    H148775   3.994   4.388  12.530 -0.7331 -0.2578  0.8817
 9120TIP3    H248776   4.122   4.354  12.456 -0.2212  1.0572  1.1198
 9121TIP3   OH248777   1.169   5.819  16.460 -0.2984  0.4012  0.1202
 9121TIP3    H148778   1.236   5.835  16.394 -0.4272  2.7235  0.4726
 9121TIP3    H248779   1.188   5.731  16.493  0.0162 -0.6649 -2.6495
 9122TIP3   OH248780   0.628   1.640   2.621 -0.1265 -0.0414  0.2013
 9122TIP3    H148781   0.665   1.677   2.701  0.1888  0.7257 -0.2878
 9122TIP3    H248782   0.663   1.551   2.617 -1.4841 -0.6977  1.7804
 9123TIP3   OH248783   4.606   2.246  15.779  0.1438  0.0880  0.2744
 9123TIP3    H148784   4.544   2.302  15.732  0.9660  0.2390 -0.6582
 9123TIP3    H248785   4.551   2.195  15.839 -0.7081  1.2755  0.5396
 9124TIP3   OH248786   2.608   2.611   4.246  0.3507 -0.2852  0.2052
 9124TIP3    H148787   2.694   2.650   4.230 -0.5729  1.4882 -0.7264
 9124TIP3    H248788   2.549   2.658   4.187 -1.0103 -2.5805 -0.3843
 9125TIP3   OH248789   0.674   3.753   5.166 -0.0965 -0.0314  0.2065
 9125TIP3    H148790   0.664   3.775   5.073  0.7733  1.3952  0.4282
 9125TIP3    H248791   0.765   3.726   5.174 -0.5266 -1.5125  0.4117
 9126TIP3   OH248792   0.492   0.653  11.216  0.9331  0.1378  0.5751
 9126TIP3    H148793   0.560   0.596  11.254  0.5044 -0.5134  0.3841
 9126TIP3    H248794   0.540   0.712  11.158  1.5925  1.0428  1.9694
 9127TIP3   OH248795   3.487   5.969  11.264  0.0990 -0.5864 -0.0787
 9127TIP3    H148796   3.506   5.930  11.350  0.4548 -1.1794 -0.4136
 9127TIP3    H248797   3.399   6.006  11.273  0.2589 -0.3614  0.6358
 9128TIP3   OH248798   5.190   1.272   2.960  0.6916 -0.1560 -0.1665
 9128TIP3    H148799   5.176   1.195   2.905 -1.1679 -1.1374  1.5582
 9128TIP3    H248800   5.279   1.301   2.939  1.2946 -2.5047 -1.1653
 9129TIP3   OH248801   1.627   5.636  17.088 -0.1989 -0.4204  0.1993
 9129TIP3    H148802   1.679   5.617  17.167  0.9696 -1.0825 -0.7015
 9129TIP3    H248803   1.651   5.725  17.064 -0.2676 -0.3561  0.3646
 9130TIP3   OH248804   5.006   4.072  11.888  0.5446 -0.3828  0.5888
 9130TIP3    H148805   5.092   4.109  11.873 -0.9477  2.8885 -0.9470
 9130TIP3    H248806   4.959   4.139  11.939 -0.9051 -2.3956  2.0982
 9131TIP3   OH248807   4.773   6.479   0.099 -0.2436  0.3179 -0.0839
 9131TIP3    H148808   4.751   6.555   0.153 -0.0514  0.9867 -0.9223
 9131TIP3    H248809   4.869   6.474   0.102 -0.0349  1.9032 -2.3619
 9132TIP3   OH248810   1.707   3.840  17.074 -0.4894 -0.0397  0.5600
 9132TIP3    H148811   1.657   3.813  16.997 -1.3566  0.5966  0.8958
 9132TIP3    H248812   1.798   3.822  17.050 -0.8586 -1.1098 -0.0907
 9133TIP3   OH248813   4.204   3.366   2.750 -0.8532  0.1428  0.1480
 9133TIP3    H148814   4.178   3.305   2.682 -0.1833 -0.0182  0.0321
 9133TIP3    H248815   4.121   3.391   2.793 -1.3557  0.6867 -1.0785
 9134TIP3   OH248816   4.171   6.518   5.057 -0.2074 -0.0075 -0.0228
 9134TIP3    H148817   4.130   6.529   5.142 -0.8058 -1.3380 -0.1050
 9134TIP3    H248818   4.265   6.525   5.074 -0.2968 -0.7146  0.8313
 9135TIP3   OH248819   1.348   2.448  15.440  0.4346  0.2281  0.4888
 9135TIP3    H148820   1.342   2.402  15.524  0.7682  0.8095  0.8415
 9135TIP3    H248821   1.305   2.532  15.456 -0.6427 -0.1552 -0.3018
 9136TIP3   OH248822   3.326   0.015   4.426 -0.7290 -0.3078 -0.2936
 9136TIP3    H148823   3.409   0.044   4.463 -1.8510  0.8003  1.5088
 9136TIP3    H248824   3.325   0.051   4.338  1.0991 -1.1902 -0.7370
 9137TIP3   OH248825   1.127   1.954  13.704 -0.1775 -0.0255  0.4079
 9137TIP3    H148826   1.168   2.020  13.649  0.8927 -0.3848  0.7585
 9137TIP3    H248827   1.067   2.004  13.760  1.0114  0.7294  1.0439
 9138TIP3   OH248828   2.716   6.186   2.860 -0.0572 -0.0016  0.2717
 9138TIP3    H148829   2.778   6.246   2.820  0.0929  0.0147  0.5290
 9138TIP3    H248830   2.674   6.238   2.929 -0.1846 -0.0838  0.2554
 9139TIP3   OH248831   1.792   3.025  16.455  0.3906 -0.2387  0.0856
 9139TIP3    H148832   1.870   3.006  16.506  1.5179  2.4898 -0.4243
 9139TIP3    H248833   1.798   3.119  16.437 -2.3898 -0.1829 -1.0353
 9140TIP3   OH248834   3.835   0.776   5.435  0.7862  0.3727  0.2300
 9140TIP3    H148835   3.917   0.729   5.419  0.1465 -0.4126 -0.9151
 9140TIP3    H248836   3.767   0.714   5.409 -0.1725  1.0674  1.0130
 9141TIP3   OH248837   5.878   3.118   4.130  0.0654  0.3304 -0.6407
 9141TIP3    H148838   5.822   3.131   4.206  0.3406  1.0716 -0.5588
 9141TIP3    H248839   5.850   3.034   4.094 -2.2370  1.4188 -1.5717
 9142TIP3   OH248840   0.309   4.228  17.086  0.1792 -0.3187  0.2306
 9142TIP3    H148841   0.378   4.215  17.151  1.2035  1.1832 -0.5007
 9142TIP3    H248842   0.237   4.268  17.134  1.1109  1.2408  0.3982
 9143TIP3   OH248843   4.164   1.555  16.969 -0.0227 -0.5506  0.0150
 9143TIP3    H148844   4.181   1.519  16.882  0.5712 -1.8174  0.6420
 9143TIP3    H248845   4.199   1.491  17.030  0.7174  0.8987  1.1930
 9144TIP3   OH248846   6.266   1.924  13.273  0.3901  0.1162 -0.0500
 9144TIP3    H148847   6.172   1.921  13.293  0.4049  0.0550  0.0099
 9144TIP3    H248848   6.307   1.878  13.346  0.5047  0.5639  0.1705
 9145TIP3   OH248849   3.985   3.480  13.908 -0.1819  0.3720  0.0147
 9145TIP3    H148850   3.898   3.513  13.886 -1.3777 -1.1589  2.1263
 9145TIP3    H248851   4.016   3.539  13.977 -0.0691  0.2062  0.1067
 9146TIP3   OH248852   1.161   1.914   0.850 -0.2819  0.6472 -0.1024
 9146TIP3    H148853   1.200   1.827   0.848  2.0842  1.4987  2.3115
 9146TIP3    H248854   1.079   1.903   0.898  0.0971 -0.2425  0.3580
 9147TIP3   OH248855   3.070   1.318  11.725  0.5067 -0.5663 -0.0466
 9147TIP3    H148856   2.990   1.350  11.767  0.7496  0.5860 -0.4300
 9147TIP3    H248857   3.140   1.369  11.765  0.8865 -0.4779 -0.8020
 9148TIP3   OH248858   4.488   5.706   3.327  0.4895 -0.0350  0.0428
 9148TIP3    H148859   4.551   5.762   3.371 -0.0868  0.2477  0.5112
 9148TIP3    H248860   4.412   5.705   3.384  0.1090 -0.4745 -0.4574
 9149TIP3   OH248861   5.884   0.938  13.727  0.1234  0.6854  0.5020
 9149TIP3    H148862   5.942   0.967  13.657  2.1700 -0.5395  1.6058
 9149TIP3    H248863   5.867   1.017  13.778  1.1488  1.0073  0.3625
 9150TIP3   OH248864   5.519   0.319  12.606 -0.0548  0.1943 -0.3073
 9150TIP3    H148865   5.546   0.337  12.516 -0.7720  1.4698 -0.2888
 9150TIP3    H248866   5.507   0.224  12.609 -0.3373  0.1711 -1.6360
 9151TIP3   OH248867   3.341   2.262   0.860 -0.2763  0.5568 -0.3216
 9151TIP3    H148868   3.341   2.171   0.890 -1.0296  0.2163 -1.2822
 9151TIP3    H248869   3.423   2.299   0.892  0.7494 -0.8959 -1.1943
 9152TIP3   OH248870   6.441   2.037   4.159 -0.4582 -0.2685 -0.0055
 9152TIP3    H148871   6.513   2.100   4.156 -1.7756  1.2666 -0.1062
 9152TIP3    H248872   6.432   2.016   4.252 -2.2850  2.4733  0.5543
 9153TIP3   OH248873   6.412   1.867  16.246  0.1862 -0.6579  0.6959
 9153TIP3    H148874   6.391   1.960  16.244 -1.4939 -0.9719  1.8186
 9153TIP3    H248875   6.348   1.826  16.188  1.1474 -1.1074 -0.0870
 9154TIP3   OH248876   5.407   6.445  16.087 -0.7098  0.2195 -0.2516
 9154TIP3    H148877   5.386   6.352  16.095  0.2137  0.1174  1.4483
 9154TIP3    H248878   5.410   6.461  15.992  0.7292 -1.8592 -0.6261
 9155TIP3   OH248879   2.782   2.245   0.562 -0.4511 -0.3350 -0.4830
 9155TIP3    H148880   2.768   2.307   0.633 -2.8293 -0.0170 -1.1541
 9155TIP3    H248881   2.758   2.293   0.482 -1.0553 -1.6738 -1.1466
 9156TIP3   OH248882   5.272   6.585  17.037 -0.3555 -0.4417 -0.0442
 9156TIP3    H148883   5.283   6.649  17.107  0.0981 -0.2169 -0.3141
 9156TIP3    H248884   5.204   6.623  16.981 -1.2480 -0.9697  0.6555
 9157TIP3   OH248885   1.228   2.703   3.530 -0.2652 -0.6977 -0.2916
 9157TIP3    H148886   1.215   2.610   3.548 -3.2556 -0.0868  1.4174
 9157TIP3    H248887   1.226   2.745   3.617 -1.4738  1.1374 -1.1230
 9158TIP3   OH248888   4.381   1.640  15.516  0.1916 -0.2832  0.2501
 9158TIP3    H148889   4.431   1.605  15.590 -1.1069 -0.0805  1.2778
 9158TIP3    H248890   4.408   1.732  15.511  1.1369 -0.5821 -0.2888
 9159TIP3   OH248891   1.210   1.489   2.027  0.2559  0.5073  0.2832
 9159TIP3    H148892   1.121   1.468   2.002  0.2151  0.2493  0.6315
 9159TIP3    H248893   1.231   1.427   2.097 -0.1314  2.0944  1.8741
 9160TIP3   OH248894   5.997   6.281   5.795  0.9519 -0.3820 -0.6177
 9160TIP3    H148895   5.967   6.326   5.874  1.0498 -0.2687 -0.6453
 9160TIP3    H248896   6.027   6.195   5.826 -0.2400 -0.8504 -0.7045
 9161TIP3   OH248897   1.846   1.956  16.399  0.6752 -0.3907 -0.2561
 9161TIP3    H148898   1.794   2.010  16.458  2.0623 -0.2239  0.8919
 9161TIP3    H248899   1.922   2.011  16.377 -0.0170 -0.2615 -2.6326
 9162TIP3   OH248900   0.357   0.195  12.514  0.0841  0.5171 -0.7054
 9162TIP3    H148901   0.348   0.269  12.453 -1.4254 -0.0838 -1.2690
 9162TIP3    H248902   0.269   0.180  12.546  0.5103 -0.5408  0.0163
 9163TIP3   OH248903   6.368   6.642   0.462 -0.1512 -0.2928 -0.3934
 9163TIP3    H148904   6.304   6.684   0.403 -1.0170 -0.2701  0.5317
 9163TIP3    H248905   6.315   6.585   0.517  0.7318 -0.7924 -0.0495
 9164TIP3   OH248906   2.516   1.483  16.920 -0.2060  0.3267  0.1861
 9164TIP3    H148907   2.608   1.462  16.903 -0.2420  0.6683 -0.5020
 9164TIP3    H248908   2.514   1.578  16.927 -0.5776  0.3659 -0.3339
 9165TIP3   OH248909   6.111   2.786   0.054 -0.0800  0.0236 -0.2722
 9165TIP3    H148910   6.045   2.855   0.055  0.7044  0.7922  0.6834
 9165TIP3    H248911   6.095   2.738  -0.027  0.3063  2.2647 -1.7328
 9166TIP3   OH248912   2.126   4.540   2.822 -0.3498  0.0886 -0.7194
 9166TIP3    H148913   2.063   4.609   2.801 -1.0146 -0.3247 -0.0848
 9166TIP3    H248914   2.117   4.527   2.916 -0.8492 -1.4764 -0.9553
 9167TIP3   OH248915   6.563   6.427   3.322 -0.6634  0.1588 -0.2127
 9167TIP3    H148916   6.607   6.379   3.393  1.7600  0.0709 -1.6782
 9167TIP3    H248917   6.517   6.360   3.272  0.0904 -0.1911 -0.4370
 9168TIP3   OH248918   1.907   6.063  13.836 -0.2090  0.4372 -0.7680
 9168TIP3    H148919   1.829   6.068  13.780 -1.1847 -0.9472  0.3896
 9168TIP3    H248920   1.874   6.077  13.925  0.8822 -0.0088 -0.2709
 9169TIP3   OH248921   0.364   3.230   2.179  0.1178  0.6097  0.2423
 9169TIP3    H148922   0.430   3.291   2.145  0.9135 -0.2293  0.2569
 9169TIP3    H248923   0.338   3.268   2.262  0.5896  0.9468  0.2421
 9170TIP3   OH248924   4.146   4.096   5.657  0.5763 -0.1285 -0.4318
 9170TIP3    H148925   4.096   4.161   5.607 -0.1692 -0.9724 -0.8321
 9170TIP3    H248926   4.091   4.077   5.733  2.1478  1.8787  1.3311
 9171TIP3   OH248927   0.807   0.262   3.155  0.1930 -0.2489  0.3999
 9171TIP3    H148928   0.757   0.333   3.194  0.8978 -0.3166  1.4597
 9171TIP3    H248929   0.894   0.300   3.140  0.2716 -0.5832 -0.0142
 9172TIP3   OH248930   6.702   5.997   4.518  0.2340 -0.6676 -0.6491
 9172TIP3    H148931   6.770   5.933   4.498 -1.3733 -2.5412 -0.3578
 9172TIP3    H248932   6.621   5.947   4.517 -0.9493  1.1037  0.9615
 9173TIP3   OH248933   4.333   3.653   0.647 -0.2821 -0.2322  0.4408
 9173TIP3    H148934   4.321   3.651   0.552 -1.8486 -0.7701  0.6232
 9173TIP3    H248935   4.393   3.726   0.663  0.2169 -0.3098 -0.9714
 9174TIP3   OH248936   4.066   5.152   5.543  0.3190 -0.2087 -0.2827
 9174TIP3    H148937   4.046   5.154   5.637 -1.3967 -3.6750 -0.4319
 9174TIP3    H248938   4.161   5.140   5.539  0.2498 -1.5332  1.1194
 9175TIP3   OH248939   6.067   6.316  11.175 -0.0403  0.6474 -0.0935
 9175TIP3    H148940   6.111   6.267  11.106 -0.0093 -0.7525  0.8719
 9175TIP3    H248941   5.975   6.319  11.149  0.0966  0.7867 -0.5610
 9176TIP3   OH248942   0.165   0.512  11.838 -0.0891  0.1228  0.0067
 9176TIP3    H148943   0.132   0.550  11.757 -3.8487 -1.4155  0.5995
 9176TIP3    H248944   0.174   0.418  11.820 -0.4549 -0.1633  1.2027
 9177TIP3   OH248945   0.953   2.341   3.267 -0.3225 -0.5951 -0.2799
 9177TIP3    H148946   0.969   2.275   3.200  1.3733 -0.9364  0.4059
 9177TIP3    H248947   0.913   2.414   3.220  0.4349 -0.9940 -1.5816
 9178TIP3   OH248948   1.391   0.781   2.960 -0.8379 -0.5231  0.2248
 9178TIP3    H148949   1.348   0.845   3.017 -0.3267 -0.0981  0.1350
 9178TIP3    H248950   1.357   0.800   2.873 -0.3639 -0.0925  0.1311
 9179TIP3   OH248951   6.739   2.053   5.094  0.0748 -0.7258  0.0173
 9179TIP3    H148952   6.669   2.078   5.034 -0.4162  0.1723  0.9348
 9179TIP3    H248953   6.729   1.959   5.104 -0.1660 -0.8091 -0.8794
 9180TIP3   OH248954   2.238   4.996   2.089 -0.3425  0.2555  0.0361
 9180TIP3    H148955   2.292   4.974   2.013 -2.1400  0.5468 -1.3951
 9180TIP3    H248956   2.206   4.912   2.121 -1.1083  0.2399 -0.7346
 9181TIP3   OH248957   2.150   0.635  14.018 -0.1005  0.3487 -0.5916
 9181TIP3    H148958   2.153   0.679  13.934  0.4620 -0.0359 -0.7802
 9181TIP3    H248959   2.062   0.598  14.023  0.2450 -0.6892 -1.5750
 9182TIP3   OH248960   0.727   4.010  15.191 -0.0693 -0.0541 -0.8010
 9182TIP3    H148961   0.713   4.029  15.283  1.8961  1.8484 -0.7979
 9182TIP3    H248962   0.704   4.092  15.146  2.3763  0.3186 -1.5437
 9183TIP3   OH248963   2.219   4.397   4.810  0.0021 -0.8164  0.2178
 9183TIP3    H148964   2.268   4.444   4.877  0.8726 -1.6333  0.1802
 9183TIP3    H248965   2.164   4.463   4.768  2.2282  0.4771 -0.8224
 9184TIP3   OH248966   2.568   0.136  17.020 -0.2418  0.4793 -0.0134
 9184TIP3    H148967   2.547   0.046  16.997  0.4965  0.0341  0.9392
 9184TIP3    H248968   2.484   0.177  17.038 -0.6261  0.1457 -1.0030
 9185TIP3   OH248969   0.616   2.624   4.212  0.0681 -0.1371  0.4417
 9185TIP3    H148970   0.553   2.690   4.239  0.2713  0.0908  0.3679
 9185TIP3    H248971   0.615   2.626   4.116 -1.2083 -1.4760  0.3914
 9186TIP3   OH248972   5.661   6.425   5.718  0.1740 -0.4280  0.0197
 9186TIP3    H148973   5.713   6.503   5.702 -1.2483  0.4125 -0.7196
 9186TIP3    H248974   5.693   6.362   5.653 -0.2060  0.3356 -0.9458
 9187TIP3   OH248975   0.362   0.393  14.652 -0.1088  0.8200 -0.0496
 9187TIP3    H148976   0.288   0.356  14.701 -0.9196  0.4128 -1.5121
 9187TIP3    H248977   0.324   0.421  14.569  1.3560  0.7885 -0.7641
 9188TIP3   OH248978   1.737   6.400   6.508 -0.3226  0.7883 -0.0168
 9188TIP3    H148979   1.716   6.418   6.600 -0.1441 -0.0762  0.2068
 9188TIP3    H248980   1.653   6.376   6.469 -0.1641 -0.4053  0.3213
 9189TIP3   OH248981   6.129   4.777   1.492 -0.0382 -0.6835 -0.2502
 9189TIP3    H148982   6.097   4.739   1.410  0.6076  1.5042 -1.6170
 9189TIP3    H248983   6.059   4.761   1.555 -0.9117 -1.7411 -1.4357
 9190TIP3   OH248984   3.150   0.111   5.762  0.2383 -0.4690  0.2914
 9190TIP3    H148985   3.225   0.063   5.796  1.0586  0.3539 -0.3420
 9190TIP3    H248986   3.176   0.203   5.765 -0.7313 -0.1737  0.0301
 9191TIP3   OH248987   3.433   3.064   5.433 -0.0991 -0.0250 -0.0738
 9191TIP3    H148988   3.352   3.044   5.480  0.7354 -1.2541  0.9156
 9191TIP3    H248989   3.501   3.021   5.485  1.1711  0.8870 -0.9521
 9192TIP3   OH248990   5.934   6.005   2.999  0.6010 -0.0079 -0.2464
 9192TIP3    H148991   6.004   6.055   3.041  1.1831  0.5289 -1.7927
 9192TIP3    H248992   5.910   6.057   2.922 -2.7679  0.7661  1.1484
 9193TIP3   OH248993   1.133   6.128  15.138  0.3650  0.1281 -0.5009
 9193TIP3    H148994   1.076   6.193  15.178  1.0739  2.5216 -3.0686
 9193TIP3    H248995   1.074   6.060  15.106 -0.5097  0.0892  1.0903
 9194TIP3   OH248996   3.958   0.088  13.334  0.6322  0.4151  0.0658
 9194TIP3    H148997   4.002   0.037  13.266 -0.8635 -0.3771 -0.3635
 9194TIP3    H248998   4.021   0.092  13.406  0.9518 -1.7490 -0.0300
 9195TIP3   OH248999   2.611   4.900  13.354 -0.2504  0.3831  0.6334
 9195TIP3    H149000   2.603   4.810  13.384 -1.3828  0.1502 -0.2906
 9195TIP3    H249001   2.526   4.939  13.372  0.4015  1.4609  1.5497
 9196TIP3   OH249002   6.282   6.463  11.328  0.1514 -0.7891 -0.2415
 9196TIP3    H149003   6.329   6.388  11.292 -1.8618 -1.8038 -0.9371
 9196TIP3    H249004   6.191   6.448  11.302 -0.6470  0.8282  1.4162
 9197TIP3   OH249005   1.386   1.227   0.654  0.4038  0.3215 -0.3891
 9197TIP3    H149006   1.319   1.200   0.718  0.5628  1.3908  0.2603
 9197TIP3    H249007   1.461   1.171   0.674  0.3647  0.4676  0.2095
 9198TIP3   OH249008   4.730   4.870  12.351 -0.3347  0.1787  0.1200
 9198TIP3    H149009   4.781   4.944  12.318 -0.5617  0.3055  0.0584
 9198TIP3    H249010   4.681   4.839  12.275  2.0651 -1.9820 -0.7059
 9199TIP3   OH249011   5.021   5.632   1.788  0.6930 -0.2909  0.4523
 9199TIP3    H149012   5.097   5.648   1.845  1.5061  0.1622 -0.7136
 9199TIP3    H249013   5.053   5.652   1.700 -0.9409  0.4476 -0.0130
 9200TIP3   OH249014   6.479   4.203  11.519  0.2424  0.5121  0.4505
 9200TIP3    H149015   6.506   4.151  11.443  0.4926  2.3889 -0.8187
 9200TIP3    H249016   6.485   4.142  11.593 -1.3174 -1.7917 -1.1706
 9201TIP3   OH249017   3.540   6.745  11.417 -0.2109 -0.5985 -0.0996
 9201TIP3    H149018   3.587   6.789  11.347 -0.6322  0.1696  0.0957
 9201TIP3    H249019   3.483   6.683  11.372 -0.1698 -0.4100 -0.4157
 9202TIP3   OH249020   5.278   4.588   1.308  0.7102 -0.1939 -0.2144
 9202TIP3    H149021   5.222   4.581   1.231 -1.4494 -3.3746  1.4181
 9202TIP3    H249022   5.236   4.653   1.364  0.4764 -0.2265 -0.3536
 9203TIP3   OH249023   2.348   5.724   6.049 -0.0070 -0.1023 -0.8736
 9203TIP3    H149024   2.256   5.720   6.023 -0.2917  2.4445 -0.4912
 9203TIP3    H249025   2.346   5.747   6.142  0.9864  1.0848 -1.1201
 9204TIP3   OH249026   5.116   3.988   5.974 -0.4804 -0.3092 -0.5389
 9204TIP3    H149027   5.053   4.000   6.045  0.1535 -0.6017  0.0846
 9204TIP3    H249028   5.201   4.002   6.015  0.0220 -2.2642 -0.8010
 9205TIP3   OH249029   1.176   3.203   4.066 -0.2743 -0.3856  0.3667
 9205TIP3    H149030   1.168   3.292   4.099  1.8027 -0.1597  0.3568
 9205TIP3    H249031   1.128   3.205   3.983  0.4029  0.9675 -0.0317
 9206TIP3   OH249032   6.648   2.912  16.153 -0.0750  0.0004 -0.0966
 9206TIP3    H149033   6.580   2.846  16.168  0.5585 -0.5764  0.2475
 9206TIP3    H249034   6.726   2.878  16.197  0.0629  1.3289  0.7652
 9207TIP3   OH249035   1.464   3.843  17.258 -1.0794 -0.0944  0.1607
 9207TIP3    H149036   1.432   3.756  17.232 -1.9195  0.1164  0.4711
 9207TIP3    H249037   1.536   3.861  17.198 -1.3231 -0.7262 -0.3256
 9208TIP3   OH249038   5.726   5.997   2.548 -0.0715 -0.2454 -0.2549
 9208TIP3    H149039   5.726   5.944   2.627 -1.4444  0.6783  0.4035
 9208TIP3    H249040   5.711   5.934   2.477  1.1201 -1.0703  0.1920
 9209TIP3   OH249041   5.425   0.704  17.080 -0.4670  0.4824 -0.9535
 9209TIP3    H149042   5.459   0.775  17.135  1.9749 -0.0928 -1.6156
 9209TIP3    H249043   5.339   0.684  17.118  0.4698  1.1173  1.7105
 9210TIP3   OH249044   4.515   0.037  15.940 -0.1207  0.0241  0.0322
 9210TIP3    H149045   4.422   0.035  15.916  0.1939 -0.8031 -1.1852
 9210TIP3    H249046   4.552  -0.040  15.898  0.6976 -0.9406  2.3484
 9211TIP3   OH249047   6.005   6.577  17.080 -0.2681 -0.1180  0.0742
 9211TIP3    H149048   5.984   6.490  17.047 -1.5211  0.3397 -0.4202
 9211TIP3    H249049   5.920   6.620  17.088  0.3469  1.1220  0.1280
 9212TIP3   OH249050   0.071   5.096   4.811  0.5255  0.2334 -0.2336
 9212TIP3    H149051  -0.015   5.094   4.854  0.1871 -0.6737 -0.9190
 9212TIP3    H249052   0.060   5.155   4.737  1.2521  2.2124  1.1287
 9213TIP3   OH249053   3.387   1.393   5.680 -0.4009 -0.0178  0.4674
 9213TIP3    H149054   3.397   1.428   5.592 -0.8940  0.4815  0.6058
 9213TIP3    H249055   3.336   1.459   5.727  1.2225  0.4789  1.5883
 9214TIP3   OH249056   3.673   3.625   1.884  0.3170  0.4078 -0.0058
 9214TIP3    H149057   3.751   3.652   1.835 -0.0051  0.8238 -0.2861
 9214TIP3    H249058   3.641   3.705   1.924  0.4066  0.1241  0.6522
 9215TIP3   OH249059   3.455   3.280   5.269  0.1798 -0.4294 -0.3333
 9215TIP3    H149060   3.535   3.309   5.311 -1.0402 -0.8947  2.5095
 9215TIP3    H249061   3.440   3.192   5.301 -2.6253  0.4546  1.1694
 9216TIP3   OH249062   3.824   3.580   3.858 -0.3558 -0.0091  0.0675
 9216TIP3    H149063   3.793   3.515   3.796  0.0834  2.4247 -2.9386
 9216TIP3    H249064   3.747   3.631   3.881  0.0024  1.1498 -1.1859
 9217TIP3   OH249065   5.305   2.186   1.736 -0.5774  0.0375  0.3548
 9217TIP3    H149066   5.220   2.146   1.748 -0.9063  1.4268  3.5962
 9217TIP3    H249067   5.289   2.260   1.676 -1.6492  0.2606  0.9079
 9218TIP3   OH249068   5.999   3.297  13.503  0.1035 -0.0124 -0.3536
 9218TIP3    H149069   5.913   3.331  13.476  0.2495 -0.6304 -1.6796
 9218TIP3    H249070   6.062   3.351  13.455  0.4217 -0.2850 -0.2413
 9219TIP3   OH249071   2.811   1.908  10.677 -0.7808 -0.1982  0.3267
 9219TIP3    H149072   2.872   1.978  10.653 -1.3304 -0.0236 -0.6493
 9219TIP3    H249073   2.859   1.854  10.740  0.2237  0.1672 -0.1024
 9220TIP3   OH249074   6.669   5.217  15.682  0.4359  0.7198 -0.5551
 9220TIP3    H149075   6.704   5.219  15.593  2.6509  0.4431  0.2648
 9220TIP3    H249076   6.640   5.307  15.698  1.5298  1.1599 -0.9814
 9221TIP3   OH249077   6.367   1.034   5.454 -0.0522  0.5388 -0.2251
 9221TIP3    H149078   6.367   0.942   5.428 -2.6861  0.8631 -1.6752
 9221TIP3    H249079   6.452   1.068   5.425  0.3545 -1.0811 -0.9929
 9222TIP3   OH249080   2.255   5.257  14.453  0.1865 -0.4213 -0.3557
 9222TIP3    H149081   2.203   5.282  14.377  2.1074 -1.0498 -1.9966
 9222TIP3    H249082   2.273   5.339  14.499 -0.8434  0.0001 -0.6958
 9223TIP3   OH249083   3.711   3.317  11.263 -0.4295  0.3251 -0.4117
 9223TIP3    H149084   3.642   3.326  11.197 -0.4790  3.0996 -0.0727
 9223TIP3    H249085   3.778   3.264  11.220 -2.0267 -1.0912 -1.3096
 9224TIP3   OH249086   2.059   4.912   1.855 -0.2908  0.1546  0.5732
 9224TIP3    H149087   2.037   4.820   1.843  1.2348 -0.4018  1.6470
 9224TIP3    H249088   2.062   4.924   1.950 -0.8125  1.4235  0.4610
 9225TIP3   OH249089   4.443   4.533  13.491  0.6602  0.9789  0.9215
 9225TIP3    H149090   4.386   4.585  13.547  0.0059 -0.0884  1.2730
 9225TIP3    H249091   4.528   4.577  13.496 -0.2897  3.1100 -0.2995
 9226TIP3   OH249092   0.999   5.132   3.633 -0.2028 -0.3005  0.8963
 9226TIP3    H149093   0.915   5.113   3.675 -0.8027 -1.5674 -0.7479
 9226TIP3    H249094   1.064   5.109   3.699 -1.1331 -0.2707  1.8489
 9227TIP3   OH249095   3.723   3.945  14.426 -0.5240 -0.5140  0.2491
 9227TIP3    H149096   3.755   4.035  14.432 -1.4998 -0.0723 -0.9737
 9227TIP3    H249097   3.776   3.905  14.357  0.1823 -1.0219  1.0609
 9228TIP3   OH249098   5.977   0.184   5.590 -0.6001 -0.2793  0.3108
 9228TIP3    H149099   5.983   0.098   5.549  2.1308  0.2349 -0.6148
 9228TIP3    H249100   5.901   0.179   5.648 -0.1416 -3.5024  0.7919
 9229TIP3   OH249101   1.576   6.677  13.652 -0.1850 -0.1509  0.0020
 9229TIP3    H149102   1.534   6.715  13.729 -0.3462 -1.5911  0.6552
 9229TIP3    H249103   1.667   6.664  13.678  0.2309  1.1096 -0.7289
 9230TIP3   OH249104   0.004   4.984  15.755 -0.7729 -0.4186  0.4597
 9230TIP3    H149105  -0.068   5.034  15.715 -0.6124 -0.8623 -0.4193
 9230TIP3    H249106   0.083   5.021  15.715 -0.7430 -2.7120 -1.8600
 9231TIP3   OH249107   4.395   1.156   5.883  0.0418 -0.0226 -0.1009
 9231TIP3    H149108   4.343   1.076   5.874 -1.2884  0.7716  0.2178
 9231TIP3    H249109   4.395   1.174   5.977  0.2567  0.3866 -0.1775
 9232TIP3   OH249110   3.969   6.054  14.019  0.0946 -0.2391 -0.1754
 9232TIP3    H149111   3.875   6.055  14.035  0.1135 -0.4864 -0.0417
 9232TIP3    H249112   4.006   6.114  14.084  0.4639 -3.2833  2.6674
 9233TIP3   OH249113   2.345   3.764  10.670 -0.1779  0.7688 -0.4140
 9233TIP3    H149114   2.422   3.813  10.643  1.3898 -1.7774 -0.8965
 9233TIP3    H249115   2.293   3.756  10.590  0.0094  0.8538 -0.5451
 9234TIP3   OH249116   1.745   3.826   5.555  0.6584 -0.1935  0.0036
 9234TIP3    H149117   1.804   3.776   5.499  2.3394 -0.1458  1.6271
 9234TIP3    H249118   1.786   3.913   5.561 -0.4884  0.3718 -0.1709
 9235TIP3   OH249119   1.581   1.483  14.221  0.4113 -0.1967 -0.4545
 9235TIP3    H149120   1.606   1.418  14.156  0.5454 -1.3882  0.7344
 9235TIP3    H249121   1.501   1.522  14.187  0.4549 -0.8234 -1.3069
 9236TIP3   OH249122   6.530   3.614   5.610  0.1785  0.2371 -0.3484
 9236TIP3    H149123   6.552   3.579   5.524  1.3615 -0.3959  0.1771
 9236TIP3    H249124   6.613   3.652   5.641  0.4892 -1.7634  1.5199
 9237TIP3   OH249125   0.651   5.882   5.596 -0.3542  0.4030 -0.0323
 9237TIP3    H149126   0.561   5.851   5.588 -0.9214  1.8924  0.1754
 9237TIP3    H249127   0.665   5.893   5.690 -0.1596  0.7343 -0.0980
 9238TIP3   OH249128   2.365   5.783  12.142 -0.1116  0.4068 -0.1803
 9238TIP3    H149129   2.273   5.760  12.156 -0.1641  1.5768  1.7864
 9238TIP3    H249130   2.401   5.709  12.094 -1.6316 -1.0091  0.7369
 9239TIP3   OH249131   3.360   6.481  15.558 -0.5769  0.2163  0.3554
 9239TIP3    H149132   3.399   6.469  15.645 -0.2020 -1.0764  0.0305
 9239TIP3    H249133   3.427   6.448  15.497 -1.3771 -0.1628 -0.3347
 9240TIP3   OH249134   3.091   6.556   3.214  0.3498  0.2028  0.1504
 9240TIP3    H149135   3.174   6.602   3.226  0.6764 -0.6042  1.1110
 9240TIP3    H249136   3.114   6.477   3.165  0.5373 -1.0903  2.2273
 9241TIP3   OH249137   4.192   2.668   5.232  0.5922 -0.2125 -0.2356
 9241TIP3    H149138   4.274   2.713   5.255 -0.9350  1.1613  3.1713
 9241TIP3    H249139   4.163   2.627   5.314 -1.4688 -1.8437 -1.6757
 9242TIP3   OH249140   4.867   5.917  16.489 -0.2106 -0.2482 -0.3299
 9242TIP3    H149141   4.861   5.840  16.433  3.5435 -1.2375  0.3239
 9242TIP3    H249142   4.931   5.973  16.445  0.2947  0.4952  1.2845
 9243TIP3   OH249143   5.729   2.749  10.925  0.0149 -0.4117  0.4307
 9243TIP3    H149144   5.668   2.821  10.935  1.4412  0.9287 -0.0830
 9243TIP3    H249145   5.680   2.681  10.878 -0.6153  1.2465 -1.4109
 9244TIP3   OH249146   4.129   0.901  13.396 -0.4155  0.3851  0.0682
 9244TIP3    H149147   4.169   0.824  13.357  1.1777  0.0426  2.1880
 9244TIP3    H249148   4.049   0.914  13.346 -0.1498 -1.9267 -1.1098
 9245TIP3   OH249149   2.604   1.501   5.657  0.3189 -0.0671 -0.2982
 9245TIP3    H149150   2.599   1.588   5.697  1.1616 -0.7257  1.3237
 9245TIP3    H249151   2.662   1.513   5.581  0.6908  0.7230  0.0970
 9246TIP3   OH249152   0.567   0.540   5.738 -0.1599 -0.1240 -0.1112
 9246TIP3    H149153   0.580   0.604   5.808 -2.1582  1.0645 -0.7351
 9246TIP3    H249154   0.513   0.472   5.777 -0.2309 -0.0926 -0.1542
 9247TIP3   OH249155   2.468   2.253   0.547  0.1341  0.7973 -0.4639
 9247TIP3    H149156   2.514   2.223   0.469 -0.2863 -0.9697 -0.0875
 9247TIP3    H249157   2.534   2.255   0.615 -0.3280 -2.5840  0.2929
 9248TIP3   OH249158   3.378   4.468  11.875  0.1392 -0.0598  0.0975
 9248TIP3    H149159   3.322   4.529  11.923  0.4389 -0.4740  0.9822
 9248TIP3    H249160   3.321   4.393  11.856  0.2964 -0.3334  0.6975
 9249TIP3   OH249161   0.686   1.786   0.945  1.1384 -0.2004 -0.0754
 9249TIP3    H149162   0.605   1.773   0.895  0.7301  0.0888  0.4895
 9249TIP3    H249163   0.714   1.698   0.969 -0.5388 -0.2235  2.0837
 9250TIP3   OH249164   4.681   0.888  13.562 -0.6064  0.1825 -0.3598
 9250TIP3    H149165   4.686   0.981  13.583  2.3813  0.2409 -0.8457
 9250TIP3    H249166   4.633   0.885  13.479  0.5888  1.5037 -1.1520
 9251TIP3   OH249167   1.552   2.364   3.077  0.5716  0.2024  0.3480
 9251TIP3    H149168   1.564   2.447   3.030 -0.0483  0.8087  1.2430
 9251TIP3    H249169   1.511   2.306   3.012  0.1893  0.8771 -0.0280
 9252TIP3   OH249170   2.360   0.440  13.838  0.1058  0.4131  0.0497
 9252TIP3    H149171   2.381   0.533  13.845 -0.9116  0.7841 -1.4016
 9252TIP3    H249172   2.376   0.419  13.746  2.7607 -1.5097  0.8313
 9253TIP3   OH249173   6.049   3.816  10.886  0.5591 -0.1333 -0.0054
 9253TIP3    H149174   5.968   3.766  10.883 -0.9922  1.9083  2.4325
 9253TIP3    H249175   6.036   3.888  10.824  0.3436  0.3372  0.5680
 9254TIP3   OH249176   5.631   4.500  16.201 -0.5568  0.2328  0.0577
 9254TIP3    H149177   5.646   4.513  16.294  0.6238 -1.3983  0.1353
 9254TIP3    H249178   5.585   4.416  16.195  1.5093 -0.8959 -0.9189
 9255TIP3   OH249179   1.392   5.381  13.513 -1.0698 -0.1857  0.1630
 9255TIP3    H149180   1.349   5.297  13.498 -1.0540  0.0956 -1.6803
 9255TIP3    H249181   1.429   5.405  13.428  2.5655 -0.3028  1.5452
 9256TIP3   OH249182   5.700   4.895   0.731  0.8922 -0.1035  0.3958
 9256TIP3    H149183   5.626   4.902   0.671 -0.3228  0.7176  1.9168
 9256TIP3    H249184   5.675   4.948   0.807  0.4403 -4.2390  3.5030
 9257TIP3   OH249185   2.210   2.297  11.108 -0.5320  0.0175  0.3375
 9257TIP3    H149186   2.292   2.309  11.158  1.6220 -2.4836 -2.2297
 9257TIP3    H249187   2.170   2.220  11.149 -0.1430 -0.4205 -0.0913
 9258TIP3   OH249188   1.573   4.515   1.194 -0.0439 -0.9514  0.5494
 9258TIP3    H149189   1.622   4.521   1.112  0.3330  0.7770  0.8561
 9258TIP3    H249190   1.634   4.548   1.261 -1.8049  2.0905  0.8254
 9259TIP3   OH249191   1.173   6.339   4.270  0.4792  0.6248 -0.5782
 9259TIP3    H149192   1.086   6.379   4.278  0.7337  0.8867  1.6925
 9259TIP3    H249193   1.217   6.363   4.351  2.1968 -0.6654 -1.0832
 9260TIP3   OH249194   6.089   2.136   3.488 -0.5808  0.1830  0.2439
 9260TIP3    H149195   6.109   2.164   3.398  0.0939  0.2316  0.4056
 9260TIP3    H249196   6.047   2.213   3.528 -2.5378 -0.4000 -0.5444
 9261TIP3   OH249197   6.442   0.196   2.998  0.3467 -0.0740 -0.1738
 9261TIP3    H149198   6.385   0.273   2.996  0.4877  0.0273 -2.0435
 9261TIP3    H249199   6.528   0.230   2.972  0.8518 -0.5537  0.8134
 9262TIP3   OH249200   5.768   2.201  12.212 -0.6430 -0.0417 -0.1699
 9262TIP3    H149201   5.689   2.225  12.163 -0.7317 -1.1251 -0.6024
 9262TIP3    H249202   5.762   2.250  12.294 -0.1266  2.3655 -1.5046
 9263TIP3   OH249203   0.719   5.582   2.821 -0.3225 -0.3751 -0.2424
 9263TIP3    H149204   0.726   5.493   2.855 -0.3146 -0.2928 -0.0291
 9263TIP3    H249205   0.744   5.638   2.894 -0.9190 -0.1738 -0.1846
 9264TIP3   OH249206   3.335   2.459  11.128 -0.5374 -0.5228 -0.3166
 9264TIP3    H149207   3.370   2.473  11.040 -2.9307  2.8671 -0.9053
 9264TIP3    H249208   3.241   2.452  11.116 -0.9362 -0.0698  1.9825
 9265TIP3   OH249209   0.166   2.193   2.388  0.3224  0.4750  0.0963
 9265TIP3    H149210   0.200   2.144   2.463 -0.0082  0.0873 -0.0024
 9265TIP3    H249211   0.142   2.125   2.324  1.9486  0.8441 -0.9505
 9266TIP3   OH249212   5.017   4.973   4.175  0.2202  0.2566  0.3913
 9266TIP3    H149213   5.085   4.905   4.170 -0.7915 -0.7047 -2.0820
 9266TIP3    H249214   5.063   5.055   4.159  0.8546 -0.3652 -1.1154
 9267TIP3   OH249215   0.232   3.128  11.974 -0.3724 -0.3033  0.0215
 9267TIP3    H149216   0.155   3.093  12.019 -0.9216  3.5491  2.5557
 9267TIP3    H249217   0.199   3.201  11.923  1.4096  0.6082  0.1077
 9268TIP3   OH249218   3.144   5.218   5.016  0.1646  0.1525 -0.3928
 9268TIP3    H149219   3.237   5.225   4.996  0.5707 -0.9898  0.9376
 9268TIP3    H249220   3.114   5.143   4.965  0.1663  0.0220 -0.2033
 9269TIP3   OH249221   2.490   1.404   1.917  0.1844 -0.2082  0.0806
 9269TIP3    H149222   2.458   1.316   1.896  0.3092 -0.0837 -0.6567
 9269TIP3    H249223   2.410   1.456   1.929 -0.0110 -1.0208  3.4612
 9270TIP3   OH249224   1.834   1.677  15.039 -0.0141 -0.3768  0.1147
 9270TIP3    H149225   1.810   1.656  15.129  1.7190 -1.9257  0.2780
 9270TIP3    H249226   1.799   1.606  14.986  0.1661 -0.2073 -0.2434
 9271TIP3   OH249227   1.981   5.454   1.779  0.3058 -0.2574 -0.7313
 9271TIP3    H149228   1.917   5.452   1.850 -0.0746  1.1881 -1.0084
 9271TIP3    H249229   1.991   5.362   1.754 -1.5956 -0.5458 -0.6138
 9272TIP3   OH249230   2.255   2.098   3.428  0.3134  0.4870  0.8086
 9272TIP3    H149231   2.268   2.142   3.512  1.3822  2.8310 -0.4762
 9272TIP3    H249232   2.164   2.117   3.406 -0.6375 -1.9353  2.3198
 9273TIP3   OH249233   5.944   6.418   4.600  0.0361  0.4280  0.0860
 9273TIP3    H149234   5.893   6.467   4.536  0.7477  1.6178  0.4038
 9273TIP3    H249235   5.904   6.330   4.601 -0.0685  0.4292 -1.8647
 9274TIP3   OH249236   4.903   0.975   5.110 -0.2871 -0.4306 -0.5188
 9274TIP3    H149237   4.955   1.045   5.150 -0.1601 -0.3770 -0.7790
 9274TIP3    H249238   4.927   0.897   5.160  1.0008 -0.6548 -1.4360
 9275TIP3   OH249239   1.964   2.422  16.142 -0.2924  0.6113 -0.9065
 9275TIP3    H149240   1.913   2.502  16.149  1.0006  1.3694  0.5119
 9275TIP3    H249241   2.054   2.449  16.163  0.3168 -1.0537 -1.2059
 9276TIP3   OH249242   2.814   2.009   2.587  0.5687 -0.1555 -0.4501
 9276TIP3    H149243   2.800   2.025   2.494  0.2224  2.8868  0.0141
 9276TIP3    H249244   2.727   1.989   2.621  0.5340 -0.3236 -0.6397
 9277TIP3   OH249245   3.850   6.099  16.937 -0.0110  0.6578 -0.3108
 9277TIP3    H149246   3.802   6.095  17.020  0.7019  0.4340  0.0957
 9277TIP3    H249247   3.906   6.176  16.946  1.0036 -0.0987 -0.0673
 9278TIP3   OH249248   5.101   4.954  15.924  0.0923  0.2616  0.3513
 9278TIP3    H149249   5.065   4.983  15.841 -2.0093  1.1759  1.5135
 9278TIP3    H249250   5.071   4.864  15.933  0.9614 -0.1017 -0.1760
 9279TIP3   OH249251   1.131   4.517  15.401  0.1869 -0.0021 -0.0027
 9279TIP3    H149252   1.211   4.500  15.352 -0.1634 -0.7730 -0.3328
 9279TIP3    H249253   1.147   4.480  15.488  0.1609 -0.2381 -0.0972
 9280TIP3   OH249254   5.441   4.921   1.300  0.0014 -0.8900  0.3291
 9280TIP3    H149255   5.347   4.903   1.300  0.0922 -1.6846  2.7323
 9280TIP3    H249256   5.480   4.842   1.263 -0.1299 -2.2551  2.8558
 9281TIP3   OH249257   4.403   5.703  12.640  0.6145 -0.3477 -0.6332
 9281TIP3    H149258   4.359   5.749  12.569 -1.5121 -1.6206 -0.2626
 9281TIP3    H249259   4.424   5.617  12.604 -0.9431 -1.1918  0.3337
 9282TIP3   OH249260   3.310   5.446   5.826 -0.0704  0.4393 -0.2406
 9282TIP3    H149261   3.395   5.485   5.806 -0.5160  0.7968 -1.5495
 9282TIP3    H249262   3.249   5.488   5.765 -1.1147 -0.1022  0.3949
 9283TIP3   OH249263   5.530   5.234  15.991 -0.0454  0.1458 -0.2792
 9283TIP3    H149264   5.456   5.193  15.945  0.8479 -0.9737 -0.7706
 9283TIP3    H249265   5.594   5.164  16.000  1.3505  1.3121 -0.7046
 9284TIP3   OH249266   1.343   5.443   2.503  0.4259  0.3498 -0.3923
 9284TIP3    H149267   1.308   5.397   2.580 -0.1327  0.5746 -0.5090
 9284TIP3    H249268   1.438   5.441   2.515  0.3369  0.5661  0.4125
 9285TIP3   OH249269   2.157   1.544  15.837  0.2572 -0.1349  0.0704
 9285TIP3    H149270   2.121   1.516  15.752  2.7486 -0.3751 -0.9864
 9285TIP3    H249271   2.203   1.466  15.869  2.2629  0.9291 -0.0691
 9286TIP3   OH249272   6.121   4.915  13.987 -0.5311  0.0937 -0.7241
 9286TIP3    H149273   6.205   4.954  14.013 -0.8876  0.9340 -0.8008
 9286TIP3    H249274   6.056   4.982  14.006 -1.0256  0.0030 -1.9598
 9287TIP3   OH249275   0.824   0.125   4.780 -0.0570 -0.5296  0.5110
 9287TIP3    H149276   0.849   0.205   4.732  1.5497 -1.3955 -0.1718
 9287TIP3    H249277   0.744   0.149   4.826  0.7006  1.6601  0.7957
 9288TIP3   OH249278   6.524   6.696  17.021  0.2624 -0.1318 -0.1382
 9288TIP3    H149279   6.541   6.704  16.927 -0.2513  1.9414 -0.1226
 9288TIP3    H249280   6.450   6.756  17.037  0.7731  0.0859  1.6787
 9289TIP3   OH249281   5.489   0.265  15.463  0.2921 -0.1393  0.8601
 9289TIP3    H149282   5.509   0.357  15.480  0.9389 -0.0234 -0.4123
 9289TIP3    H249283   5.560   0.217  15.506 -0.0195 -0.0534  1.4842
 9290TIP3   OH249284   3.308   5.173   5.739 -0.7745  0.1181  0.0053
 9290TIP3    H149285   3.320   5.266   5.758  0.4613 -0.4340  2.2998
 9290TIP3    H249286   3.239   5.144   5.800 -0.5609 -0.6213 -0.0862
 9291TIP3   OH249287   0.528   1.131  15.501  0.2773  0.0831 -0.1677
 9291TIP3    H149288   0.563   1.127  15.590  0.1217  0.0708 -0.1075
 9291TIP3    H249289   0.594   1.086  15.448  0.5251  0.3709 -0.1069
 9292TIP3   OH249290   6.691   0.733  13.820 -0.0548  0.2030 -0.1676
 9292TIP3    H149291   6.687   0.740  13.916 -1.4143 -1.3314 -0.0743
 9292TIP3    H249292   6.617   0.678  13.797 -0.1900  1.1550 -2.2000
 9293TIP3   OH249293   0.787   3.473   2.528  0.1994 -0.2059  0.2141
 9293TIP3    H149294   0.857   3.418   2.566 -1.8228 -2.6715  0.6669
 9293TIP3    H249295   0.790   3.453   2.434 -1.4527 -2.4214  0.5431
 9294TIP3   OH249296   2.436   4.670   1.025  0.1889 -0.3803 -0.3023
 9294TIP3    H149297   2.414   4.649   0.934 -2.8718 -0.1917  0.3003
 9294TIP3    H249298   2.443   4.585   1.068  0.4091 -0.4369 -0.4458
 9295TIP3   OH249299   0.987   0.949   5.210 -0.5299  0.2219 -0.0038
 9295TIP3    H149300   1.053   1.009   5.244 -0.0262 -0.8772  1.0153
 9295TIP3    H249301   0.934   1.003   5.152  0.9544  1.2495 -0.4653
 9296TIP3   OH249302   0.764   3.298   4.437  0.1635  0.5021  0.1206
 9296TIP3    H149303   0.858   3.316   4.442  0.0254  1.5087 -0.5373
 9296TIP3    H249304   0.738   3.329   4.350 -0.4395 -1.5224 -0.4768
 9297TIP3   OH249305   4.297   0.274  11.275  0.2006 -1.0193 -0.3067
 9297TIP3    H149306   4.278   0.239  11.362 -1.4472 -2.0709 -1.0428
 9297TIP3    H249307   4.347   0.205  11.232 -0.5523 -1.2910 -0.7761
 9298TIP3   OH249308   5.892   3.498   0.335  0.2329 -0.2468 -0.0324
 9298TIP3    H149309   5.907   3.407   0.362  0.7753 -0.6037 -1.4734
 9298TIP3    H249310   5.885   3.546   0.418 -0.9916 -1.7289  0.7756
 9299TIP3   OH249311   0.036   2.030  16.265 -0.3439 -0.8522  0.1461
 9299TIP3    H149312   0.052   2.077  16.347  0.7798  0.7377 -0.9188
 9299TIP3    H249313  -0.058   2.040  16.250 -0.5557 -1.1129  1.1934
 9300TIP3   OH249314   5.912   3.982   1.520 -0.2458  0.2970  0.0923
 9300TIP3    H149315   5.901   3.947   1.432 -0.2016  0.5125  0.0003
 9300TIP3    H249316   5.840   3.944   1.570 -0.1478  0.0070  0.0159
 9301TIP3   OH249317   3.148   4.638  14.985 -0.1435 -0.2624 -0.1075
 9301TIP3    H149318   3.205   4.626  15.060 -0.3997  0.7186  0.2617
 9301TIP3    H249319   3.128   4.550  14.955  1.3722 -0.6257 -0.1080
 9302TIP3   OH249320   6.467   4.618  16.990  0.5376 -0.1106 -0.1509
 9302TIP3    H149321   6.403   4.683  17.018  1.0667  0.3342  0.0499
 9302TIP3    H249322   6.551   4.653  17.019  0.8429 -0.8370 -0.1278
 9303TIP3   OH249323   3.581   3.858   5.226 -0.0051 -0.5156 -0.1852
 9303TIP3    H149324   3.559   3.769   5.196  1.0968 -1.1286  0.7368
 9303TIP3    H249325   3.578   3.853   5.321  0.3532  0.3693 -0.1170
 9304TIP3   OH249326   2.370   3.968   2.979  0.2225  0.1632  0.4568
 9304TIP3    H149327   2.374   4.004   2.891  0.2344  1.5676  0.9980
 9304TIP3    H249328   2.303   4.020   3.024  0.3005 -0.4393  1.3067
 9305TIP3   OH249329   4.943   3.171  13.404 -0.3918  0.0045 -0.4796
 9305TIP3    H149330   4.873   3.193  13.466 -1.5675 -0.6611 -1.5316
 9305TIP3    H249331   5.003   3.245  13.408  0.0100 -0.3409  2.0259
 9306TIP3   OH249332   6.507   3.279   1.756  0.2894  0.0197 -0.6763
 9306TIP3    H149333   6.430   3.335   1.748 -0.0550 -0.6609 -3.0332
 9306TIP3    H249334   6.478   3.193   1.724  1.3130 -1.0208  1.0495
 9307TIP3   OH249335   6.539   3.649   3.083 -0.2681 -0.4106 -0.3045
 9307TIP3    H149336   6.450   3.664   3.114  0.1216  1.2039  0.1015
 9307TIP3    H249337   6.595   3.663   3.160  0.4549  0.3497 -0.9472
 9308TIP3   OH249338   0.046   3.998  16.800 -0.2836 -0.1891 -0.2321
 9308TIP3    H149339   0.073   3.980  16.710  1.8161 -2.0038  0.6860
 9308TIP3    H249340  -0.030   3.941  16.814 -0.7166  0.2142 -0.8649
 9309TIP3   OH249341   4.349   2.598   3.305  0.1984 -0.1672  0.3363
 9309TIP3    H149342   4.397   2.520   3.277  0.4367 -0.4891  1.6049
 9309TIP3    H249343   4.259   2.568   3.319  0.7110 -0.7392  2.8404
 9310TIP3   OH249344   1.547   3.103  16.876  0.0472  0.3526 -0.2517
 9310TIP3    H149345   1.551   3.013  16.843  1.0463  0.5391 -0.6556
 9310TIP3    H249346   1.635   3.121  16.909 -1.2107 -0.4266  4.2153
 9311TIP3   OH249347   1.182   0.326  12.004  0.0509  0.4081  0.4659
 9311TIP3    H149348   1.147   0.277  12.079  0.0141  0.1119  0.2545
 9311TIP3    H249349   1.208   0.410  12.041  0.3445  0.1403  0.8772
 9312TIP3   OH249350   0.032   2.953  15.550 -0.2514 -0.1787  0.5465
 9312TIP3    H149351  -0.002   3.004  15.623 -0.4439  0.8143 -0.2007
 9312TIP3    H249352   0.118   2.992  15.531  0.3920 -1.2979  1.0789
 9313TIP3   OH249353   0.331   6.207  14.117  0.0824  0.0319 -0.0531
 9313TIP3    H149354   0.249   6.202  14.167  0.0012  1.6191  0.0025
 9313TIP3    H249355   0.304   6.193  14.026 -0.4331  1.5553 -0.1612
 9314TIP3   OH249356   0.288   3.752  13.752  0.2625 -0.2961  0.0040
 9314TIP3    H149357   0.281   3.666  13.709  1.9601  0.1917 -1.3491
 9314TIP3    H249358   0.222   3.806  13.709  2.0166  0.2233 -2.2588
 9315TIP3   OH249359   4.845   0.407  16.576 -0.2846  0.4131 -0.3238
 9315TIP3    H149360   4.924   0.455  16.601  2.2175 -1.2205 -4.1069
 9315TIP3    H249361   4.844   0.331  16.635  0.2384  1.0865  0.5764
 9316TIP3   OH249362   3.456   3.335  11.390  0.4047  0.1192 -0.2250
 9316TIP3    H149363   3.447   3.422  11.428 -0.9210 -0.0012 -0.2104
 9316TIP3    H249364   3.546   3.331  11.359  1.4855  0.2912  2.6832
 9317TIP3   OH249365   4.181   6.565  15.781 -0.7273 -0.3763  0.1467
 9317TIP3    H149366   4.167   6.528  15.694 -0.8237 -0.2112  0.0918
 9317TIP3    H249367   4.228   6.496  15.829  1.2093  0.3206 -0.6739
 9318TIP3   OH249368   5.359   5.652  11.706 -0.7151  0.3550 -0.4011
 9318TIP3    H149369   5.421   5.655  11.779  2.6212  1.4586 -3.0424
 9318TIP3    H249370   5.360   5.560  11.678 -1.3631  0.0966  0.3996
 9319TIP3   OH249371   2.722   5.188   6.033 -0.7643  0.2458  0.3462
 9319TIP3    H149372   2.764   5.149   6.110  0.5161 -0.0075 -0.4502
 9319TIP3    H249373   2.664   5.255   6.068 -0.9195 -0.5037  1.5814
 9320TIP3   OH249374   3.460   4.698   1.953 -0.4711 -0.4179 -0.1159
 9320TIP3    H149375   3.424   4.776   1.994 -2.1312 -0.8839 -0.6111
 9320TIP3    H249376   3.453   4.714   1.859 -0.7957 -1.1376 -0.2233
 9321TIP3   OH249377   4.846   5.464  17.008  0.1080  0.2657  0.3386
 9321TIP3    H149378   4.897   5.487  16.930 -2.0757  1.8313 -0.7434
 9321TIP3    H249379   4.903   5.487  17.081  0.8875  2.3112 -0.8129
 9322TIP3   OH249380   2.976   2.939  13.676 -0.0609  0.3208  0.6688
 9322TIP3    H149381   2.948   3.001  13.608  0.2527  0.6205  0.8092
 9322TIP3    H249382   3.051   2.982  13.718  1.9962 -1.3322 -1.0787
 9323TIP3   OH249383   2.769   5.571   6.103 -0.4884  0.8520 -0.3443
 9323TIP3    H149384   2.791   5.527   6.021 -1.8639  0.8803 -0.7471
 9323TIP3    H249385   2.696   5.522   6.139  1.6544 -0.7252  2.2163
 9324TIP3   OH249386   2.402   4.155  13.078  0.7423  0.0352 -0.0593
 9324TIP3    H149387   2.350   4.116  13.008  2.3192 -0.5134 -0.9584
 9324TIP3    H249388   2.337   4.182  13.143 -0.5242 -3.7881  0.5065
 9325TIP3   OH249389   1.980   4.996   1.119 -0.2093  0.1805 -0.1786
 9325TIP3    H149390   1.969   4.938   1.044 -2.0655 -1.3589  1.1689
 9325TIP3    H249391   1.895   5.037   1.131  0.0987  0.5198  0.9847
 9326TIP3   OH249392   3.148   1.654   1.848 -0.8114  0.0497 -0.3742
 9326TIP3    H149393   3.133   1.659   1.753 -4.3611 -0.7288  0.0012
 9326TIP3    H249394   3.172   1.562   1.862  2.8843  0.8170 -0.7210
 9327TIP3   OH249395   6.512   3.761   2.547 -0.4184  0.4179  0.1812
 9327TIP3    H149396   6.565   3.714   2.483 -0.4109  3.6261 -2.4328
 9327TIP3    H249397   6.576   3.805   2.604 -0.3929 -0.1584  0.6076
 9328TIP3   OH249398   3.543   1.523  16.018 -0.0890  1.3162 -0.1905
 9328TIP3    H149399   3.454   1.546  16.046 -0.5819  3.5976 -3.1097
 9328TIP3    H249400   3.599   1.588  16.060 -0.1017  1.2665 -0.0964
 9329TIP3   OH249401   2.064   3.399  16.950  0.4615  0.2661 -0.3103
 9329TIP3    H149402   2.104   3.330  17.003 -1.9947 -0.6577  0.5123
 9329TIP3    H249403   2.136   3.435  16.899  2.3935 -0.8507  1.4534
 9330TIP3   OH249404   2.535   1.867   1.347  0.2535 -0.8224 -0.2602
 9330TIP3    H149405   2.451   1.861   1.302 -0.0922  0.2438  0.2246
 9330TIP3    H249406   2.579   1.785   1.325 -1.7412 -2.3822  1.1671
 9331TIP3   OH249407   5.148   4.708  13.418 -0.0117  0.9488 -0.2241
 9331TIP3    H149408   5.194   4.792  13.421 -4.5380  3.8160 -0.6395
 9331TIP3    H249409   5.095   4.707  13.497 -0.2793 -1.4795 -0.3553
 9332TIP3   OH249410   6.552   3.368   2.024  0.3362  0.0011 -0.2608
 9332TIP3    H149411   6.529   3.360   1.931 -0.6254 -0.3623 -0.0073
 9332TIP3    H249412   6.608   3.293   2.042 -0.7539 -0.8298 -0.1964
 9333TIP3   OH249413   5.790   2.288   6.113 -0.3969 -0.3707  0.0273
 9333TIP3    H149414   5.736   2.339   6.173 -1.2899 -0.3657 -0.7596
 9333TIP3    H249415   5.813   2.349   6.043  0.9747 -0.2651  0.5418
 9334TIP3   OH249416   0.603   3.080   3.440 -0.3593 -0.4011 -0.8156
 9334TIP3    H149417   0.601   3.072   3.536 -0.4521  1.2152 -0.6575
 9334TIP3    H249418   0.674   3.142   3.423 -1.0895  0.2147 -1.7070
 9335TIP3   OH249419   3.964   1.430  14.505 -0.4158  0.2210  0.0737
 9335TIP3    H149420   3.926   1.518  14.503 -0.3199  0.2593 -1.7874
 9335TIP3    H249421   4.008   1.424  14.590  1.6050  2.8431 -0.6714
 9336TIP3   OH249422   0.462   1.877   0.107  0.3185 -0.8278 -0.0189
 9336TIP3    H149423   0.372   1.884   0.139  0.4256 -0.4009  0.1865
 9336TIP3    H249424   0.458   1.908   0.017  0.7718  1.9506  0.8416
 9337TIP3   OH249425   6.339   0.661   2.503 -0.3075 -0.1447 -0.1339
 9337TIP3    H149426   6.311   0.600   2.571 -0.0461  0.7774  0.8255
 9337TIP3    H249427   6.432   0.678   2.522  1.1073 -3.1993 -3.2903
 9338TIP3   OH249428   6.223   5.771   3.965 -0.2887  0.0958 -0.5859
 9338TIP3    H149429   6.243   5.855   3.923 -0.9045  1.0529  0.9475
 9338TIP3    H249430   6.156   5.731   3.910  0.7860  0.0801 -1.9338
 9339TIP3   OH249431   0.013   3.784  13.710 -0.0770 -0.0488  0.7786
 9339TIP3    H149432  -0.068   3.832  13.726 -0.6084 -1.0310  1.1187
 9339TIP3    H249433   0.012   3.713  13.775  2.1028  1.1558  2.2849
 9340TIP3   OH249434   2.316   5.833  12.558  0.0553  0.1436  0.2263
 9340TIP3    H149435   2.268   5.892  12.617 -0.7189  0.5023 -0.7350
 9340TIP3    H249436   2.259   5.825  12.481  1.4503  0.3925 -0.8601
 9341TIP3   OH249437   0.667   5.760   5.834  0.0326 -0.4655  0.4443
 9341TIP3    H149438   0.709   5.697   5.776 -1.4535 -0.8119 -0.3024
 9341TIP3    H249439   0.626   5.707   5.902 -0.5738 -0.2578  0.2471
 9342TIP3   OH249440   0.564   2.652  14.566 -0.7712  0.0089 -0.2072
 9342TIP3    H149441   0.538   2.692  14.484  0.4379  0.3334 -0.4578
 9342TIP3    H249442   0.490   2.597  14.591 -1.6083  0.7729 -0.9292
 9343TIP3   OH249443   1.190   0.819  17.171  0.4309 -0.2066 -0.1563
 9343TIP3    H149444   1.106   0.850  17.204  0.4452 -1.0051  0.6817
 9343TIP3    H249445   1.192   0.726  17.194  1.6633 -0.1355  0.1090
 9344TIP3   OH249446   2.649   2.948   3.739 -0.1588 -0.1937 -0.2703
 9344TIP3    H149447   2.637   3.040   3.716  1.8453  0.2927  0.4298
 9344TIP3    H249448   2.680   2.907   3.658  2.0331  0.4604  0.1779
 9345TIP3   OH249449   0.676   2.687  13.261 -0.1067  0.3697 -0.0882
 9345TIP3    H149450   0.712   2.761  13.212  2.4704 -1.5556 -1.3177
 9345TIP3    H249451   0.605   2.655  13.205 -0.2669  1.0196 -0.2680
 9346TIP3   OH249452   5.943   2.473   5.567  0.1245  0.7294 -0.3945
 9346TIP3    H149453   5.927   2.396   5.622 -2.6638 -0.7453 -2.9534
 9346TIP3    H249454   5.876   2.537   5.594 -1.2358  0.0118 -1.8519
 9347TIP3   OH249455   5.309   0.384   3.126 -0.5026 -0.4930 -0.2619
 9347TIP3    H149456   5.332   0.385   3.033  0.3608  0.0474 -0.0493
 9347TIP3    H249457   5.365   0.316   3.163  0.6708  0.7210  0.2338
 9348TIP3   OH249458   3.160   1.839  13.756  0.6023  0.1164 -0.0677
 9348TIP3    H149459   3.070   1.863  13.777  1.0101  0.5696  1.2882
 9348TIP3    H249460   3.205   1.923  13.743  0.9035 -0.0912 -0.3888
 9349TIP3   OH249461   2.039   6.676  15.027  0.2704  0.1283 -0.1935
 9349TIP3    H149462   2.126   6.656  14.993  1.1728  0.7448  1.6244
 9349TIP3    H249463   2.052   6.687  15.121 -1.5792  1.3015 -0.0243
 9350TIP3   OH249464   5.969   3.714  16.789 -0.9012  0.2271  0.0958
 9350TIP3    H149465   5.895   3.670  16.830 -0.3733 -0.7484  0.0391
 9350TIP3    H249466   5.955   3.806  16.808 -1.6184 -0.0293  0.9172
 9351TIP3   OH249467   4.968   4.846   0.603  0.2519 -0.1292 -0.1035
 9351TIP3    H149468   4.957   4.763   0.557 -1.2978 -0.2120  0.3573
 9351TIP3    H249469   5.062   4.862   0.601  0.9177 -2.9847  1.7121
 9352TIP3   OH249470   2.287   2.413   0.703 -0.1513 -0.5530  0.0697
 9352TIP3    H149471   2.315   2.409   0.794  0.6080 -1.1672 -0.1820
 9352TIP3    H249472   2.346   2.354   0.657 -0.1826  0.1547 -0.9102
 9353TIP3   OH249473   3.235   2.701   4.129 -0.6637  0.5837  0.0890
 9353TIP3    H149474   3.203   2.786   4.097 -1.4531  1.1009  2.0396
 9353TIP3    H249475   3.209   2.700   4.221 -0.1265 -1.5438  0.2642
 9354TIP3   OH249476   4.248   6.581   1.561  0.3919  0.1763 -0.0887
 9354TIP3    H149477   4.227   6.673   1.549  0.0677 -0.0763 -1.7314
 9354TIP3    H249478   4.317   6.580   1.627  1.0767  1.6723 -0.7382
 9355TIP3   OH249479   6.666   1.468  10.399  0.7558 -0.0196 -0.3691
 9355TIP3    H149480   6.733   1.451  10.333 -0.2261 -0.2769 -1.3349
 9355TIP3    H249481   6.617   1.385  10.406  1.6187 -0.4381  1.6477
 9356TIP3   OH249482   0.582   0.621   4.282  0.7292 -0.1646  0.8644
 9356TIP3    H149483   0.563   0.712   4.261  1.1809 -0.4705 -1.0814
 9356TIP3    H249484   0.577   0.575   4.198 -0.7590 -2.1963  1.9484
 9357TIP3   OH249485   1.210   4.811   4.755  0.1468  0.2598  0.3734
 9357TIP3    H149486   1.276   4.830   4.689 -2.0803  0.4766 -1.9207
 9357TIP3    H249487   1.177   4.897   4.781 -0.8582  0.0933 -0.2936
 9358TIP3   OH249488   6.772   6.205  16.851 -0.0405  0.5254  0.2260
 9358TIP3    H149489   6.765   6.246  16.765 -0.0015 -1.5732 -0.8353
 9358TIP3    H249490   6.866   6.198  16.866 -0.0108 -0.9066 -0.5021
 9359TIP3   OH249491   2.658   0.212   5.619 -0.6619 -1.3571 -0.5212
 9359TIP3    H149492   2.666   0.247   5.531  1.2425  1.3170  0.5960
 9359TIP3    H249493   2.747   0.186   5.643 -0.8731 -0.7003  1.0985
 9360TIP3   OH249494   0.182   5.734  13.654 -0.6690 -0.1778  0.1974
 9360TIP3    H149495   0.101   5.782  13.673 -0.7206 -0.2658  0.1971
 9360TIP3    H249496   0.244   5.765  13.721 -0.7532 -0.2378  0.3034
 9361TIP3   OH249497   1.331   0.131  12.464 -0.3866 -0.3475  0.2152
 9361TIP3    H149498   1.402   0.195  12.465 -1.1049  0.4932 -0.2984
 9361TIP3    H249499   1.369   0.052  12.426  0.9415 -0.7690  2.3008
 9362TIP3   OH249500   2.216   4.521  11.304 -0.3514  0.4247 -0.8219
 9362TIP3    H149501   2.269   4.533  11.225 -1.0384  0.5843 -1.2660
 9362TIP3    H249502   2.209   4.426  11.314  1.6118  0.3413  0.3421
 9363TIP3   OH249503   1.133   0.191   0.521 -0.0071  1.1128  0.0885
 9363TIP3    H149504   1.090   0.127   0.578 -0.2782  0.7741 -0.4797
 9363TIP3    H249505   1.220   0.202   0.558  0.1875  0.0946 -0.0428
 9364TIP3   OH249506   4.230   1.783  12.815 -0.2319  0.8756 -0.3001
 9364TIP3    H149507   4.205   1.839  12.742  0.0968 -0.5899 -1.5966
 9364TIP3    H249508   4.271   1.707  12.774 -0.2321 -0.1051  1.4062
 9365TIP3   OH249509   5.919   1.669   3.748 -0.1425  0.2551  0.1496
 9365TIP3    H149510   5.994   1.635   3.796  1.0187 -0.8722 -2.2794
 9365TIP3    H249511   5.859   1.594   3.743 -0.7967  0.7188  0.8171
 9366TIP3   OH249512   6.257   0.649   5.813 -0.0521 -0.1839 -0.0464
 9366TIP3    H149513   6.241   0.702   5.735 -2.1008 -0.8498 -0.1347
 9366TIP3    H249514   6.284   0.712   5.879 -2.3221  1.0548 -0.1750
 9367TIP3   OH249515   6.756   2.074  16.532 -0.4819  0.2392  0.0901
 9367TIP3    H149516   6.726   1.992  16.571  2.0701 -0.2226  1.2385
 9367TIP3    H249517   6.781   2.128  16.606 -2.5222  2.3196 -0.6223
 9368TIP3   OH249518   4.088   0.660   5.495  0.0354  0.5351 -0.2026
 9368TIP3    H149519   4.128   0.709   5.567 -2.2245 -0.4885  1.8957
 9368TIP3    H249520   4.140   0.579   5.490 -2.3856 -1.5901  3.6693
 9369TIP3   OH249521   2.750   5.637   4.157 -0.3135  0.5335 -0.6932
 9369TIP3    H149522   2.742   5.721   4.202  1.2902  1.2046 -1.5792
 9369TIP3    H249523   2.835   5.641   4.114 -1.2907 -0.4651 -2.9225
 9370TIP3   OH249524   4.222   3.789  12.312 -0.1886 -0.6184 -0.1309
 9370TIP3    H149525   4.149   3.762  12.258 -0.5978 -1.2476  0.7169
 9370TIP3    H249526   4.279   3.839  12.253 -2.3783  1.8817 -0.3392
 9371TIP3   OH249527   1.744   5.734  11.247  0.4592 -0.1631  1.0204
 9371TIP3    H149528   1.733   5.642  11.273  2.3786 -0.2193  1.7286
 9371TIP3    H249529   1.743   5.731  11.151 -0.9362 -0.6962  1.0152
 9372TIP3   OH249530   2.613   5.253  10.875 -0.0022  0.1085  0.3093
 9372TIP3    H149531   2.679   5.209  10.822 -0.3068  0.8945 -0.7567
 9372TIP3    H249532   2.554   5.293  10.812 -0.8007  0.4586  1.2485
 9373TIP3   OH249533   0.451   6.359  11.569 -0.2174 -0.2510  0.3705
 9373TIP3    H149534   0.382   6.336  11.632 -0.6853  0.3857  0.1014
 9373TIP3    H249535   0.528   6.378  11.624  0.0714 -2.0163  0.6145
 9374TIP3   OH249536   2.187   6.671  14.171 -0.4098 -0.5778  0.2332
 9374TIP3    H149537   2.145   6.708  14.249  1.5068  2.4899 -0.0465
 9374TIP3    H249538   2.279   6.662  14.196  0.0800 -0.3753 -1.4031
 9375TIP3   OH249539   1.422   5.117   4.553 -0.5228 -0.0050 -0.1675
 9375TIP3    H149540   1.470   5.156   4.626  0.0546  2.0187 -1.5364
 9375TIP3    H249541   1.431   5.022   4.567  0.6484  0.3133  1.6680
 9376TIP3   OH249542   2.322   2.769  10.371 -0.2583 -0.3256 -0.5888
 9376TIP3    H149543   2.235   2.789  10.405 -0.0285  3.3886 -1.7233
 9376TIP3    H249544   2.318   2.794  10.278  2.5209  2.3449 -0.1854
 9377TIP3   OH249545   0.255   0.891  13.992 -0.1625  0.1075 -0.3810
 9377TIP3    H149546   0.315   0.882  14.066  0.0293 -1.2322 -0.6630
 9377TIP3    H249547   0.294   0.837  13.923 -1.3833 -0.3131 -0.7658
 9378TIP3   OH249548   1.699   4.132  15.216  0.0228  0.6963  0.1882
 9378TIP3    H149549   1.781   4.176  15.241 -0.0757  0.5855  0.7213
 9378TIP3    H249550   1.641   4.146  15.290 -1.2339  2.6847 -1.0850
 9379TIP3   OH249551   0.758   2.638  10.944  0.3310 -0.1035 -0.0079
 9379TIP3    H149552   0.685   2.580  10.924  0.8877 -0.7590 -0.1642
 9379TIP3    H249553   0.725   2.696  11.013 -0.7888  0.5240 -1.0302
 9380TIP3   OH249554   3.352   1.553  13.698  0.1476 -0.3821 -0.1549
 9380TIP3    H149555   3.262   1.545  13.727  0.0057 -0.4473 -0.6043
 9380TIP3    H249556   3.346   1.587  13.608  0.5777 -0.1090 -0.0843
 9381TIP3   OH249557   3.122   0.000   3.534  0.9730 -0.1141  0.0253
 9381TIP3    H149558   3.165   0.048   3.605  0.9838  1.7521 -1.1895
 9381TIP3    H249559   3.060   0.062   3.497  2.3997 -0.2639 -2.9262
 9382TIP3   OH249560   5.717   3.863   3.042  0.3565  0.1355 -1.0280
 9382TIP3    H149561   5.766   3.865   3.124  0.3654 -0.0902 -1.0262
 9382TIP3    H249562   5.777   3.901   2.978  0.2696  0.5100 -0.8907
 9383TIP3   OH249563   0.090   2.394  14.235 -0.1675  0.0430 -0.3022
 9383TIP3    H149564   0.147   2.470  14.226 -2.4273  1.7946 -0.8353
 9383TIP3    H249565   0.029   2.417  14.305 -3.4717  0.6363 -3.0874
 9384TIP3   OH249566   1.158   3.852  14.646 -0.0425 -0.5302  0.2594
 9384TIP3    H149567   1.110   3.899  14.714  0.4789 -0.7222  0.7738
 9384TIP3    H249568   1.138   3.760  14.662 -2.0400 -0.4754 -1.4947
 9385TIP3   OH249569   0.277   5.853  15.995  0.5544  0.1291 -0.4732
 9385TIP3    H149570   0.291   5.766  15.956 -1.2174 -0.8730  1.0039
 9385TIP3    H249571   0.365   5.892  15.996  1.5945 -2.0345 -0.2674
 9386TIP3   OH249572   4.551   0.658  14.656 -0.5662  0.1941  0.3342
 9386TIP3    H149573   4.547   0.703  14.572 -0.0443  0.7045  0.5743
 9386TIP3    H249574   4.528   0.567  14.636  0.3776  0.1248 -0.5068
 9387TIP3   OH249575   0.516   6.247   4.512  0.3503 -0.4054 -0.6691
 9387TIP3    H149576   0.511   6.332   4.468  0.7416  1.1298  2.0154
 9387TIP3    H249577   0.427   6.231   4.542  0.4356 -0.5622 -0.5021
 9388TIP3   OH249578   1.672   2.733   4.435  0.5088 -0.1902  0.1578
 9388TIP3    H149579   1.633   2.653   4.468  0.7115  0.2689  1.5489
 9388TIP3    H249580   1.647   2.735   4.342 -0.5454 -1.2094  0.4006
 9389TIP3   OH249581   0.327   2.368  13.609 -0.1270 -0.0257 -0.2831
 9389TIP3    H149582   0.309   2.299  13.545 -0.2457  0.3957 -0.7099
 9389TIP3    H249583   0.301   2.449  13.565 -0.6340  0.2287  0.4619
 9390TIP3   OH249584   3.973   5.848   1.106  0.3913 -0.0581 -0.6363
 9390TIP3    H149585   3.950   5.759   1.079 -0.9616 -0.1361  0.6698
 9390TIP3    H249586   3.915   5.904   1.055  1.2198  0.0972 -1.4336
 9391TIP3   OH249587   2.815   5.115  13.069 -0.0363  0.2276  0.1445
 9391TIP3    H149588   2.812   5.026  13.106 -1.3393  0.2025  0.0197
 9391TIP3    H249589   2.766   5.108  12.987  1.2365  0.7101 -0.6710
 9392TIP3   OH249590   4.780   0.445  16.076  0.4668  0.5424 -0.0305
 9392TIP3    H149591   4.705   0.388  16.059  0.3823  0.2591  1.2358
 9392TIP3    H249592   4.789   0.446  16.171  2.7442 -0.3329 -0.1688
 9393TIP3   OH249593   2.694   5.229   2.166 -0.8262 -0.1728 -0.0067
 9393TIP3    H149594   2.645   5.239   2.247  0.2997 -0.5252  0.7387
 9393TIP3    H249595   2.730   5.316   2.148 -1.7913  0.1198 -0.6295
 9394TIP3   OH249596   5.698   0.903   3.952  0.8604 -0.2048  0.1234
 9394TIP3    H149597   5.754   0.952   4.012  0.0961 -0.3965  1.0187
 9394TIP3    H249598   5.681   0.820   3.998  0.4465 -0.4440 -0.4549
 9395TIP3   OH249599   4.454   0.448  15.988  0.2628 -0.1481  0.1622
 9395TIP3    H149600   4.499   0.400  16.058 -0.0549 -1.8200 -0.7315
 9395TIP3    H249601   4.465   0.394  15.910 -1.6584  0.3303 -0.5116
 9396TIP3   OH249602   6.120   3.857   2.603 -0.5451  0.2931 -0.4285
 9396TIP3    H149603   6.156   3.779   2.561  0.2418  0.5225 -0.1925
 9396TIP3    H249604   6.042   3.878   2.552  0.3589  0.5406 -1.7438
 9397TIP3   OH249605   4.537   1.005  16.281  0.2140  0.2835 -0.1805
 9397TIP3    H149606   4.628   1.032  16.269  0.5784 -1.3773 -1.4853
 9397TIP3    H249607   4.487   1.060  16.221  0.4842  0.4835 -0.2215
 9398TIP3   OH249608   6.141   1.246  10.943 -0.4478 -0.4253 -0.0124
 9398TIP3    H149609   6.166   1.279  10.856 -0.2593 -2.3630 -0.7401
 9398TIP3    H249610   6.066   1.188  10.925  0.0864 -1.4631  1.0019
 9399TIP3   OH249611   1.793   6.354   5.571 -0.5240 -0.0303  0.2875
 9399TIP3    H149612   1.837   6.271   5.550  0.0134  0.3525 -0.1476
 9399TIP3    H249613   1.776   6.394   5.486  1.0688  1.2323  0.5047
 9400TIP3   OH249614   6.170   4.868  11.911 -0.3900  0.8638  0.4995
 9400TIP3    H149615   6.088   4.824  11.888  0.3419 -0.3558  0.1005
 9400TIP3    H249616   6.185   4.844  12.002 -0.6807  1.4486  0.7090
 9401TIP3   OH249617   1.863   5.328  14.581 -0.2576  0.5249  0.5496
 9401TIP3    H149618   1.794   5.372  14.631 -0.2267  0.7664  0.3811
 9401TIP3    H249619   1.872   5.243  14.623  0.6956  1.2198  1.7990
 9402TIP3   OH249620   2.038   6.761  15.669  0.2024  0.0911 -0.4953
 9402TIP3    H149621   2.058   6.845  15.626 -0.8441  0.5250 -0.1655
 9402TIP3    H249622   2.063   6.775  15.760  1.6815 -0.5651 -0.7795
 9403TIP3   OH249623   1.869   0.101  14.377 -0.0397  0.3842 -0.2586
 9403TIP3    H149624   1.860   0.176  14.436  0.0809  0.1510  0.0603
 9403TIP3    H249625   1.964   0.086  14.372 -0.0384  0.5016 -0.6409
 9404TIP3   OH249626   1.979   6.703   3.910 -0.3519  0.1218 -0.3793
 9404TIP3    H149627   2.040   6.662   3.972  0.8362 -1.0791 -2.2328
 9404TIP3    H249628   2.003   6.796   3.911  1.4892 -0.3067 -0.9868
 9405TIP3   OH249629   1.062   4.581  16.755  0.2425  0.2046  0.3156
 9405TIP3    H149630   1.101   4.502  16.718  2.8502  1.3087  0.5111
 9405TIP3    H249631   1.032   4.554  16.842  1.5431 -0.4653  0.5770
 9406TIP3   OH249632   1.251   2.868   2.594  0.2876 -0.4455 -0.0054
 9406TIP3    H149633   1.251   2.963   2.584 -0.8441 -0.4466 -0.1558
 9406TIP3    H249634   1.167   2.848   2.635  1.5545 -1.1569  2.5225
 9407TIP3   OH249635   3.169   1.614   3.082  0.0197  0.1345 -0.0871
 9407TIP3    H149636   3.246   1.566   3.052 -1.0448 -1.2031 -0.8132
 9407TIP3    H249637   3.187   1.631   3.175  0.7204 -1.1257  0.0349
 9408TIP3   OH249638   0.922   3.733   1.908  0.1028  0.1392 -0.1346
 9408TIP3    H149639   0.827   3.738   1.920 -0.4092 -2.2984 -2.4194
 9408TIP3    H249640   0.939   3.643   1.882  3.2978  0.0554  1.6981
 9409TIP3   OH249641   5.628   3.193  13.291  0.4196  0.3150  0.3848
 9409TIP3    H149642   5.541   3.153  13.291  0.5267  0.0485 -0.5747
 9409TIP3    H249643   5.686   3.124  13.259  0.7908  0.8624 -0.1532
 9410TIP3   OH249644   4.572   4.082   3.281 -0.2592 -0.8466 -0.3683
 9410TIP3    H149645   4.519   4.142   3.333  0.8103 -0.2023  0.0059
 9410TIP3    H249646   4.510   4.039   3.223 -0.8245  2.2030 -2.2443
 9411TIP3   OH249647   5.044   0.792  14.964 -0.2574 -0.6464  0.4672
 9411TIP3    H149648   5.023   0.775  15.056  0.1893  0.2190  0.7370
 9411TIP3    H249649   4.987   0.731  14.915 -1.5562 -0.1139  1.2587
 9412TIP3   OH249650   0.110   3.025  15.969  0.2272 -0.3133  0.2978
 9412TIP3    H149651   0.111   3.108  16.017 -1.0594 -0.9799  1.5152
 9412TIP3    H249652   0.032   3.029  15.914  1.6940  0.4529 -1.8565
 9413TIP3   OH249653   4.637   3.613  11.423  0.5874  0.4326  0.0483
 9413TIP3    H149654   4.596   3.599  11.509 -0.2444  0.7954 -0.2706
 9413TIP3    H249655   4.601   3.697  11.393 -0.1617 -0.3074 -1.2179
 9414TIP3   OH249656   5.355   3.385  16.513 -0.5965 -0.0138 -0.4145
 9414TIP3    H149657   5.446   3.401  16.487 -0.2542 -2.7050 -1.1838
 9414TIP3    H249658   5.360   3.369  16.607 -0.1212 -0.9778 -0.5931
 9415TIP3   OH249659   0.800   2.641  15.635  0.2048  0.3340  0.0298
 9415TIP3    H149660   0.775   2.549  15.643  2.0841 -0.0984  1.8256
 9415TIP3    H249661   0.765   2.683  15.714  2.0038  0.4373  0.8234
 9416TIP3   OH249662   3.649   3.457  13.441 -0.2513 -0.0335  0.5530
 9416TIP3    H149663   3.733   3.434  13.480 -1.0083 -2.8878  0.7571
 9416TIP3    H249664   3.649   3.414  13.356 -1.2489  0.4424  0.2965
 9417TIP3   OH249665   4.503   0.164  11.724  0.2921 -0.0366 -0.5306
 9417TIP3    H149666   4.445   0.130  11.792  0.1359  0.0560 -0.6161
 9417TIP3    H249667   4.569   0.214  11.772  0.5724 -0.5324 -0.3999
 9418TIP3   OH249668   2.459   5.284   4.099  0.5123  0.9536  0.1585
 9418TIP3    H149669   2.470   5.361   4.042 -0.4061  0.9344 -0.0487
 9418TIP3    H249670   2.444   5.212   4.038  1.1624  0.6341  0.3650
 9419TIP3   OH249671   4.424   2.734   5.650  0.0139 -0.0850 -0.4075
 9419TIP3    H149672   4.341   2.781   5.644  1.1423  2.0923 -0.1490
 9419TIP3    H249673   4.436   2.718   5.743 -0.1845 -0.5407 -0.4594
 9420TIP3   OH249674   3.363   0.168  13.644 -0.1369 -0.0267  0.1400
 9420TIP3    H149675   3.439   0.116  13.622 -1.1291 -1.3877 -0.1765
 9420TIP3    H249676   3.363   0.173  13.740  0.1350 -0.3360  0.1541
 9421TIP3   OH249677   0.607   1.852  15.102  0.1499 -0.4518  0.2849
 9421TIP3    H149678   0.593   1.865  15.196 -0.7688  1.4013 -0.0498
 9421TIP3    H249679   0.693   1.811  15.096  0.6138  0.1886  1.9068
 9422TIP3   OH249680   0.241   3.640  12.139  0.3013 -0.3571  0.7128
 9422TIP3    H149681   0.215   3.665  12.228 -0.7477 -1.2233  0.6691
 9422TIP3    H249682   0.237   3.721  12.089 -1.3333 -0.2709  0.9558
 9423TIP3   OH249683   2.098   4.205   4.582  0.3376 -0.2292  0.8755
 9423TIP3    H149684   2.186   4.183   4.613  0.2521 -1.0024  0.5872
 9423TIP3    H249685   2.061   4.260   4.651  1.6903  1.6233  0.1974
 9424TIP3   OH249686   2.746   2.198   3.929  0.2835  0.1967  0.5834
 9424TIP3    H149687   2.704   2.207   4.014 -0.5897  0.7279  0.1107
 9424TIP3    H249688   2.768   2.287   3.903  1.2964 -0.0348  0.6175
 9425TIP3   OH249689   2.460   4.465  17.199 -0.2844  0.4700  0.3025
 9425TIP3    H149690   2.457   4.395  17.133  0.7623  0.9818 -0.3136
 9425TIP3    H249691   2.370   4.495  17.207 -0.4156  0.4534 -0.9676
 9426TIP3   OH249692   2.421   1.672   0.596  0.0905  0.2218  0.3674
 9426TIP3    H149693   2.419   1.768   0.596 -1.7798  0.2262  0.4368
 9426TIP3    H249694   2.404   1.648   0.505  0.6552 -0.0557  0.3321
 9427TIP3   OH249695   3.956   4.050  12.556 -0.5492 -0.4483  0.1586
 9427TIP3    H149696   3.964   4.133  12.510  2.8593 -0.7638 -0.0904
 9427TIP3    H249697   3.966   4.072  12.648 -1.6605 -0.4163  0.2854
 9428TIP3   OH249698   2.400   6.289  12.752  0.1133 -0.4371  0.2937
 9428TIP3    H149699   2.348   6.218  12.713  0.1470  0.1670 -0.9026
 9428TIP3    H249700   2.366   6.298  12.841 -2.6864  0.7110 -0.7654
 9429TIP3   OH249701   1.315   2.417  13.922  0.4661 -0.5913 -0.0618
 9429TIP3    H149702   1.302   2.337  13.973 -0.8992 -0.2062  0.2307
 9429TIP3    H249703   1.250   2.413  13.852  0.7486  0.0039 -0.3671
 9430TIP3   OH249704   1.345   1.260   4.232  0.2762  0.4638  0.1766
 9430TIP3    H149705   1.316   1.318   4.162 -1.1514 -0.8070 -0.3296
 9430TIP3    H249706   1.342   1.314   4.311  0.2442  1.4301 -0.4685
 9431TIP3   OH249707   3.283   5.693   3.508  0.7707  0.6240  0.2616
 9431TIP3    H149708   3.335   5.704   3.588  0.4032 -2.3269  1.0299
 9431TIP3    H249709   3.345   5.657   3.444  0.0037 -2.1621  0.9480
 9432TIP3   OH249710   1.097   1.371   4.808  0.4820  0.3440  0.4946
 9432TIP3    H149711   1.008   1.402   4.791  0.2894 -0.2697  0.3752
 9432TIP3    H249712   1.112   1.393   4.900 -0.1146 -0.3042  0.7612
 9433TIP3   OH249713   1.439   6.374   1.064  0.6245  0.1583  0.2726
 9433TIP3    H149714   1.485   6.456   1.084 -1.4350  0.6118  4.1189
 9433TIP3    H249715   1.372   6.400   1.000  1.3681  1.0045 -0.1837
 9434TIP3   OH249716   5.263   3.649  12.610 -0.1771 -0.2189  0.0231
 9434TIP3    H149717   5.313   3.572  12.583 -1.2762 -0.8047 -0.3801
 9434TIP3    H249718   5.182   3.645  12.559  0.3260  1.9693 -1.0951
 9435TIP3   OH249719   4.199   3.465   6.441 -0.0280  0.5803 -0.1919
 9435TIP3    H149720   4.214   3.370   6.437 -3.2400 -0.0220 -0.6958
 9435TIP3    H249721   4.148   3.484   6.363 -0.1717  2.6073  0.3442
 9436TIP3   OH249722   5.249   1.405  16.809  0.2485  0.1174  0.2389
 9436TIP3    H149723   5.295   1.419  16.726 -0.3938 -0.4838 -0.2288
 9436TIP3    H249724   5.316   1.418  16.876  0.5750  1.5295 -0.3163
 9437TIP3   OH249725   2.889   4.342   0.625  0.1416  0.1550 -0.2107
 9437TIP3    H149726   2.816   4.379   0.675  0.7743  0.2649  0.6583
 9437TIP3    H249727   2.967   4.382   0.664  0.7357 -0.8032 -0.3974
 9438TIP3   OH249728   5.010   3.589   0.197  0.0220 -0.4836  0.1304
 9438TIP3    H149729   5.062   3.644   0.256 -1.0910 -0.1766  0.8448
 9438TIP3    H249730   4.982   3.515   0.251 -0.5857 -0.4601 -0.1440
 9439TIP3   OH249731   4.533   0.195  14.842 -0.0641  0.7186 -0.5068
 9439TIP3    H149732   4.472   0.219  14.912  0.0181 -0.6471  0.0519
 9439TIP3    H249733   4.493   0.233  14.763 -1.3299  0.3746 -0.0606
 9440TIP3   OH249734   4.781   4.102  16.851  0.0367 -0.0955  0.2930
 9440TIP3    H149735   4.693   4.135  16.835  0.5275  1.7401  1.0896
 9440TIP3    H249736   4.776   4.060  16.937 -0.1224 -0.2295  0.2184
 9441TIP3   OH249737   4.508   4.487  12.477  0.6862  0.5111 -0.5769
 9441TIP3    H149738   4.417   4.459  12.483 -0.0470  2.2827 -2.3476
 9441TIP3    H249739   4.515   4.528  12.391  2.7408  1.8563  0.1503
 9442TIP3   OH249740   3.191   2.294  12.447 -0.3686  0.5634  0.5847
 9442TIP3    H149741   3.186   2.206  12.485 -0.1180  0.2650 -0.0581
 9442TIP3    H249742   3.163   2.282  12.356  1.0322  0.8873  0.0898
 9443TIP3   OH249743   1.612   3.101  13.366 -0.3081 -0.2261 -0.0920
 9443TIP3    H149744   1.598   3.071  13.276  0.7336  1.2252 -0.7747
 9443TIP3    H249745   1.524   3.110  13.402 -0.7214 -1.6062 -0.6583
 9444TIP3   OH249746   5.138   2.662   1.221 -0.0835 -0.1002  0.3736
 9444TIP3    H149747   5.088   2.632   1.145  1.0909 -1.4866  0.1034
 9444TIP3    H249748   5.166   2.582   1.264  1.4626  0.6248  0.7949
 9445TIP3   OH249749   5.677   4.346   2.645  0.1036 -0.0964  0.0125
 9445TIP3    H149750   5.638   4.433   2.658 -0.3811 -0.5751  2.0568
 9445TIP3    H249751   5.695   4.342   2.551  2.9909  3.4104  0.2107
 9446TIP3   OH249752   5.734   1.783   2.219  0.0412  0.0802 -0.1314
 9446TIP3    H149753   5.669   1.718   2.245  1.0709 -1.0894 -0.3568
 9446TIP3    H249754   5.805   1.772   2.282 -0.0597  1.5035  0.2609
 9447TIP3   OH249755   2.685   2.583   5.176  0.6734  0.5338 -0.1027
 9447TIP3    H149756   2.762   2.584   5.231  0.7445  1.6972 -0.1993
 9447TIP3    H249757   2.632   2.511   5.210  1.8759 -0.4103 -0.1683
 9448TIP3   OH249758   6.213   6.149   1.272 -0.0082 -0.0581  0.4739
 9448TIP3    H149759   6.149   6.204   1.317  1.5528  1.5200  0.8694
 9448TIP3    H249760   6.249   6.206   1.204  1.9283 -0.4281  1.1401
 9449TIP3   OH249761   1.433   5.802   4.978 -0.3169  0.0094  0.2489
 9449TIP3    H149762   1.392   5.866   5.036  1.0639 -0.2555  1.5751
 9449TIP3    H249763   1.501   5.761   5.031  0.3072 -1.0000 -1.2500
 9450TIP3   OH249764   3.383   0.055  12.195  0.6285 -0.7159  0.2233
 9450TIP3    H149765   3.291   0.030  12.183  0.2880 -0.2834  1.7657
 9450TIP3    H249766   3.427   0.020  12.117 -1.4746  2.6671 -2.7898
 9451TIP3   OH249767   1.989   3.953   2.856  0.0404 -0.2177  0.1491
 9451TIP3    H149768   1.951   4.041   2.855 -0.5099 -0.4427  0.3994
 9451TIP3    H249769   1.916   3.896   2.833  0.5242 -0.5704 -0.5291
 9452TIP3   OH249770   2.424   0.342  15.204 -0.1842 -0.2797  0.0129
 9452TIP3    H149771   2.481   0.292  15.146 -0.9689 -3.7338  1.8845
 9452TIP3    H249772   2.343   0.353  15.155 -0.0253 -0.9800 -0.4213
 9453TIP3   OH249773   5.868   4.108  15.288  0.4538  0.4549 -0.3130
 9453TIP3    H149774   5.925   4.107  15.365  0.4172  0.0978 -0.2919
 9453TIP3    H249775   5.874   4.198  15.256  0.0022  0.7801  0.4596
 9454TIP3   OH249776   6.128   5.155  15.932 -0.3678  0.3114 -0.2040
 9454TIP3    H149777   6.122   5.180  15.840 -0.2229 -0.1053 -0.3293
 9454TIP3    H249778   6.147   5.061  15.930 -0.5850  0.2575  0.2537
 9455TIP3   OH249779   0.458   0.343  11.453 -0.2839 -0.3436 -0.0588
 9455TIP3    H149780   0.486   0.323  11.543 -0.2383  2.1921  0.5825
 9455TIP3    H249781   0.369   0.376  11.463  0.5861  2.3885 -0.5239
 9456TIP3   OH249782   0.976   2.872  11.743  0.3129  0.4136 -0.2792
 9456TIP3    H149783   0.906   2.876  11.807 -0.1607 -1.2635 -0.6518
 9456TIP3    H249784   1.008   2.963  11.736  1.1360  0.5088  3.1007
 9457TIP3   OH249785   2.208   1.229  14.035  0.2614 -0.3273  0.0086
 9457TIP3    H149786   2.293   1.209  13.998  0.9452  0.4054  1.1307
 9457TIP3    H249787   2.220   1.314  14.078 -1.1342 -0.0187 -0.1556
 9458TIP3   OH249788   0.281   0.976  11.476 -0.5701  0.2896  0.0057
 9458TIP3    H149789   0.245   0.894  11.442  1.1367 -1.3184  1.8674
 9458TIP3    H249790   0.204   1.030  11.495 -1.7666 -1.1723 -0.4898
 9459TIP3   OH249791   5.975   4.378   1.403 -0.0096 -0.7922 -0.5129
 9459TIP3    H149792   5.941   4.398   1.490  0.2171 -1.1417 -0.3412
 9459TIP3    H249793   6.070   4.376   1.415  0.0621 -0.1237 -0.9222
 9460TIP3   OH249794   6.419   6.686   2.590  0.6123 -0.2812 -0.5547
 9460TIP3    H149795   6.357   6.710   2.521  0.8658  0.7154 -0.4565
 9460TIP3    H249796   6.369   6.692   2.671  1.1181  1.8708 -0.3274
 9461TIP3   OH249797   6.347   2.928  13.100 -0.3492  0.4600 -0.4122
 9461TIP3    H149798   6.278   2.910  13.036 -3.0490  0.4926  2.2445
 9461TIP3    H249799   6.355   2.847  13.150 -0.3017  1.2542  0.9047
 9462TIP3   OH249800   5.352   0.674   0.180 -0.1269  0.1290  0.9653
 9462TIP3    H149801   5.361   0.584   0.149 -1.4622  0.6571 -1.1839
 9462TIP3    H249802   5.393   0.727   0.112  0.6431  1.1810  2.2039
 9463TIP3   OH249803   5.059   2.714  11.456  0.1708 -0.3908  0.4745
 9463TIP3    H149804   5.066   2.805  11.485  0.0860  0.3823 -1.7478
 9463TIP3    H249805   5.149   2.682  11.457  0.2888 -0.0618  0.5797
 9464TIP3   OH249806   3.779   5.301   1.060 -0.3344 -0.3964  0.1180
 9464TIP3    H149807   3.847   5.234   1.068  0.6279  0.5024 -0.3287
 9464TIP3    H249808   3.733   5.279   0.979 -0.1762 -0.6566  0.0971
 9465TIP3   OH249809   0.796   1.401   5.207  0.4644 -0.1736 -0.4031
 9465TIP3    H149810   0.847   1.459   5.264  0.1248  0.1322 -0.4068
 9465TIP3    H249811   0.817   1.313   5.238  1.7569 -0.1227 -1.0325
 9466TIP3   OH249812   0.957   0.751  15.007  0.1215  0.2607 -0.2409
 9466TIP3    H149813   1.009   0.762  14.928  1.6736 -2.1490  0.3125
 9466TIP3    H249814   0.866   0.758  14.977  0.6888  0.7351 -1.9726
 9467TIP3   OH249815   4.649   3.011  16.076 -0.3700 -0.0033 -0.0283
 9467TIP3    H149816   4.606   3.066  16.142 -1.6375  1.1711 -1.7233
 9467TIP3    H249817   4.583   3.002  16.007  1.3221 -0.0695 -1.7213
 9468TIP3   OH249818   5.005   5.846   2.739 -0.0864  0.4483 -0.4264
 9468TIP3    H149819   4.966   5.761   2.755  0.8628  0.1348  0.3160
 9468TIP3    H249820   4.959   5.906   2.798 -1.3926  0.6597 -1.6066
 9469TIP3   OH249821   1.490   3.940   5.535 -0.0453  0.6466 -0.1466
 9469TIP3    H149822   1.578   3.908   5.553 -0.5017 -0.4921  0.1898
 9469TIP3    H249823   1.469   3.904   5.448  0.1227  1.6034 -0.5939
 9470TIP3   OH249824   1.522   4.498  13.760 -0.0849 -0.3446 -0.1236
 9470TIP3    H149825   1.550   4.502  13.668 -2.1109 -1.2896 -0.8474
 9470TIP3    H249826   1.540   4.408  13.786 -0.6521 -0.4277 -0.0056
 9471TIP3   OH249827   2.570   5.911  12.010  0.7652 -0.3589  0.5402
 9471TIP3    H149828   2.486   5.899  12.054  0.1683 -0.5351 -0.6228
 9471TIP3    H249829   2.635   5.895  12.079 -0.0799 -3.0381  0.8428
 9472TIP3   OH249830   1.716   1.268  11.099 -0.2674  0.0331 -0.3019
 9472TIP3    H149831   1.713   1.189  11.044  0.5434 -0.5886  0.5172
 9472TIP3    H249832   1.764   1.332  11.047 -0.2025 -0.2849 -0.6383
 9473TIP3   OH249833   2.377   1.229  13.082  0.0298 -0.1318  0.4322
 9473TIP3    H149834   2.309   1.274  13.031  0.2438  1.2267  1.2939
 9473TIP3    H249835   2.330   1.157  13.125 -0.3421 -0.7224 -0.8818
 9474TIP3   OH249836   4.345   0.847  14.624 -0.1582 -0.1164  0.3250
 9474TIP3    H149837   4.430   0.804  14.627 -0.2364 -0.3035 -0.0148
 9474TIP3    H249838   4.310   0.839  14.712 -1.1863 -2.8308 -0.2473
 9475TIP3   OH249839   3.371   5.517  15.964  0.2589  0.1560  0.2928
 9475TIP3    H149840   3.277   5.520  15.983 -0.5122 -1.4590 -2.7563
 9475TIP3    H249841   3.387   5.595  15.912  0.8365  0.8542  1.4770
 9476TIP3   OH249842   5.071   0.846   2.493  0.1197 -0.2576 -0.0811
 9476TIP3    H149843   4.980   0.869   2.512  0.1710 -1.0876  1.2517
 9476TIP3    H249844   5.104   0.919   2.441 -1.5880 -0.3908 -1.4692
 9477TIP3   OH249845   5.998   0.801  11.631 -0.0376 -0.5856 -0.4514
 9477TIP3    H149846   5.980   0.871  11.693 -0.4287 -1.3929  0.3745
 9477TIP3    H249847   6.004   0.845  11.546  0.0945  0.4854  0.0928
 9478TIP3   OH249848   0.415   5.264  13.263 -0.0146  0.3197 -0.3628
 9478TIP3    H149849   0.479   5.242  13.195  0.3751  1.4982 -0.4018
 9478TIP3    H249850   0.331   5.233  13.229  0.5502 -1.4574 -0.2106
 9479TIP3   OH249851   4.491   1.355  16.400 -0.2179  0.5218  0.0258
 9479TIP3    H149852   4.452   1.435  16.433  0.2075 -0.0509  2.0178
 9479TIP3    H249853   4.581   1.380  16.378 -0.4442  0.8583 -0.5438
 9480TIP3   OH249854   6.156   6.111  13.804  0.0235  0.2325 -0.3323
 9480TIP3    H149855   6.131   6.105  13.897 -0.2564 -0.6635 -0.4624
 9480TIP3    H249856   6.095   6.054  13.759  0.4424  0.3240 -1.0236
 9481TIP3   OH249857   2.067   2.897  11.644  0.4475  0.1838 -0.2170
 9481TIP3    H149858   2.087   2.839  11.571  0.3720 -0.5835  0.3654
 9481TIP3    H249859   2.129   2.873  11.712 -0.4041 -0.0790  0.4797
 9482TIP3   OH249860   0.860   2.210   2.644 -0.8742 -0.0986  0.5355
 9482TIP3    H149861   0.941   2.252   2.614 -0.8678 -0.9535 -0.7010
 9482TIP3    H249862   0.806   2.201   2.565 -0.8437 -2.4291  0.6911
 9483TIP3   OH249863   4.630   0.113   6.092  0.1868 -0.1840  0.0992
 9483TIP3    H149864   4.665   0.135   6.178  0.0437 -1.1697  0.4223
 9483TIP3    H249865   4.630   0.017   6.089  2.9426 -0.2758 -2.1171
 9484TIP3   OH249866   3.761   4.608  12.958  0.6928  0.4208 -0.4108
 9484TIP3    H149867   3.673   4.585  12.929 -0.7017  0.6260  3.2154
 9484TIP3    H249868   3.767   4.703  12.945  0.4632  0.3761 -0.8477
 9485TIP3   OH249869   2.970   3.832   4.744  0.1032 -0.2584  0.1198
 9485TIP3    H149870   2.952   3.907   4.800 -2.1192 -1.8122  1.6815
 9485TIP3    H249871   3.004   3.765   4.803  1.6771 -0.6387 -1.1637
 9486TIP3   OH249872   0.438   2.222  16.906 -0.5078  0.2143  0.1674
 9486TIP3    H149873   0.386   2.188  16.833 -0.4995  0.8709 -0.1517
 9486TIP3    H249874   0.527   2.226  16.871 -0.4573  0.2779  0.3048
 9487TIP3   OH249875   3.201   1.227   4.073 -0.1296  0.1390  0.0070
 9487TIP3    H149876   3.185   1.209   3.980 -0.8560 -0.0330  0.1644
 9487TIP3    H249877   3.259   1.304   4.072  0.6212 -0.4116 -0.6013
 9488TIP3   OH249878   3.539   4.873   3.471 -0.1025  0.2008 -0.1311
 9488TIP3    H149879   3.611   4.817   3.441  0.2291 -0.0979  1.1681
 9488TIP3    H249880   3.469   4.812   3.493 -0.0635  0.3612  0.4387
 9489TIP3   OH249881   6.286   4.935  13.454 -0.4142  0.0297 -0.1971
 9489TIP3    H149882   6.216   4.902  13.512 -0.0604  1.4120  1.0678
 9489TIP3    H249883   6.262   5.026  13.436  1.5268  0.8533  1.0703
 9490TIP3   OH249884   6.653   1.266   4.741 -0.1200  0.5484 -0.1758
 9490TIP3    H149885   6.621   1.192   4.688  1.9290  0.4662 -1.4208
 9490TIP3    H249886   6.605   1.342   4.707 -0.4828  0.1537 -0.5754
 9491TIP3   OH249887   3.939   6.302  12.325 -0.1207 -0.3374  0.0157
 9491TIP3    H149888   3.901   6.370  12.269  2.6987  0.1928 -1.3898
 9491TIP3    H249889   3.968   6.234  12.264  0.9834 -0.7977  1.0264
 9492TIP3   OH249890   6.595   0.711  12.449  0.3203 -0.3188 -0.0833
 9492TIP3    H149891   6.670   0.660  12.478  0.0575  0.1059  1.4284
 9492TIP3    H249892   6.519   0.667  12.488  0.0653  0.9908  0.9873
 9493TIP3   OH249893   6.786   0.492  10.764 -0.2469 -0.0794 -0.1740
 9493TIP3    H149894   6.726   0.543  10.819 -0.9069 -1.2623  0.2276
 9493TIP3    H249895   6.773   0.402  10.791 -1.1289 -0.8092 -2.7435
 9494TIP3   OH249896   2.829   3.127  15.731 -0.2796 -0.2274  0.0129
 9494TIP3    H149897   2.914   3.102  15.694  1.0188  2.6542  0.7415
 9494TIP3    H249898   2.776   3.152  15.655  0.0458 -0.5530 -0.3266
 9495TIP3   OH249899   4.538   1.314  14.352  0.9350  0.9411  0.3930
 9495TIP3    H149900   4.546   1.391  14.295  1.1635  0.4591 -0.2426
 9495TIP3    H249901   4.521   1.242  14.291  0.1031  0.5841  1.0300
 9496TIP3   OH249902   0.920   1.616   2.777  0.1587  0.0339  0.5708
 9496TIP3    H149903   0.982   1.658   2.718  1.0142 -1.9030  0.0195
 9496TIP3    H249904   0.875   1.689   2.820 -0.0041  1.5313 -1.9186
 9497TIP3   OH249905   0.821   3.842  14.758  0.4826 -0.5429 -0.0500
 9497TIP3    H149906   0.903   3.881  14.786 -0.1596  0.4444  0.5059
 9497TIP3    H249907   0.791   3.791  14.834 -0.0718  0.1875  0.2321
 9498TIP3   OH249908   0.309   3.352   5.728  0.4641 -0.0709  0.2287
 9498TIP3    H149909   0.254   3.371   5.652  1.1967  0.7468 -0.1107
 9498TIP3    H249910   0.267   3.276   5.770  0.1507 -0.6546 -1.0919
 9499TIP3   OH249911   6.139   3.989   2.987 -0.2549  0.1943  0.3285
 9499TIP3    H149912   6.117   4.079   2.963 -0.1108 -0.3170 -1.9943
 9499TIP3    H249913   6.197   3.959   2.917  0.3895 -1.4498  1.4991
 9500TIP3   OH249914   0.599   1.016   6.100 -0.4556 -0.1374 -0.4758
 9500TIP3    H149915   0.510   1.007   6.134 -0.2861  0.2095  0.0873
 9500TIP3    H249916   0.637   1.087   6.152 -0.3840  0.8565 -1.8508
 9501TIP3   OH249917   3.196   5.508   2.867  0.0104 -0.2370 -0.3027
 9501TIP3    H149918   3.254   5.479   2.938 -0.3759 -2.5073 -0.8368
 9501TIP3    H249919   3.252   5.509   2.789 -0.2695 -0.9315 -0.5286
 9502TIP3   OH249920   0.019   3.534  13.868 -0.7571 -0.2562  0.1948
 9502TIP3    H149921   0.103   3.502  13.899 -1.8751 -2.1175  1.5662
 9502TIP3    H249922  -0.045   3.479  13.913 -2.6740  0.1607 -1.8265
 9503TIP3   OH249923   4.946   0.315  15.898 -0.1579  0.4425 -0.0709
 9503TIP3    H149924   4.976   0.379  15.835  1.8837  0.8260  1.1824
 9503TIP3    H249925   4.857   0.341  15.920  0.0220  1.7879 -0.8946
 9504TIP3   OH249926   4.083   3.176  15.063 -0.0192  0.0814 -0.2161
 9504TIP3    H149927   4.113   3.087  15.046  0.9697 -0.1334  2.2535
 9504TIP3    H249928   4.057   3.210  14.977 -0.6612 -2.6420 -1.1872
 9505TIP3   OH249929   4.575   1.416  11.071 -0.1167 -0.0782 -0.2705
 9505TIP3    H149930   4.555   1.496  11.119  0.0422 -1.0643  1.5330
 9505TIP3    H249931   4.560   1.438  10.979 -0.7397  1.7984  0.2454
 9506TIP3   OH249932   3.690   6.197  15.964 -0.2280 -0.4426  0.1391
 9506TIP3    H149933   3.597   6.209  15.945 -0.3410  0.4455  1.1947
 9506TIP3    H249934   3.733   6.272  15.923 -0.2015  0.1569  1.2310
 9507TIP3   OH249935   5.186   6.521  16.230  0.3872  0.0398 -0.0047
 9507TIP3    H149936   5.128   6.549  16.159  1.9330  1.3929 -0.7919
 9507TIP3    H249937   5.262   6.484  16.186  1.1896  0.5215  0.9406
 9508TIP3   OH249938   2.519   3.521   2.309 -0.0210 -0.1736  0.2198
 9508TIP3    H149939   2.548   3.432   2.325 -0.0187 -0.1437  0.3839
 9508TIP3    H249940   2.597   3.575   2.320 -0.0320 -0.1468  0.1671
 9509TIP3   OH249941   1.015   4.697   6.158 -0.1821  0.4652 -0.2976
 9509TIP3    H149942   1.044   4.669   6.245  0.9080  0.9539 -0.4871
 9509TIP3    H249943   0.952   4.767   6.175 -2.9490 -1.9790  0.1798
 9510TIP3   OH249944   4.819   0.046  11.782 -0.4398  0.3343 -0.2074
 9510TIP3    H149945   4.822   0.135  11.747 -2.0203  0.3801 -0.3139
 9510TIP3    H249946   4.752   0.049  11.851 -1.3966 -1.0151 -1.0145
 9511TIP3   OH249947   1.020   6.770  12.784  0.6429 -0.2484  0.5250
 9511TIP3    H149948   1.032   6.807  12.871  2.2436  2.7603 -0.8212
 9511TIP3    H249949   1.046   6.678  12.794 -0.1185 -0.2568  3.3518
 9512TIP3   OH249950   3.618   4.978  14.044 -0.1707  0.0539  0.3052
 9512TIP3    H149951   3.555   4.968  14.115  1.1029 -0.8984  1.3395
 9512TIP3    H249952   3.686   5.035  14.079 -0.9427  1.9872 -1.1805
 9513TIP3   OH249953   2.408   2.855   0.732  0.7942 -0.4003 -0.6398
 9513TIP3    H149954   2.442   2.766   0.731  0.1007 -0.7058 -3.1247
 9513TIP3    H249955   2.458   2.899   0.802  1.3030 -2.6324  0.4827
 9514TIP3   OH249956   1.615   5.523   0.280  0.3053 -0.0764  0.0080
 9514TIP3    H149957   1.595   5.481   0.364 -0.7525 -0.1423 -0.2692
 9514TIP3    H249958   1.643   5.611   0.304 -1.7988  0.5434  0.3558
 9515TIP3   OH249959   1.213   6.456  14.988  0.0058 -0.2292 -0.2190
 9515TIP3    H149960   1.232   6.475  14.896  2.4938  2.9668  0.7427
 9515TIP3    H249961   1.203   6.542  15.029 -0.8830 -1.5296  2.5625
 9516TIP3   OH249962   1.792   0.091  15.333  0.1685  0.5756  0.3532
 9516TIP3    H149963   1.848   0.015  15.347  0.0749  0.6510  1.2266
 9516TIP3    H249964   1.793   0.138  15.417 -0.5058  1.0399  0.1184
 9517TIP3   OH249965   1.578   1.642  16.826  0.0730 -0.4226  0.0564
 9517TIP3    H149966   1.667   1.636  16.790  0.1623  2.0127 -0.3322
 9517TIP3    H249967   1.588   1.617  16.918  1.6619  1.8436  0.6028
 9518TIP3   OH249968   2.392   5.380  14.000  0.0872  0.4764  0.0437
 9518TIP3    H149969   2.322   5.392  14.064  0.8945  0.9200  0.8725
 9518TIP3    H249970   2.354   5.322  13.933 -0.4675 -0.8493  1.4432
 9519TIP3   OH249971   1.328   5.377   3.323 -0.7306  0.1781  0.4682
 9519TIP3    H149972   1.263   5.446   3.308 -0.8989  0.7296  3.2726
 9519TIP3    H249973   1.298   5.333   3.403  2.3356  0.5145  1.9525
 9520TIP3   OH249974   0.786   0.811  14.068  0.2006 -0.2071 -0.0383
 9520TIP3    H149975   0.768   0.899  14.035 -1.1622 -0.6198 -0.4370
 9520TIP3    H249976   0.791   0.822  14.163 -0.9228  0.1575 -0.0073
 9521TIP3   OH249977   6.101   6.587  15.933 -1.1045  0.1311  0.1004
 9521TIP3    H149978   6.092   6.619  16.023  0.0718 -0.2219  0.3602
 9521TIP3    H249979   6.067   6.498  15.935 -0.1958 -0.2215  0.4360
 9522TIP3   OH249980   6.265   5.858   1.973 -0.6971 -0.2721  0.0937
 9522TIP3    H149981   6.241   5.833   1.884 -3.2523  0.9836  0.3358
 9522TIP3    H249982   6.311   5.782   2.008 -0.2996 -1.0788 -2.0116
 9523TIP3   OH249983   4.414   6.487   1.930  0.0688 -0.7400  0.1995
 9523TIP3    H149984   4.431   6.471   1.837 -1.3262  0.8883 -0.3783
 9523TIP3    H249985   4.330   6.534   1.931  1.8029  2.6264  1.9850
 9524TIP3   OH249986   6.419   5.204   1.062  0.2653 -0.4169  0.2006
 9524TIP3    H149987   6.390   5.295   1.050  1.6520  0.2576  1.4792
 9524TIP3    H249988   6.340   5.152   1.054 -0.7995  1.0467  0.6929
 9525TIP3   OH249989   2.438   1.387   0.306  0.3456  0.2971  0.0905
 9525TIP3    H149990   2.366   1.427   0.354 -0.3550  1.8296 -2.0375
 9525TIP3    H249991   2.510   1.383   0.369 -1.0030  0.5847  1.7092
 9526TIP3   OH249992   3.590   0.051   6.197  0.5999 -0.1509  0.1711
 9526TIP3    H149993   3.529   0.041   6.270 -0.5146 -0.5216 -0.7677
 9526TIP3    H249994   3.589   0.144   6.176 -0.2014 -0.2509 -0.2766
 9527TIP3   OH249995   3.835   6.039  16.130  0.0680 -0.2927  0.3712
 9527TIP3    H149996   3.865   6.108  16.189  1.0166 -0.3821  0.0001
 9527TIP3    H249997   3.762   6.078  16.083 -0.1701  0.0528  1.0103
 9528TIP3   OH249998   5.056   1.624  13.229  0.1183 -0.1262 -0.2565
 9528TIP3    H149999   5.095   1.701  13.270  0.8730 -1.7187  2.2512
 9528TIP3    H250000   4.977   1.607  13.280 -1.1767  0.1376 -2.0937
 9529TIP3   OH250001   3.775   4.569  13.851 -0.7526  0.0969 -0.3851
 9529TIP3    H150002   3.753   4.602  13.938 -0.3031 -0.7927  0.0707
 9529TIP3    H250003   3.737   4.482  13.847  1.6110 -1.0349 -0.0040
 9530TIP3   OH250004   5.486   2.828  17.220 -0.0191  0.2613 -0.2367
 9530TIP3    H150005   5.401   2.853  17.258  0.1164  0.2217  0.1004
 9530TIP3    H250006   5.550   2.863  17.281  0.1728 -1.2434  0.4758
 9531TIP3   OH250007   1.489   5.993  13.539  0.4392  0.8681  0.4418
 9531TIP3    H150008   1.433   5.916  13.549  1.4340  0.2784  1.7511
 9531TIP3    H250009   1.553   5.967  13.473 -1.0991  1.7565 -1.5141
 9532TIP3   OH250010   1.083   5.718   2.720  0.2713 -0.1046 -0.3005
 9532TIP3    H150011   1.044   5.742   2.804  0.4052 -0.9596  0.0251
 9532TIP3    H250012   1.178   5.719   2.737  0.2727 -1.7550  0.0239
 9533TIP3   OH250013   5.177   4.932  12.129  0.0165 -0.1156  0.6836
 9533TIP3    H150014   5.250   4.895  12.179 -1.1505 -2.2421  0.9227
 9533TIP3    H250015   5.107   4.943  12.194 -0.3942  0.4133  0.1582
 9534TIP3   OH250016   3.764   4.837  16.779  0.1933 -0.0366  0.1123
 9534TIP3    H150017   3.791   4.791  16.858 -1.0643 -2.6195 -0.8258
 9534TIP3    H250018   3.823   4.805  16.711  0.4547  1.1797 -0.2635
 9535TIP3   OH250019   1.818   5.948   0.088 -0.2994 -0.1724  0.5671
 9535TIP3    H150020   1.895   6.004   0.092 -0.4042  0.0074  0.0638
 9535TIP3    H250021   1.800   5.926   0.180  1.0968 -1.2515  0.6285
 9536TIP3   OH250022   2.899   6.770   4.716 -0.0007 -0.3689  0.1424
 9536TIP3    H150023   2.931   6.844   4.665 -0.5898 -0.5458 -0.4963
 9536TIP3    H250024   2.970   6.751   4.778  0.7185 -0.1382 -0.5970
 9537TIP3   OH250025   4.934   1.429  13.702  0.2359 -0.3081  0.3063
 9537TIP3    H150026   5.026   1.456  13.703  0.4284 -0.9486 -0.0872
 9537TIP3    H250027   4.927   1.366  13.774  0.4718 -1.4480 -0.6512
 9538TIP3   OH250028   5.918   2.501  16.568  0.4053  0.5765  0.1334
 9538TIP3    H150029   5.863   2.580  16.561  1.3132  1.1192 -1.1893
 9538TIP3    H250030   5.933   2.492  16.662  1.1058  2.6107  0.2853
 9539TIP3   OH250031   4.322   5.033   4.650 -0.1437  0.1768  0.6118
 9539TIP3    H150032   4.260   5.060   4.583  0.2109  1.9534  0.9467
 9539TIP3    H250033   4.341   4.941   4.630  1.1446  1.0078 -2.7164
 9540TIP3   OH250034   3.138   3.291   0.691  0.0533 -0.1331  0.1241
 9540TIP3    H150035   3.080   3.361   0.662  0.1013 -0.2238 -0.1998
 9540TIP3    H250036   3.090   3.246   0.760  0.8029  1.4125  1.7237
 9541TIP3   OH250037   0.023   0.449  10.338  0.7763 -0.7351  0.2178
 9541TIP3    H150038  -0.041   0.473  10.405 -0.5602  0.0043 -1.2678
 9541TIP3    H250039   0.100   0.421  10.388 -0.3361 -0.6937  2.0509
 9542TIP3   OH250040   4.714   3.874  10.636 -0.3262 -0.1187  0.9848
 9542TIP3    H150041   4.809   3.868  10.628 -0.2894  1.6713 -0.4634
 9542TIP3    H250042   4.685   3.783  10.640  1.2051 -0.9133 -2.3510
 9543TIP3   OH250043   5.811   0.107  12.369 -0.1058  0.3761  0.1859
 9543TIP3    H150044   5.850   0.021  12.356  1.1987  1.1222 -1.2708
 9543TIP3    H250045   5.810   0.119  12.464  1.3590 -0.5356  0.3546
 9544TIP3   OH250046   0.814   2.182   2.291  0.0407  0.4416  0.4904
 9544TIP3    H150047   0.728   2.223   2.283  1.6944  3.9451 -1.7128
 9544TIP3    H250048   0.817   2.119   2.219 -0.3668  0.9172  0.0507
 9545TIP3   OH250049   5.814   4.988   2.988 -0.4881 -0.0857  0.0100
 9545TIP3    H150050   5.872   4.973   2.913 -0.5236 -2.6101  0.4125
 9545TIP3    H250051   5.739   4.932   2.971 -1.0293  0.1881  1.3892
 9546TIP3   OH250052   6.260   6.094  14.635  0.0649 -0.1725  0.4790
 9546TIP3    H150053   6.304   6.119  14.553  0.3376  1.6968  1.1569
 9546TIP3    H250054   6.331   6.080  14.697 -0.2008  0.6184  0.9743
 9547TIP3   OH250055   5.581   3.445  13.654 -0.0635 -0.2560 -0.7050
 9547TIP3    H150056   5.641   3.371  13.643 -0.6218 -0.5029 -2.3969
 9547TIP3    H250057   5.515   3.413  13.715  1.4655  0.0355  1.2347
 9548TIP3   OH250058   3.563   0.444   3.093  0.5962  0.5416 -0.2621
 9548TIP3    H150059   3.535   0.502   3.164 -0.9141 -0.3169 -0.1144
 9548TIP3    H250060   3.500   0.459   3.023 -0.3586 -1.4765  0.0844
 9549TIP3   OH250061   5.421   0.738  15.241  0.0881  0.5436 -0.0621
 9549TIP3    H150062   5.365   0.763  15.315  0.2541  3.6812 -0.8436
 9549TIP3    H250063   5.363   0.687  15.184 -0.2547 -1.2541  1.7609
 9550TIP3   OH250064   4.837   0.742   0.391  0.8390 -0.5810  0.1240
 9550TIP3    H150065   4.862   0.776   0.477  1.4928 -2.2400  0.6265
 9550TIP3    H250066   4.920   0.717   0.350  0.3823 -1.5824 -0.2101
 9551TIP3   OH250067   1.198   5.375  12.325 -0.0942  0.1422 -0.8932
 9551TIP3    H150068   1.108   5.408  12.313 -0.4568 -0.6926 -0.5370
 9551TIP3    H250069   1.236   5.433  12.390 -0.7526 -0.1624 -0.2205
 9552TIP3   OH250070   2.631   1.302   1.655 -0.2059  0.3332 -0.1381
 9552TIP3    H150071   2.680   1.284   1.575 -0.7413  0.1235 -0.4292
 9552TIP3    H250072   2.587   1.385   1.637 -1.8890 -0.6547 -0.8541
 9553TIP3   OH250073   6.000   0.143   1.103  0.1047  0.1503  0.7966
 9553TIP3    H150074   5.918   0.138   1.153 -0.4655 -0.4578 -0.1535
 9553TIP3    H250075   6.069   0.132   1.168 -0.4931  2.0191  1.8063
 9554TIP3   OH250076   0.637   2.790  12.179  0.8851 -0.7466  0.0984
 9554TIP3    H150077   0.559   2.783  12.125  1.3721 -0.6399 -0.6354
 9554TIP3    H250078   0.702   2.831  12.122  1.3532 -0.4372  0.8282
 9555TIP3   OH250079   4.457   1.196  13.589 -0.1278 -0.3390 -0.1997
 9555TIP3    H150080   4.445   1.285  13.556 -1.5951 -0.2121  0.5670
 9555TIP3    H250081   4.444   1.140  13.513 -0.6196  0.0617 -0.4167
 9556TIP3   OH250082   1.520   2.877   3.567  0.2700 -0.8416  0.1463
 9556TIP3    H150083   1.576   2.844   3.637  0.1175 -0.3043  0.5260
 9556TIP3    H250084   1.499   2.967   3.594  2.9726  0.6734 -2.1850
 9557TIP3   OH250085   4.268   6.460  13.070 -0.1616  0.1293  0.5222
 9557TIP3    H150086   4.213   6.530  13.037 -0.3411  0.6011  1.7899
 9557TIP3    H250087   4.229   6.435  13.154  1.0334 -0.1264  1.0239
 9558TIP3   OH250088   0.060   3.459  11.124 -0.2517  0.7399 -0.1698
 9558TIP3    H150089   0.042   3.550  11.099  0.5005  0.8085 -0.4981
 9558TIP3    H250090   0.150   3.443  11.093  0.0088  0.2148  0.8169
 9559TIP3   OH250091   5.366   0.866   6.716  0.1939 -0.0257  0.4731
 9559TIP3    H150092   5.385   0.772   6.717 -0.5177 -0.3849 -3.4287
 9559TIP3    H250093   5.272   0.871   6.732  0.5400  0.2791  2.6914
 9560TIP3   OH250094   3.085   2.895   2.391 -0.4365  0.7497  0.1910
 9560TIP3    H150095   3.054   2.865   2.477 -0.7950  1.1238  0.1950
 9560TIP3    H250096   3.010   2.940   2.353 -1.2807 -1.9806 -1.6158
 9561TIP3   OH250097   1.596   4.942  13.889 -0.1184 -0.6540 -0.3144
 9561TIP3    H150098   1.523   4.985  13.844 -0.3356 -0.2990  0.3595
 9561TIP3    H250099   1.596   4.980  13.977  0.1284 -1.5328  0.0786
 9562TIP3   OH250100   0.383   0.021   3.382 -0.0562  0.1094  0.1787
 9562TIP3    H150101   0.391  -0.074   3.388  1.5439  0.3084  1.8939
 9562TIP3    H250102   0.315   0.044   3.445 -1.3841  0.0451 -1.1629
 9563TIP3   OH250103   4.054   1.194  13.325 -0.2257 -0.2219  0.4680
 9563TIP3    H150104   4.032   1.182  13.232  0.0640 -3.0441  0.6647
 9563TIP3    H250105   4.116   1.123  13.343  0.7674  1.0885  2.5201
 9564TIP3   OH250106   2.134   3.008   4.769 -0.0205  0.1633 -0.8384
 9564TIP3    H150107   2.099   3.002   4.858 -0.5174 -1.7224 -1.1135
 9564TIP3    H250108   2.077   3.071   4.726 -1.8699 -1.3218 -0.6920
 9565TIP3   OH250109   3.166   2.299  13.472 -0.1262 -0.1216 -0.2127
 9565TIP3    H150110   3.185   2.218  13.518  0.9572  0.8280  1.0637
 9565TIP3    H250111   3.071   2.309  13.479 -0.4399 -1.8509 -1.4323
 9566TIP3   OH250112   3.651   0.851  12.957  0.2416  0.5861  0.1469
 9566TIP3    H150113   3.646   0.852  12.861 -0.6916 -1.4675  0.1407
 9566TIP3    H250114   3.580   0.909  12.985  0.4204  1.0726 -0.3814
 9567TIP3   OH250115   6.100   4.821  14.353  0.0836  0.1270 -0.5803
 9567TIP3    H150116   6.011   4.825  14.388  0.9925  0.1604  1.9564
 9567TIP3    H250117   6.113   4.907  14.312 -1.7559 -0.6910 -3.1222
 9568TIP3   OH250118   0.468   1.582  14.694 -0.0049 -0.0622  0.1341
 9568TIP3    H150119   0.454   1.636  14.771 -4.6382  1.1961 -1.2932
 9568TIP3    H250120   0.415   1.504  14.709  0.1793 -0.4725 -1.1861
 9569TIP3   OH250121   3.571   4.098  11.148  0.4419  0.0983 -0.4935
 9569TIP3    H150122   3.536   4.076  11.061  0.5225 -0.8564 -0.3005
 9569TIP3    H250123   3.497   4.136  11.194  0.7097  1.7556 -1.3652
 9570TIP3   OH250124   3.980   6.593  11.294 -0.4149  0.2980  0.3830
 9570TIP3    H150125   4.028   6.519  11.331 -0.8704 -0.4766 -0.5215
 9570TIP3    H250126   4.047   6.660  11.278 -0.1261  0.4198  2.0049
 9571TIP3   OH250127   0.213   4.252   5.578  0.0629  0.2525 -0.5772
 9571TIP3    H150128   0.146   4.321   5.580  1.3734  1.5368  0.8385
 9571TIP3    H250129   0.169   4.175   5.614 -1.3287  0.3840 -1.8811
 9572TIP3   OH250130   2.198   5.518  13.694  1.2967 -0.6681 -0.3322
 9572TIP3    H150131   2.276   5.571  13.710  0.1654  0.8611  0.3387
 9572TIP3    H250132   2.126   5.570  13.730 -0.0973 -1.8270 -1.3519
 9573TIP3   OH250133   0.657   3.839   3.701 -0.0227  0.2497 -0.0827
 9573TIP3    H150134   0.653   3.870   3.792 -0.1891  0.1196 -0.0454
 9573TIP3    H250135   0.702   3.909   3.654 -1.2368  0.9871 -0.1771
 9574TIP3   OH250136   3.862   1.352   2.058 -0.0485  0.3040 -0.4474
 9574TIP3    H150137   3.817   1.436   2.064  0.1344  0.3108  1.5250
 9574TIP3    H250138   3.932   1.366   1.994 -1.2270  1.0447 -1.6116
 9575TIP3   OH250139   2.388   3.311  16.294  0.7244 -0.2081 -0.3788
 9575TIP3    H150140   2.372   3.240  16.232  0.8202 -0.8644  0.3473
 9575TIP3    H250141   2.482   3.308  16.311  0.8268  0.4575 -0.7725
 9576TIP3   OH250142   5.577   4.029   3.952  0.2808  0.5104  0.5978
 9576TIP3    H150143   5.664   3.999   3.927  0.3818 -1.8481  3.2918
 9576TIP3    H250144   5.531   3.950   3.980 -3.4520  1.3369 -2.3636
 9577TIP3   OH250145   4.471   2.322  12.739  0.0763 -0.5424  0.0317
 9577TIP3    H150146   4.511   2.307  12.654  1.3727  2.1390  0.0483
 9577TIP3    H250147   4.451   2.235  12.772  1.4462 -1.7607 -2.1191
 9578TIP3   OH250148   6.084   5.066  15.657  0.2150  0.2180 -0.7762
 9578TIP3    H150149   6.062   4.978  15.686  0.1872  1.0193  1.8321
 9578TIP3    H250150   6.014   5.089  15.596 -0.3837 -1.1251 -0.6255
 9579TIP3   OH250151   6.176   0.701   0.863  0.1290 -0.5713  0.2357
 9579TIP3    H150152   6.084   0.695   0.889  0.2304  1.6851  1.3652
 9579TIP3    H250153   6.173   0.750   0.781  0.2566 -2.1155 -0.7399
 9580TIP3   OH250154   1.801   6.240  12.053 -0.1202  0.4524  0.3315
 9580TIP3    H150155   1.851   6.166  12.019 -0.6792 -0.2034  0.9185
 9580TIP3    H250156   1.771   6.287  11.975  4.5501  3.1359 -0.2275
 9581TIP3   OH250157   4.414   3.813   1.470  0.8953  0.1255 -0.0480
 9581TIP3    H150158   4.373   3.858   1.544 -0.1056 -1.3019  0.2992
 9581TIP3    H250159   4.380   3.859   1.392  0.8148  0.7082  0.3237
 9582TIP3   OH250160   1.323   0.239   1.057  0.0711 -0.0599  0.0254
 9582TIP3    H150161   1.390   0.175   1.031  0.3109  1.0762 -2.4568
 9582TIP3    H250162   1.373   0.310   1.099  0.6244  1.0064 -2.2394
 9583TIP3   OH250163   6.669   1.364   5.430  0.0062 -0.0800  0.8263
 9583TIP3    H150164   6.651   1.282   5.385  1.8693 -0.6538  1.0649
 9583TIP3    H250165   6.594   1.376   5.488 -2.0179  0.2308 -1.6674
 9584TIP3   OH250166   1.382   5.923  15.947 -0.2962  0.1118 -0.3905
 9584TIP3    H150167   1.446   5.852  15.947 -0.5630 -0.1820  1.5137
 9584TIP3    H250168   1.430   5.998  15.981 -0.5919  0.2679 -0.3188
 9585TIP3   OH250169   0.794   4.991   2.319  0.1708  0.0648 -0.0679
 9585TIP3    H150170   0.732   5.062   2.301  0.0585  0.0156  0.1282
 9585TIP3    H250171   0.830   4.969   2.233 -1.9488 -1.6535 -0.6174
 9586TIP3   OH250172   3.142   0.091   4.641  0.8020  0.3184 -0.4840
 9586TIP3    H150173   3.165   0.184   4.630  0.0653  0.6005  0.2977
 9586TIP3    H250174   3.162   0.052   4.556  1.3369  1.1438 -0.7551
 9587TIP3   OH250175   5.273   1.520   3.712 -0.0653 -0.1563  0.0931
 9587TIP3    H150176   5.354   1.510   3.661  0.4624  1.0637  0.6679
 9587TIP3    H250177   5.302   1.559   3.795 -1.1094 -0.7243  0.7414
 9588TIP3   OH250178   2.431   5.785   0.859 -0.4228  0.1272  0.3947
 9588TIP3    H150179   2.511   5.837   0.856 -0.6422  0.5137  0.9681
 9588TIP3    H250180   2.457   5.697   0.832  0.0236  0.4524 -0.2365
 9589TIP3   OH250181   6.546   1.039  11.649 -0.0399 -0.3201 -0.1215
 9589TIP3    H150182   6.503   1.006  11.570 -0.3927 -0.2624  0.0465
 9589TIP3    H250183   6.549   0.964  11.708  1.8794 -0.8901 -0.8572
 9590TIP3   OH250184   2.984   1.851   4.557  0.2250 -0.0779  0.3616
 9590TIP3    H150185   2.889   1.859   4.565  0.3700  1.4204  0.8344
 9590TIP3    H250186   3.017   1.864   4.646  0.9389  0.7042 -0.0097
 9591TIP3   OH250187   1.901   4.535   4.402  0.4449  0.0681 -0.1443
 9591TIP3    H150188   1.884   4.557   4.494  2.2003  1.0409 -0.0181
 9591TIP3    H250189   1.913   4.619   4.359 -0.6876 -0.3669 -1.3653
 9592TIP3   OH250190   5.690   5.176   2.382  0.2733 -0.4949  0.2219
 9592TIP3    H150191   5.651   5.103   2.334  1.6969 -0.4944 -0.9738
 9592TIP3    H250192   5.666   5.254   2.332 -0.2029 -0.2411  0.8237
 9593TIP3   OH250193   5.274   0.583  14.563 -0.5087 -0.5396  0.1422
 9593TIP3    H150194   5.209   0.553  14.627  1.8996 -2.0527  2.0794
 9593TIP3    H250195   5.331   0.643  14.612  1.8838 -2.3484 -0.1969
 9594TIP3   OH250196   6.489   1.013   2.111  0.3927  0.4413  0.2474
 9594TIP3    H150197   6.522   1.090   2.156  2.4236 -0.3458  0.2187
 9594TIP3    H250198   6.410   0.989   2.159  1.3694  0.8127  2.1248
 9595TIP3   OH250199   4.017   0.188   3.810  0.5986  0.2578 -0.3137
 9595TIP3    H150200   4.064   0.111   3.777 -0.8334 -0.4152 -0.8493
 9595TIP3    H250201   3.926   0.160   3.815  0.1639  1.7041  0.1871
 9596TIP3   OH250202   3.050   6.744   4.956  0.4619 -0.2343  0.3419
 9596TIP3    H150203   3.076   6.676   5.017  0.3259  0.1669  0.8471
 9596TIP3    H250204   3.073   6.826   4.999 -0.4742  0.0808  0.2663
 9597TIP3   OH250205   4.655   1.622  15.682 -0.1334  0.5647 -0.2844
 9597TIP3    H150206   4.674   1.531  15.662 -0.5399  0.5286 -0.5286
 9597TIP3    H250207   4.686   1.671  15.606 -1.5667  0.4402 -0.9770
 9598TIP3   OH250208   0.606   4.021  12.622  0.7842 -0.2180 -0.2060
 9598TIP3    H150209   0.624   3.927  12.612  2.2089  0.2262 -2.6598
 9598TIP3    H250210   0.513   4.030  12.599  0.9678 -0.9098 -1.3271
 9599TIP3   OH250211   6.723   4.956  12.463 -0.1084  0.0505  0.3026
 9599TIP3    H150212   6.697   4.922  12.377 -1.6205 -0.1902  0.8279
 9599TIP3    H250213   6.658   4.921  12.524  0.9022  0.2682  1.5500
 9600TIP3   OH250214   6.259   2.482   1.541  0.2036  0.3535  0.1000
 9600TIP3    H150215   6.284   2.542   1.612  0.2522 -0.4548  0.7809
 9600TIP3    H250216   6.172   2.511   1.514  0.7090  1.4612 -0.3868
 9601TIP3   OH250217   0.142   1.574  12.610  0.4816 -0.4666 -0.0753
 9601TIP3    H150218   0.173   1.661  12.588  0.0879 -0.0619  0.9348
 9601TIP3    H250219   0.220   1.519  12.608  0.5423 -0.4125 -2.0897
 9602TIP3   OH250220   0.593   6.647  13.025 -0.5674  0.4921 -0.6366
 9602TIP3    H150221   0.616   6.583  12.958 -0.3770  0.6464 -0.7194
 9602TIP3    H250222   0.676   6.687  13.050 -0.4111 -0.6096  0.7684
 9603TIP3   OH250223   6.369   2.107  14.408 -0.0376  0.6730 -0.5290
 9603TIP3    H150224   6.446   2.157  14.435  0.5413  0.0829 -1.0616
 9603TIP3    H250225   6.365   2.035  14.471  0.1202  0.4432 -0.7803
 9604TIP3   OH250226   0.838   1.732  16.234  0.9224  0.3300  0.4320
 9604TIP3    H150227   0.752   1.749  16.270  0.8641  0.8082  0.0916
 9604TIP3    H250228   0.891   1.807  16.262  0.4891  1.5136 -1.6664
 9605TIP3   OH250229   0.481   0.200   3.647 -0.1840 -0.0589 -0.0809
 9605TIP3    H150230   0.490   0.279   3.701 -1.1444  0.3627 -0.5023
 9605TIP3    H250231   0.486   0.128   3.710 -0.3265  0.3841  0.4548
 9606TIP3   OH250232   1.701   3.269  17.242 -0.1629 -0.1671  0.0783
 9606TIP3    H150233   1.632   3.267  17.309  0.2699 -0.9135  0.5167
 9606TIP3    H250234   1.694   3.356  17.203 -1.1484 -0.1250  0.3313
 9607TIP3   OH250235   5.878   2.256  13.033 -0.0043 -0.0029 -0.1984
 9607TIP3    H150236   5.965   2.256  13.072 -0.6082  0.1880  1.2349
 9607TIP3    H250237   5.825   2.202  13.092 -1.1771  1.0705 -0.2027
 9608TIP3   OH250238   6.392   5.055   4.821  0.4299  0.4505  0.2537
 9608TIP3    H150239   6.384   4.964   4.794  0.2067  0.4474  0.3245
 9608TIP3    H250240   6.361   5.105   4.745  3.5376  0.6133 -1.0700
 9609TIP3   OH250241   5.574   3.421   1.868  0.3256  0.1061  0.4249
 9609TIP3    H150242   5.517   3.484   1.823  1.5449  0.2998 -0.9406
 9609TIP3    H250243   5.645   3.475   1.904 -0.4580 -0.0892  2.4017
 9610TIP3   OH250244   3.800   5.118   2.109  0.0266  0.7531 -0.2660
 9610TIP3    H150245   3.723   5.112   2.166 -1.1426  3.9284 -1.2507
 9610TIP3    H250246   3.859   5.178   2.155  0.5790  0.6442 -0.8292
 9611TIP3   OH250247   1.028   3.651  14.432 -0.0531  0.4711 -0.6151
 9611TIP3    H150248   1.096   3.618  14.491 -1.2049  0.8089  0.9655
 9611TIP3    H250249   1.073   3.712  14.374  1.2703 -0.5383 -0.7003
 9612TIP3   OH250250   4.886   1.207   1.861 -0.5122 -0.0084 -0.7220
 9612TIP3    H150251   4.972   1.170   1.882  0.2820  0.6988 -2.5142
 9612TIP3    H250252   4.851   1.236   1.945  0.2070 -1.9319  0.2793
 9613TIP3   OH250253   0.822   1.207  11.731 -0.3282  0.4972 -0.0136
 9613TIP3    H150254   0.816   1.270  11.804 -1.2639  1.8957 -1.2513
 9613TIP3    H250255   0.793   1.124  11.769  0.2888  0.9303  1.4965
 9614TIP3   OH250256   3.105   1.846   3.505 -0.3330 -0.1435 -0.7696
 9614TIP3    H150257   3.152   1.809   3.580  0.7791  2.0211 -0.3321
 9614TIP3    H250258   3.062   1.771   3.465  0.4841 -1.6392  0.9991
 9615TIP3   OH250259   1.272   4.241   1.534  0.4694 -0.7114  0.3373
 9615TIP3    H150260   1.330   4.252   1.458  0.5595  1.6905  0.6700
 9615TIP3    H250261   1.331   4.245   1.609  0.1747 -1.1927  0.5943
 9616TIP3   OH250262   4.081   1.252   5.254 -0.5369 -0.1617 -0.0062
 9616TIP3    H150263   4.102   1.245   5.161 -0.7890 -1.0527 -0.0107
 9616TIP3    H250264   4.031   1.172   5.273  1.5314 -1.1960  1.4248
 9617TIP3   OH250265   1.146   3.670   0.203 -0.7260  0.0727  0.2484
 9617TIP3    H150266   1.095   3.701   0.129 -1.7761  0.3515  1.0626
 9617TIP3    H250267   1.186   3.748   0.240  0.1354 -0.1176 -0.2555
 9618TIP3   OH250268   1.388   6.189  10.674 -0.0357  0.4219 -0.3164
 9618TIP3    H150269   1.456   6.128  10.644 -0.6717 -0.6996  0.4667
 9618TIP3    H250270   1.426   6.230  10.752 -0.7471 -1.2495  0.9722
 9619TIP3   OH250271   5.247   3.365   1.866 -0.4628 -0.1056  0.1489
 9619TIP3    H150272   5.212   3.367   1.777 -1.2275  0.6209  0.4543
 9619TIP3    H250273   5.319   3.302   1.862 -0.9713 -0.6482 -0.8055
 9620TIP3   OH250274   3.631   1.327   5.148  0.3979 -0.2579 -0.0719
 9620TIP3    H150275   3.557   1.278   5.114  0.8783 -2.2595  1.5831
 9620TIP3    H250276   3.643   1.294   5.237  2.3042  1.1425  0.2536
 9621TIP3   OH250277   0.897   6.127  15.759  0.9139 -0.1610  0.0374
 9621TIP3    H150278   0.882   6.144  15.666 -0.1592 -0.3650  0.1579
 9621TIP3    H250279   0.810   6.107  15.794  1.0579  1.2560  1.3582
 9622TIP3   OH250280   6.139   4.790   2.988 -0.1544 -0.6178 -0.2381
 9622TIP3    H150281   6.225   4.813   3.024 -0.9113  0.3623  1.0104
 9622TIP3    H250282   6.117   4.864   2.931 -0.6433 -0.3511  0.2930
 9623TIP3   OH250283   6.757   1.445   1.004 -0.2566  0.4378  0.0976
 9623TIP3    H150284   6.759   1.375   0.938  0.5503  0.0024  0.5576
 9623TIP3    H250285   6.765   1.399   1.088  2.8601  1.1613  0.3136
 9624TIP3   OH250286   2.403   3.258   0.624 -0.4015 -0.9000  0.1818
 9624TIP3    H150287   2.357   3.307   0.693 -1.4810 -1.6747  0.0239
 9624TIP3    H250288   2.484   3.308   0.611  0.0152 -0.9132  2.2640
 9625TIP3   OH250289   6.405   5.033  15.083 -0.1271  0.3480  0.4393
 9625TIP3    H150290   6.382   5.026  14.990 -1.2658 -1.4820  0.8198
 9625TIP3    H250291   6.337   5.090  15.120  0.3452  1.1041  0.1794
 9626TIP3   OH250292   2.694   1.375  12.128 -0.1487 -0.3426 -0.4315
 9626TIP3    H150293   2.672   1.451  12.075  0.0996  0.0179 -0.0214
 9626TIP3    H250294   2.625   1.371  12.194  0.1326 -0.1461 -0.1198
 9627TIP3   OH250295   5.655   2.124  13.861  0.7702 -0.5171  0.2958
 9627TIP3    H150296   5.608   2.192  13.909  0.0763  0.0084 -1.0878
 9627TIP3    H250297   5.748   2.147  13.871  0.5973  0.0322  0.7018
 9628TIP3   OH250298   4.049   5.988   0.302 -0.0503 -0.4308  0.0433
 9628TIP3    H150299   4.122   6.046   0.320 -0.3309 -0.3928  1.1095
 9628TIP3    H250300   4.076   5.903   0.338 -0.3081 -0.5530 -0.0472
 9629TIP3   OH250301   6.594   0.863  12.931  0.3488  0.0814  0.1881
 9629TIP3    H150302   6.625   0.894  13.016  3.0911 -0.9853 -0.3105
 9629TIP3    H250303   6.618   0.933  12.870 -1.0710  0.5822  0.1761
 9630TIP3   OH250304   0.683   2.139  14.256 -0.1906 -0.3395 -0.3376
 9630TIP3    H150305   0.720   2.211  14.205  1.1135  0.1127  1.1542
 9630TIP3    H250306   0.614   2.180  14.308 -0.7193 -0.5580 -0.8627
 9631TIP3   OH250307   2.302   6.359   0.480 -0.2846  0.1243  0.3290
 9631TIP3    H150308   2.340   6.410   0.552 -1.9210  0.3583  1.0761
 9631TIP3    H250309   2.243   6.297   0.523 -1.9755  0.8575 -0.8144
 9632TIP3   OH250310   1.444   1.586   2.993  0.6264 -0.0684 -0.2431
 9632TIP3    H150311   1.491   1.540   3.062 -0.5679  0.9435  1.3211
 9632TIP3    H250312   1.351   1.578   3.017  0.2805  1.6980 -0.8308
 9633TIP3   OH250313   5.227   0.410   0.613 -0.0687 -0.2231  0.2765
 9633TIP3    H150314   5.292   0.346   0.585 -1.3013 -1.2671 -0.3422
 9633TIP3    H250315   5.276   0.474   0.664  1.3553 -1.1912  0.1829
 9634TIP3   OH250316   5.549   0.550   6.485  0.1370  0.0429  0.2842
 9634TIP3    H150317   5.633   0.584   6.457 -0.0456 -0.1015 -0.4558
 9634TIP3    H250318   5.564   0.457   6.501  0.0684 -0.0229 -0.0410
 9635TIP3   OH250319   2.914   5.861  15.233  0.1322 -0.1364  0.0742
 9635TIP3    H150320   2.939   5.897  15.148  2.0092  3.9147  2.0459
 9635TIP3    H250321   2.818   5.863  15.232  0.1258  1.7327 -1.2932
 9636TIP3   OH250322   5.671   3.110  14.303 -0.2895 -0.0634  0.1133
 9636TIP3    H150323   5.632   3.182  14.253  0.3174  1.0322  1.1664
 9636TIP3    H250324   5.762   3.136  14.317 -0.0706 -1.0195  0.5558
 9637TIP3   OH250325   0.839   2.260  10.834  0.2766 -0.1303 -0.0159
 9637TIP3    H150326   0.868   2.351  10.824 -1.5145  0.5200  0.3433
 9637TIP3    H250327   0.801   2.238  10.749  2.0256 -1.1008 -0.6063
 9638TIP3   OH250328   5.859   3.952   3.806  0.5373  0.5934 -0.4747
 9638TIP3    H150329   5.802   3.912   3.741 -0.7647  0.4411  0.7015
 9638TIP3    H250330   5.902   3.878   3.849  2.9740  0.7427 -2.4209
 9639TIP3   OH250331   1.064   3.516  17.165 -0.2000  0.0580  0.3773
 9639TIP3    H150332   1.026   3.531  17.079  1.2551 -0.0068 -0.2958
 9639TIP3    H250333   1.050   3.598  17.212  2.3818  1.5538 -1.2495
 9640TIP3   OH250334   3.621   0.119   0.082 -0.4869 -0.0158  0.2389
 9640TIP3    H150335   3.641   0.041   0.030  0.0217 -0.4322  1.0340
 9640TIP3    H250336   3.657   0.100   0.168  0.2690  1.3951  0.2558
 9641TIP3   OH250337   0.731   5.908  10.864  0.2470 -0.3602 -0.3015
 9641TIP3    H150338   0.803   5.855  10.897  0.1242 -1.1495 -1.2764
 9641TIP3    H250339   0.722   5.978  10.929  0.0153 -1.8324  1.3342
 9642TIP3   OH250340   5.889   0.671  13.471  0.1003 -1.2817  0.4119
 9642TIP3    H150341   5.940   0.750  13.454  0.8970 -1.7668  0.4786
 9642TIP3    H250342   5.865   0.639  13.384 -0.5207 -0.7878  0.3950
 9643TIP3   OH250343   1.574   0.477  12.904 -0.0149 -0.4259 -0.7073
 9643TIP3    H150344   1.589   0.454  12.996 -2.1641 -1.2191 -0.5079
 9643TIP3    H250345   1.612   0.404  12.855  0.5169 -0.3445 -0.4201
 9644TIP3   OH250346   5.632   2.369   1.271 -0.1870  0.1397  0.5860
 9644TIP3    H150347   5.667   2.448   1.313  0.1348  0.4167 -0.1747
 9644TIP3    H250348   5.704   2.339   1.214 -0.0666 -1.0794  1.3532
 9645TIP3   OH250349   3.686   4.308  13.907 -0.2439 -0.2785 -0.1118
 9645TIP3    H150350   3.590   4.303  13.907 -0.2226 -0.8367 -0.7232
 9645TIP3    H250351   3.714   4.246  13.974 -0.3276  0.4200  0.5778
 9646TIP3   OH250352   1.399   6.063  15.611 -0.3824  0.3426 -0.1977
 9646TIP3    H150353   1.342   6.011  15.554 -0.3879  0.0276  0.0915
 9646TIP3    H250354   1.402   6.014  15.693  0.4227  0.2725 -0.2598
 9647TIP3   OH250355   1.320   3.809  11.470 -0.3365  0.3233  0.3738
 9647TIP3    H150356   1.256   3.878  11.460 -1.0248 -0.3916 -0.3227
 9647TIP3    H250357   1.389   3.830  11.406 -0.9285 -0.0365 -0.4024
 9648TIP3   OH250358   6.482   1.384  16.407 -0.2166 -0.2759  0.2324
 9648TIP3    H150359   6.536   1.425  16.340 -0.4250  0.6321  0.6038
 9648TIP3    H250360   6.544   1.333  16.459  0.2019  0.3043  0.3157
 9649TIP3   OH250361   1.592   4.224   5.606 -0.5225  0.1676 -0.1431
 9649TIP3    H150362   1.552   4.290   5.549 -1.6749  0.7345  1.2529
 9649TIP3    H250363   1.523   4.159   5.619 -0.5410  0.4446  1.2102
 9650TIP3   OH250364   0.901   5.017  12.552  0.4286  0.1887 -0.5621
 9650TIP3    H150365   0.970   5.040  12.614 -1.1240 -0.0637  1.3673
 9650TIP3    H250366   0.878   5.100  12.511  0.5646  0.6298  0.2181
 9651TIP3   OH250367   4.527   1.859  13.655  0.1652 -0.7690  0.5497
 9651TIP3    H150368   4.453   1.807  13.625  0.5978 -0.4262 -1.2649
 9651TIP3    H250369   4.487   1.933  13.702 -0.4405 -2.7074  3.3359
 9652TIP3   OH250370   3.558   5.511  14.821 -0.3201 -0.8244 -0.5194
 9652TIP3    H150371   3.524   5.429  14.785 -1.5681 -0.9157  0.7792
 9652TIP3    H250372   3.513   5.521  14.905  0.1831  0.9308 -0.4163
 9653TIP3   OH250373   3.157   6.686   3.893 -0.1511 -0.3144  0.0706
 9653TIP3    H150374   3.111   6.637   3.824  0.5790 -1.8544  0.6429
 9653TIP3    H250375   3.108   6.666   3.973  0.4780 -0.5788  0.3983
 9654TIP3   OH250376   3.087   2.412   2.623  0.1167 -0.0714  0.4495
 9654TIP3    H150377   2.996   2.439   2.636 -0.0456 -0.5793  0.3871
 9654TIP3    H250378   3.089   2.320   2.648  0.4086 -0.3085 -0.3979
 9655TIP3   OH250379   3.011   5.908  16.022  0.6396 -0.3825  0.1713
 9655TIP3    H150380   2.927   5.953  16.026  1.4085  1.0432  1.1559
 9655TIP3    H250381   3.008   5.858  15.940 -1.2649 -0.6211  0.3508
 9656TIP3   OH250382   0.319   4.045  14.532 -0.2262  0.1856  0.5222
 9656TIP3    H150383   0.331   4.118  14.593 -0.7496  2.7837 -2.2423
 9656TIP3    H250384   0.231   4.058  14.497 -0.3413 -1.8493 -0.0467
 9657TIP3   OH250385   1.749   3.522  15.616  0.3375  0.3327 -0.2141
 9657TIP3    H150386   1.719   3.531  15.526 -1.5115 -1.7091  0.0942
 9657TIP3    H250387   1.676   3.553  15.670  1.6150  2.0268  0.6221
 9658TIP3   OH250388   5.491   2.847  14.949 -0.3457  0.1721  0.3831
 9658TIP3    H150389   5.448   2.805  15.024 -0.4046  0.1397  0.3326
 9658TIP3    H250390   5.435   2.921  14.927 -0.2715  0.2438  0.4384
 9659TIP3   OH250391   4.026   2.427   0.376  0.4944  0.3640 -0.0807
 9659TIP3    H150392   4.048   2.516   0.349 -0.4647  0.9981  1.1156
 9659TIP3    H250393   4.088   2.371   0.328  1.4760  1.7019 -0.4308
 9660TIP3   OH250394   1.318   6.607  16.489  0.0231 -0.6143 -0.7002
 9660TIP3    H150395   1.237   6.563  16.514 -0.3111  0.1912 -0.3257
 9660TIP3    H250396   1.368   6.614  16.570 -0.0199 -0.1220 -0.7142
 9661TIP3   OH250397   1.864   2.633  17.087  0.6137  0.0329  0.2665
 9661TIP3    H150398   1.909   2.710  17.122  2.5310 -0.1410 -1.5819
 9661TIP3    H250399   1.922   2.560  17.108 -0.5410 -0.7424  0.8469
 9662TIP3   OH250400   0.615   1.547   2.002 -0.2236 -0.0202  0.3569
 9662TIP3    H150401   0.690   1.593   1.966 -0.2672  1.5453  2.1075
 9662TIP3    H250402   0.653   1.469   2.043 -0.1652 -1.7516 -2.7355
 9663TIP3   OH250403   5.092   6.415   0.860  0.0931  0.0882 -0.1857
 9663TIP3    H150404   5.112   6.326   0.833  0.8627  0.1965 -0.0169
 9663TIP3    H250405   5.043   6.406   0.941 -0.2736 -0.1920 -0.4402
 9664TIP3   OH250406   5.301   2.630  11.472 -0.0167  0.4046  0.1878
 9664TIP3    H150407   5.366   2.654  11.538  1.3291 -1.0497 -0.5377
 9664TIP3    H250408   5.350   2.628  11.390 -1.0047 -0.5690 -0.4054
 9665TIP3   OH250409   3.456   0.391   4.329 -0.3784 -0.6538  0.2021
 9665TIP3    H150410   3.422   0.326   4.268  0.7998 -2.5041  1.4208
 9665TIP3    H250411   3.524   0.345   4.378 -0.4343  1.1218  2.0803
 9666TIP3   OH250412   2.827   1.405  11.823 -0.4908  0.2864  0.2409
 9666TIP3    H150413   2.780   1.355  11.889 -0.3054 -0.9492 -0.5293
 9666TIP3    H250414   2.758   1.452  11.775 -0.7787 -0.1626  0.2126
 9667TIP3   OH250415   3.803   4.596   5.589 -0.6096  0.1482 -0.2374
 9667TIP3    H150416   3.848   4.597   5.505 -0.4509  1.4662 -0.1686
 9667TIP3    H250417   3.710   4.604   5.568 -0.5852  0.2588 -0.3064
 9668TIP3   OH250418   2.563   5.743  15.855  0.1582 -0.0471  0.0268
 9668TIP3    H150419   2.586   5.669  15.799 -0.2190 -0.7947  0.8313
 9668TIP3    H250420   2.628   5.742  15.925 -1.2893 -1.1996  1.4307
 9669TIP3   OH250421   1.093   6.461   0.075  0.0767 -0.6840  0.4648
 9669TIP3    H150422   1.104   6.554   0.054  0.7928 -1.1172 -1.2305
 9669TIP3    H250423   1.173   6.437   0.121 -0.1603 -0.4429  1.0103
 9670TIP3   OH250424   2.085   1.743  14.347 -0.2277 -0.7667  0.5362
 9670TIP3    H150425   1.996   1.764  14.318 -0.8149 -1.6892  1.6052
 9670TIP3    H250426   2.109   1.664  14.299 -0.2450 -0.8947  0.7362
 9671TIP3   OH250427   4.169   4.206  17.016 -0.1130  0.8100 -0.0392
 9671TIP3    H150428   4.130   4.185  17.101  1.1297  1.3254  0.6760
 9671TIP3    H250429   4.194   4.298  17.023  0.1357  0.8184 -0.9239
 9672TIP3   OH250430   5.818   2.304   0.844 -0.1875 -0.3112 -0.0132
 9672TIP3    H150431   5.795   2.393   0.818 -0.5096 -0.1080  0.9642
 9672TIP3    H250432   5.825   2.307   0.939  0.5657 -1.1545 -0.0287
 9673TIP3   OH250433   0.565   4.876  15.553 -0.3939 -0.3721 -0.1884
 9673TIP3    H150434   0.508   4.934  15.502  0.5359  0.3893 -0.4080
 9673TIP3    H250435   0.532   4.788  15.537 -2.1812  0.1259  0.5767
 9674TIP3   OH250436   1.065   2.258  12.257  0.2665  0.1912 -0.3172
 9674TIP3    H150437   1.135   2.321  12.242 -0.5289  1.4824  1.0922
 9674TIP3    H250438   1.015   2.258  12.175  0.8014  0.7177 -0.6468
 9675TIP3   OH250439   5.857   2.346  14.357  0.0818 -0.0596  0.5930
 9675TIP3    H150440   5.776   2.342  14.408  0.2062 -0.4564  0.7679
 9675TIP3    H250441   5.898   2.260  14.372 -0.0043 -0.2772 -0.3767
 9676TIP3   OH250442   5.779   4.521  12.852  0.0140 -0.2523  0.3903
 9676TIP3    H150443   5.748   4.464  12.923  2.9255 -1.7411  0.6115
 9676TIP3    H250444   5.761   4.472  12.772  0.5868 -0.5437  0.4330
 9677TIP3   OH250445   6.207   5.375   0.520  0.1077  0.0324 -0.3415
 9677TIP3    H150446   6.302   5.363   0.529  0.1182 -0.1218 -0.6644
 9677TIP3    H250447   6.194   5.401   0.429 -0.2989 -1.3744 -0.6981
 9678TIP3   OH250448   3.413   3.375   2.128 -0.2903  0.1745 -0.2709
 9678TIP3    H150449   3.373   3.458   2.156  0.0541 -0.2381  1.5472
 9678TIP3    H250450   3.507   3.392   2.132 -0.2102 -0.4793  0.6827
 9679TIP3   OH250451   4.252   3.725  16.292  0.2021 -0.3234  0.3927
 9679TIP3    H150452   4.225   3.778  16.216  2.5324  0.2468 -0.1239
 9679TIP3    H250453   4.268   3.638  16.256 -0.8748 -0.6503  0.6883
 9680TIP3   OH250454   5.733   4.890  13.415 -0.3965 -0.3483  0.1855
 9680TIP3    H150455   5.711   4.932  13.332 -1.9154  0.8358  1.1345
 9680TIP3    H250456   5.825   4.865  13.406  0.0776  1.6418 -1.0600
 9681TIP3   OH250457   2.187   0.449   0.885  0.8532  0.5534 -0.7125
 9681TIP3    H150458   2.145   0.507   0.949  1.2149  0.6393 -0.5494
 9681TIP3    H250459   2.169   0.361   0.917  0.5346  0.5836 -0.8107
 9682TIP3   OH250460   1.288   3.084   5.775 -0.1876 -0.0018 -0.3224
 9682TIP3    H150461   1.314   2.997   5.807 -1.1719  0.0114  0.5595
 9682TIP3    H250462   1.204   3.069   5.732 -0.6195  0.5845  0.2970
 9683TIP3   OH250463   2.593   6.348   3.072 -0.1470  0.3593 -0.2968
 9683TIP3    H150464   2.638   6.423   3.032  1.3580 -1.0697 -1.3842
 9683TIP3    H250465   2.503   6.379   3.085  0.5311  2.5094 -0.2382
 9684TIP3   OH250466   2.730   2.737   1.931 -0.0299  0.0245 -0.1286
 9684TIP3    H150467   2.682   2.675   1.876 -0.5471  1.8797 -1.8922
 9684TIP3    H250468   2.799   2.685   1.972 -0.8266 -1.8161 -1.0330
 9685TIP3   OH250469   5.385   1.539  16.572 -0.1440  0.4509 -0.6619
 9685TIP3    H150470   5.453   1.606  16.562 -0.1796  0.5252 -0.4095
 9685TIP3    H250471   5.425   1.459  16.537  0.2862  0.3635  0.0094
 9686TIP3   OH250472   2.823   4.671  15.354  0.0872 -0.0146  0.3168
 9686TIP3    H150473   2.774   4.690  15.274  0.2830  0.7737  0.3698
 9686TIP3    H250474   2.912   4.703  15.336  0.5929 -1.3829  0.2376
 9687TIP3   OH250475   5.882   3.866  13.440 -0.2947 -0.4761 -0.5853
 9687TIP3    H150476   5.792   3.850  13.467 -0.3609  0.6360 -0.0747
 9687TIP3    H250477   5.932   3.795  13.480 -0.5493  0.5250  1.7012
 9688TIP3   OH250478   0.531   1.530   5.303 -0.1764 -0.3413 -0.3893
 9688TIP3    H150479   0.497   1.441   5.303 -0.6441 -0.1635 -0.3906
 9688TIP3    H250480   0.625   1.520   5.287 -0.0522 -0.9018  0.5857
 9689TIP3   OH250481   1.694   0.590   3.077 -0.0895  0.0680  0.4897
 9689TIP3    H150482   1.749   0.536   3.021  1.8884  0.0054  2.3691
 9689TIP3    H250483   1.662   0.659   3.019  0.9319 -0.6210 -0.9606
 9690TIP3   OH250484   4.466   3.982  12.949  0.5843 -0.5143  0.5390
 9690TIP3    H150485   4.388   3.961  12.898  0.7765 -1.8028  0.7393
 9690TIP3    H250486   4.434   4.036  13.021  0.0479 -0.1641  0.0453
 9691TIP3   OH250487   5.007   1.531   3.313  0.1934  0.0604 -0.6617
 9691TIP3    H150488   4.960   1.451   3.288 -1.3507  1.2154 -1.6294
 9691TIP3    H250489   5.033   1.516   3.404 -0.6490 -1.2795 -0.6074
 9692TIP3   OH250490   1.045   3.057   0.458  0.2328  0.0667 -0.1157
 9692TIP3    H150491   0.967   3.113   0.461  0.2442  0.0368  1.2929
 9692TIP3    H250492   1.118   3.118   0.444  0.0582  0.1894 -0.5091
 9693TIP3   OH250493   5.514   4.392  12.514  0.0259  0.2061  0.1388
 9693TIP3    H150494   5.509   4.480  12.552 -1.8719 -0.2679  1.0948
 9693TIP3    H250495   5.459   4.338  12.571  2.2574 -1.9549  0.4559
 9694TIP3   OH250496   2.896   6.036   2.005 -0.2100  0.2270 -0.1052
 9694TIP3    H150497   2.888   6.058   2.098 -1.6923  0.9329 -0.3733
 9694TIP3    H250498   2.897   6.121   1.960 -0.5003 -0.1234 -0.7939
 9695TIP3   OH250499   5.883   2.255  12.743 -0.0584  0.2142  0.0947
 9695TIP3    H150500   5.833   2.240  12.824  0.4818  0.6079  0.5122
 9695TIP3    H250501   5.970   2.280  12.774  0.8203 -1.7588 -0.5992
 9696TIP3   OH250502   1.121   5.882   2.499  0.0782  0.0799  0.4432
 9696TIP3    H150503   1.087   5.821   2.566 -1.0335  0.0308 -0.1386
 9696TIP3    H250504   1.196   5.836   2.461 -0.1129 -0.4824  0.7226
 9697TIP3   OH250505   3.496   6.757   6.461  0.7072 -0.4301 -0.2425
 9697TIP3    H150506   3.569   6.761   6.522 -0.8436 -1.6931  1.8557
 9697TIP3    H250507   3.469   6.665   6.461 -2.0621  0.2637  0.6961
 9698TIP3   OH250508   6.187   1.431  12.180  0.2481 -0.3190 -0.1610
 9698TIP3    H150509   6.252   1.374  12.223  0.4129 -0.9223 -1.1678
 9698TIP3    H250510   6.149   1.482  12.251  0.2589 -1.5355  0.7530
 9699TIP3   OH250511   5.050   4.878   4.486  0.0955  0.4438 -0.1442
 9699TIP3    H150512   5.066   4.821   4.561  1.3912  0.9956  0.0215
 9699TIP3    H250513   4.967   4.847   4.450 -0.4249  0.0030  1.3548
 9700TIP3   OH250514   5.404   4.477  13.099 -0.4000 -0.1378  0.1039
 9700TIP3    H150515   5.362   4.396  13.128  0.0360  0.0103  1.1939
 9700TIP3    H250516   5.334   4.543  13.103 -0.7525 -0.4495 -0.7765
 9701TIP3   OH250517   2.140   5.662  15.964  0.3040 -0.3845  0.1297
 9701TIP3    H150518   2.192   5.611  16.026  1.5514 -1.5404 -1.7445
 9701TIP3    H250519   2.115   5.741  16.012  2.5183 -0.4929  1.6061
 9702TIP3   OH250520   3.349   0.683  12.052 -0.4528 -0.4773 -0.4802
 9702TIP3    H150521   3.255   0.664  12.051 -0.8366  1.2486 -1.2988
 9702TIP3    H250522   3.355   0.767  12.099  0.9131 -1.5397  1.3318
 9703TIP3   OH250523   4.668   2.448  16.130 -0.1835 -0.2307  0.4270
 9703TIP3    H150524   4.707   2.532  16.152 -0.5735 -0.0325  0.3617
 9703TIP3    H250525   4.676   2.396  16.211  2.2684 -0.9989 -0.2213
 9704TIP3   OH250526   4.307   3.379  11.480 -1.1909 -0.5897 -0.1937
 9704TIP3    H150527   4.293   3.400  11.387 -0.7162  0.9657  0.0592
 9704TIP3    H250528   4.236   3.424  11.525 -1.4858 -1.4381  0.2067
 9705TIP3   OH250529   1.016   4.965   1.350 -0.2231  0.0427  0.1448
 9705TIP3    H150530   1.034   4.879   1.386  2.2954 -0.1118 -1.2061
 9705TIP3    H250531   1.040   5.026   1.420  0.8439 -0.3305  0.1255
 9706TIP3   OH250532   3.433   3.092  12.498 -0.0223 -0.1737  0.3077
 9706TIP3    H150533   3.508   3.132  12.543  1.8416 -0.3767 -2.3475
 9706TIP3    H250534   3.409   3.155  12.431  0.6898 -1.9116 -1.6937
 9707TIP3   OH250535   3.395   1.346  10.814 -0.4155 -0.4158 -0.5320
 9707TIP3    H150536   3.338   1.301  10.751 -1.2534  1.6431 -1.3220
 9707TIP3    H250537   3.392   1.438  10.788  0.5380  0.2674  1.5518
 9708TIP3   OH250538   0.266   6.607   6.699  0.0623 -0.4240  0.1234
 9708TIP3    H150539   0.338   6.669   6.712 -0.3245 -0.1186  0.8964
 9708TIP3    H250540   0.306   6.531   6.657  0.6715  0.0802 -0.2175
 9709TIP3   OH250541   0.627   1.130   4.478  0.0821  0.1653  0.6046
 9709TIP3    H150542   0.534   1.121   4.500  0.3548 -0.1568  1.6780
 9709TIP3    H250543   0.630   1.208   4.422 -1.1198 -1.1453 -1.4170
 9710TIP3   OH250544   1.477   1.388  14.459  0.1666  0.4144 -0.0026
 9710TIP3    H150545   1.383   1.398  14.441  0.2009  2.3383  0.6734
 9710TIP3    H250546   1.521   1.425  14.383  0.3274  2.2348  0.9245
 9711TIP3   OH250547   4.104   2.634  12.899  0.2600 -0.3592  0.1596
 9711TIP3    H150548   4.019   2.605  12.865  0.5346 -2.1057  0.9122
 9711TIP3    H250549   4.167   2.600  12.836  0.4423  0.9412 -0.3987
 9712TIP3   OH250550   6.476   4.068   0.140  0.2067 -0.1730 -0.5820
 9712TIP3    H150551   6.404   4.100   0.194 -1.4146 -1.9399 -1.5455
 9712TIP3    H250552   6.482   3.974   0.160  2.9406  0.0655  0.1773
 9713TIP3   OH250553   2.735   5.172   4.643  0.3017 -0.1405 -0.5167
 9713TIP3    H150554   2.664   5.164   4.706  1.1071 -1.2393  0.2972
 9713TIP3    H250555   2.758   5.265   4.643  0.7976 -0.2191  1.4237
 9714TIP3   OH250556   4.757   1.030   4.879 -0.1624 -0.4604 -0.0427
 9714TIP3    H150557   4.687   0.972   4.912  0.4226 -1.3513 -0.3420
 9714TIP3    H250558   4.826   1.023   4.945 -0.3497  0.4186  0.2510
 9715TIP3   OH250559   6.465   2.983  14.186 -0.0933 -0.7864 -0.6944
 9715TIP3    H150560   6.372   2.995  14.163 -0.6299 -0.6488  1.3463
 9715TIP3    H250561   6.497   2.918  14.123 -1.8151 -1.4697 -0.9337
 9716TIP3   OH250562   2.135   2.008  14.100 -0.0533  0.2834 -0.1897
 9716TIP3    H150563   2.049   1.979  14.071  1.3803 -0.7016 -4.1038
 9716TIP3    H250564   2.167   1.937  14.156 -0.7719 -0.6515 -0.9275
 9717TIP3   OH250565   1.646   5.650   6.190 -0.0863 -0.3323 -0.4380
 9717TIP3    H150566   1.624   5.703   6.267  2.7032  0.2764  0.0483
 9717TIP3    H250567   1.586   5.681   6.122 -1.3171  0.4900  0.9564
 9718TIP3   OH250568   0.689   4.476  14.072  0.2125 -0.2613  0.1925
 9718TIP3    H150569   0.669   4.528  13.994 -1.0523  0.6322  1.0686
 9718TIP3    H250570   0.657   4.529  14.145  0.1863 -1.6460  1.2314
 9719TIP3   OH250571   0.516   2.810  12.931  0.2647  0.1211 -0.6207
 9719TIP3    H150572   0.486   2.760  12.855  0.6357 -0.5176 -0.3508
 9719TIP3    H250573   0.544   2.894  12.895 -0.0606  0.0185 -1.1175
 9720TIP3   OH250574   2.192   5.620   1.386  0.0641  0.2242 -0.2215
 9720TIP3    H150575   2.161   5.532   1.365 -1.5455  1.0486 -1.5309
 9720TIP3    H250576   2.149   5.641   1.469 -1.6958  0.7264 -1.2110
 9721TIP3   OH250577   3.751   4.401  17.101  0.5437 -0.0139  0.2804
 9721TIP3    H150578   3.687   4.363  17.042 -0.2005  1.3518  0.1658
 9721TIP3    H250579   3.815   4.331  17.115  0.5288 -0.5214 -1.8059
 9722TIP3   OH250580   3.487   2.576  15.141  0.5394 -0.0177 -0.2388
 9722TIP3    H150581   3.564   2.521  15.126  1.2757  1.1859 -1.0970
 9722TIP3    H250582   3.516   2.664  15.116 -0.8173  0.6344  0.3964
 9723TIP3   OH250583   0.191   5.127   1.510  0.3776  0.3909  0.2899
 9723TIP3    H150584   0.155   5.079   1.585 -1.3379  0.8190 -0.2279
 9723TIP3    H250585   0.119   5.182   1.480  2.2923  3.5863  1.0464
 9724TIP3   OH250586   0.876   4.090   1.019 -0.6271 -0.1841 -0.0976
 9724TIP3    H150587   0.917   4.041   1.090  0.1394  0.6660  0.0562
 9724TIP3    H250588   0.861   4.025   0.950  2.0419 -0.3361 -0.6295
 9725TIP3   OH250589   5.074   4.253  11.539  0.0196  0.2624  0.1349
 9725TIP3    H150590   5.061   4.225  11.448 -0.2806 -1.0067  0.5567
 9725TIP3    H250591   5.148   4.201  11.570 -0.2256  0.2856  0.7770
 9726TIP3   OH250592   4.728   4.715   0.024  0.0232  0.3702 -0.1899
 9726TIP3    H150593   4.717   4.810   0.025  0.4777  0.4358  1.6382
 9726TIP3    H250594   4.682   4.684   0.102  0.4446 -0.8389 -0.3977
 9727TIP3   OH250595   5.833   3.411   5.012 -0.1875  0.5730 -0.3075
 9727TIP3    H150596   5.901   3.386   4.949  1.3008  1.6530  0.7768
 9727TIP3    H250597   5.764   3.345   5.002  0.4435  0.1658 -2.3446
 9728TIP3   OH250598   6.308   0.494   4.155  0.5034  0.0717  0.3382
 9728TIP3    H150599   6.373   0.509   4.087  0.1840 -1.2091 -0.2796
 9728TIP3    H250600   6.357   0.457   4.228  0.4102 -1.5361 -0.3720
 9729TIP3   OH250601   4.083   1.206  17.167  0.1283  0.1168  0.1608
 9729TIP3    H150602   4.065   1.189  17.259  3.4070  0.7927  1.0630
 9729TIP3    H250603   4.125   1.126  17.135 -2.1594 -0.6233 -1.2109
 9730TIP3   OH250604   2.691   1.993   4.128  0.7000  0.0190  0.0960
 9730TIP3    H150605   2.661   1.972   4.040  1.3353  0.8580 -0.3313
 9730TIP3    H250606   2.782   2.019   4.117  0.6875  0.4608  0.9568
 9731TIP3   OH250607   2.461   3.910   2.325  0.4601 -1.0470  0.3438
 9731TIP3    H150608   2.528   3.929   2.390  0.6421 -0.1354 -0.0979
 9731TIP3    H250609   2.413   3.836   2.362 -0.4349  0.3856  2.2738
 9732TIP3   OH250610   2.213   1.297  16.068 -0.4892  0.5204  0.3440
 9732TIP3    H150611   2.140   1.252  16.025 -0.1277  0.7083 -0.4984
 9732TIP3    H250612   2.176   1.331  16.149 -1.5878  1.3229 -0.4478
 9733TIP3   OH250613   6.456   6.332   6.017 -0.4495  0.5227  0.2705
 9733TIP3    H150614   6.483   6.276   6.089 -1.9680  0.1688  0.5880
 9733TIP3    H250615   6.428   6.414   6.059  1.7806  1.6025 -0.1855
 9734TIP3   OH250616   2.261   4.483  15.813 -0.2799  0.5983 -0.0310
 9734TIP3    H150617   2.186   4.442  15.857 -2.5703  3.2053 -1.2061
 9734TIP3    H250618   2.223   4.553  15.761  2.7315  0.3885 -2.8728
 9735TIP3   OH250619   2.385   2.403  12.809 -0.2723 -0.2463  0.0947
 9735TIP3    H150620   2.308   2.366  12.850  0.0591 -0.7481  0.2698
 9735TIP3    H250621   2.351   2.473  12.753 -1.1195 -2.1132 -1.8398
 9736TIP3   OH250622   1.706   4.767  14.206  0.3474 -0.0351 -0.4257
 9736TIP3    H150623   1.651   4.844  14.188 -0.7927 -1.1542 -1.9640
 9736TIP3    H250624   1.704   4.716  14.125 -2.1747 -3.6216  1.6241
 9737TIP3   OH250625   5.813   0.137   2.663  0.0073  0.0804  0.1904
 9737TIP3    H150626   5.720   0.151   2.681 -0.2793 -0.9864 -0.3487
 9737TIP3    H250627   5.820   0.042   2.651  1.3553  0.0020  1.2883
 9738TIP3   OH250628   2.954   3.021   1.438  0.0996 -0.2689  0.2257
 9738TIP3    H150629   2.918   3.003   1.352  1.6396  1.6789 -0.9038
 9738TIP3    H250630   2.882   3.005   1.499 -1.3168 -0.6845 -1.4963
 9739TIP3   OH250631   2.510   4.943   4.408  0.2793  0.7163 -0.2175
 9739TIP3    H150632   2.540   4.885   4.337  1.3042  0.0813  0.7064
 9739TIP3    H250633   2.415   4.939   4.402  0.1823 -2.6764  0.9882
 9740TIP3   OH250634   3.534   6.274   4.035  0.0551 -0.2199 -0.3750
 9740TIP3    H150635   3.440   6.270   4.019  0.1827 -0.1100 -1.2110
 9740TIP3    H250636   3.568   6.190   4.004 -0.0519 -1.2883  2.1678
 9741TIP3   OH250637   2.017   5.638   6.459 -0.0066 -0.0880  0.1560
 9741TIP3    H150638   2.066   5.720   6.450 -1.5124  0.7470 -0.9024
 9741TIP3    H250639   2.020   5.599   6.372  1.1160 -1.4387  0.7741
 9742TIP3   OH250640   1.456   2.134  12.463  0.4761 -0.1677 -0.1695
 9742TIP3    H150641   1.381   2.092  12.422  0.9705 -1.3975  0.1372
 9742TIP3    H250642   1.475   2.080  12.540  0.3939  1.3127  0.9323
 9743TIP3   OH250643   3.133   6.338   4.857  0.1086 -0.0826 -0.4440
 9743TIP3    H150644   3.133   6.306   4.767  1.6666 -0.8093 -0.2204
 9743TIP3    H250645   3.188   6.416   4.855 -0.6441  0.4619 -0.2872
 9744TIP3   OH250646   3.205   1.951   5.329 -0.1076  0.1128  0.4931
 9744TIP3    H150647   3.272   1.960   5.396 -1.5774 -0.8783  2.1627
 9744TIP3    H250648   3.211   1.860   5.300  0.6476  0.5785 -0.9280
 9745TIP3   OH250649   1.933   5.650   6.768 -0.0838 -0.2183 -0.3668
 9745TIP3    H150650   1.883   5.730   6.755  0.1598 -0.1528 -0.9548
 9745TIP3    H250651   2.023   5.675   6.748  0.1346 -0.4104  0.3762
 9746TIP3   OH250652   4.898   3.728   5.888  0.0941  0.3123 -0.8666
 9746TIP3    H150653   4.875   3.745   5.979  2.0386  1.4320 -0.5272
 9746TIP3    H250654   4.824   3.680   5.853 -0.6643 -0.2120  1.3215
 9747TIP3   OH250655   1.151   2.665  14.621  0.5051  0.1594 -0.1914
 9747TIP3    H150656   1.168   2.620  14.538 -0.4012 -0.1729 -0.2079
 9747TIP3    H250657   1.106   2.600  14.675 -2.0582  1.4036 -0.6864
 9748TIP3   OH250658   2.075   0.568   6.401  0.0771  0.2291  0.1638
 9748TIP3    H150659   2.028   0.491   6.434 -0.8592  0.5693 -0.3325
 9748TIP3    H250660   2.126   0.535   6.327  1.2309 -0.2948  1.1820
 9749TIP3   OH250661   4.121   1.074  12.254  0.1273 -0.2531 -0.1886
 9749TIP3    H150662   4.090   0.989  12.288 -1.3636  0.5345  0.5322
 9749TIP3    H250663   4.099   1.072  12.161 -0.1189 -0.5762 -0.1282
 9750TIP3   OH250664   0.102   5.718   3.257 -0.2586 -0.8431 -0.2609
 9750TIP3    H150665   0.034   5.738   3.193 -0.6881  0.0617  0.4465
 9750TIP3    H250666   0.181   5.702   3.205 -0.5994 -0.1150 -1.0208
 9751TIP3   OH250667   3.183   3.384   2.517  0.3540 -0.4443 -0.1143
 9751TIP3    H150668   3.094   3.397   2.486  0.1355 -3.7482 -1.2680
 9751TIP3    H250669   3.215   3.308   2.468  3.5139  0.0678  0.8950
 9752TIP3   OH250670   2.699   4.302  14.876  0.0171  0.1799 -0.1673
 9752TIP3    H150671   2.633   4.357  14.919 -0.1574  0.6126 -0.9708
 9752TIP3    H250672   2.737   4.359  14.809 -0.3406 -0.7556 -1.1827
 9753TIP3   OH250673   4.175   6.744  13.697 -0.3272 -0.2881 -0.1471
 9753TIP3    H150674   4.148   6.781  13.613 -2.2966 -1.5078 -0.1133
 9753TIP3    H250675   4.211   6.658  13.675 -3.7471 -2.0449  0.3477
 9754TIP3   OH250676   6.664   5.074  14.887 -0.4786 -0.4076 -0.2301
 9754TIP3    H150677   6.743   5.054  14.836  0.1656 -0.2241  0.6856
 9754TIP3    H250678   6.646   4.993  14.935 -0.1543 -0.0795  0.4604
 9755TIP3   OH250679   5.594   2.252   0.127  0.5267 -0.1673 -0.0978
 9755TIP3    H150680   5.647   2.233   0.049 -1.2263 -1.1178 -1.1227
 9755TIP3    H250681   5.589   2.348   0.129  3.5426  0.0816  0.9813
 9756TIP3   OH250682   0.005   5.583   4.593  0.1793  0.4780  0.3701
 9756TIP3    H150683  -0.007   5.520   4.664  1.0059  0.7602  0.7802
 9756TIP3    H250684   0.072   5.544   4.537  0.2457  0.7049  0.2889
 9757TIP3   OH250685   6.597   4.892  15.941  0.4553  0.5883  0.1547
 9757TIP3    H150686   6.656   4.825  15.976  0.2506  0.4861  0.3014
 9757TIP3    H250687   6.637   4.918  15.858  0.0527 -0.3594 -0.3414
 9758TIP3   OH250688   0.514   2.693   2.181 -0.2266 -0.2699 -0.2257
 9758TIP3    H150689   0.473   2.773   2.148  1.3750  0.9983  0.7112
 9758TIP3    H250690   0.453   2.658   2.246 -0.4550  0.8078  0.1499
 9759TIP3   OH250691   6.129   6.010   2.177 -0.1367 -0.1416 -0.1949
 9759TIP3    H150692   6.062   5.944   2.196 -2.3363  1.7021 -1.0208
 9759TIP3    H250693   6.181   5.972   2.107 -0.2049 -1.6788  0.5494
 9760TIP3   OH250694   5.673   0.887   2.086  0.0993  0.1594  0.3627
 9760TIP3    H150695   5.628   0.812   2.123  0.3297 -0.4923 -0.6318
 9760TIP3    H250696   5.603   0.944   2.054 -0.0653 -0.3906 -0.2957
 9761TIP3   OH250697   4.510   5.005   4.183 -0.7318 -0.3438 -0.6989
 9761TIP3    H150698   4.464   5.067   4.126  0.0983  1.1151  0.1576
 9761TIP3    H250699   4.505   5.044   4.270 -0.3671 -1.6102 -0.0804
 9762TIP3   OH250700   2.053   0.785  12.529 -0.0647 -0.3860  0.5590
 9762TIP3    H150701   2.090   0.861  12.486 -0.2097  1.3420  3.2236
 9762TIP3    H250702   2.123   0.720  12.528  1.2958  1.0046  1.1019
 9763TIP3   OH250703   3.672   4.548  10.391  0.4746 -0.1335 -0.3532
 9763TIP3    H150704   3.760   4.562  10.356  1.0847 -2.2609  0.1851
 9763TIP3    H250705   3.615   4.601  10.336  1.7921 -0.7117 -2.3589
 9764TIP3   OH250706   1.758   2.031  10.165 -0.4648  0.3362  0.2958
 9764TIP3    H150707   1.746   2.126  10.164  3.6274  1.0220  0.4369
 9764TIP3    H250708   1.740   2.006  10.255 -2.0133  0.8317  0.1636
 9765TIP3   OH250709   6.067   1.103   1.617  0.2424  0.6041  0.3916
 9765TIP3    H150710   6.097   1.193   1.630  0.9497  0.3513  0.5703
 9765TIP3    H250711   6.103   1.056   1.692  0.6181 -0.0011 -0.1671
 9766TIP3   OH250712   4.095   1.648   2.682  0.3928 -0.5390 -0.5606
 9766TIP3    H150713   4.081   1.650   2.587 -1.0701 -0.3325 -0.3673
 9766TIP3    H250714   4.008   1.633   2.718  0.2962  2.7426  0.9088
 9767TIP3   OH250715   2.464   4.848  14.741 -0.8621  0.9834 -0.7371
 9767TIP3    H150716   2.507   4.881  14.662  1.3093 -0.4287 -0.2406
 9767TIP3    H250717   2.422   4.925  14.779  0.2655  2.2326 -1.8970
 9768TIP3   OH250718   4.724   1.788  14.976 -0.5496  0.3619 -0.2142
 9768TIP3    H150719   4.690   1.820  14.892  0.9817 -1.9888 -1.8839
 9768TIP3    H250720   4.819   1.798  14.968 -0.3587 -0.2937  1.0594
 9769TIP3   OH250721   5.565   1.570  13.334 -0.2252  0.0748 -0.6011
 9769TIP3    H150722   5.506   1.635  13.372  0.2145 -0.2328  0.6728
 9769TIP3    H250723   5.540   1.487  13.377  0.3147 -0.2781 -0.9547
 9770TIP3   OH250724   1.033   2.232  13.933 -0.0874  0.4728 -0.2876
 9770TIP3    H150725   0.991   2.153  13.899 -0.1668  0.6027 -0.4894
 9770TIP3    H250726   1.109   2.199  13.981 -0.4846  0.2272  0.1836
 9771TIP3   OH250727   5.069   1.145   5.289 -0.9170 -0.3341 -0.6402
 9771TIP3    H150728   5.085   1.085   5.362  1.3141  0.0090 -0.7809
 9771TIP3    H250729   5.026   1.220   5.330 -0.1110 -0.3458  0.2718
 9772TIP3   OH250730   0.715   0.146   4.333  0.0119  0.2325 -0.4883
 9772TIP3    H150731   0.671   0.093   4.400  1.6786 -1.2207 -0.4948
 9772TIP3    H250732   0.681   0.235   4.348 -1.0564 -0.3775  1.0698
 9773TIP3   OH250733   6.364   5.726  14.140 -0.4395 -0.1813 -0.1571
 9773TIP3    H150734   6.451   5.752  14.170 -1.1693  1.8140  0.3802
 9773TIP3    H250735   6.353   5.637  14.174  0.8045  0.0851  1.0433
 9774TIP3   OH250736   6.639   1.295  11.706  0.0556  0.0375  0.2022
 9774TIP3    H150737   6.557   1.335  11.679 -0.0020  0.1295  0.5133
 9774TIP3    H250738   6.624   1.200  11.699 -0.1786  0.0465  0.5567
 9775TIP3   OH250739   3.405   6.594  13.613  0.1172 -0.2740 -0.5849
 9775TIP3    H150740   3.329   6.645  13.585 -0.2870 -0.5527 -0.0270
 9775TIP3    H250741   3.480   6.651  13.594 -0.1820 -0.1879 -1.5837
 9776TIP3   OH250742   1.302   0.547   0.584 -0.0287  0.2858 -0.2684
 9776TIP3    H150743   1.284   0.607   0.656  0.4722  0.2265 -0.0897
 9776TIP3    H250744   1.246   0.471   0.601  1.6565 -0.6937  1.2901
 9777TIP3   OH250745   6.108   5.753   6.006 -0.4330  0.1773  0.6677
 9777TIP3    H150746   6.136   5.818   6.071 -1.1330  1.7162 -0.5085
 9777TIP3    H250747   6.158   5.774   5.928 -1.0010 -0.4297  0.1246
 9778TIP3   OH250748   5.237   3.867  16.918 -0.1461 -0.2251 -0.2142
 9778TIP3    H150749   5.297   3.936  16.890 -0.3494  0.0781  0.0891
 9778TIP3    H250750   5.178   3.910  16.980 -1.8408 -0.0596 -1.8513
 9779TIP3   OH250751   4.173   6.175  15.435 -0.2425  0.5468  0.1374
 9779TIP3    H150752   4.109   6.104  15.433  0.3016 -0.0553  1.7579
 9779TIP3    H250753   4.149   6.232  15.362 -2.4298  0.1933  0.5220
 9780TIP3   OH250754   4.706   0.419  15.629 -0.2686 -0.1261  0.0269
 9780TIP3    H150755   4.624   0.396  15.672 -1.3890  1.2992 -1.2463
 9780TIP3    H250756   4.708   0.514  15.628  0.3220 -0.1064 -1.8680
 9781TIP3   OH250757   3.825   6.187   1.271 -0.6243  0.0716 -0.2299
 9781TIP3    H150758   3.776   6.108   1.294 -1.8107  0.7927 -0.1844
 9781TIP3    H250759   3.807   6.249   1.342  3.0868 -0.6726  1.6069
 9782TIP3   OH250760   2.021   2.826   2.267  0.1677 -0.0303  0.0097
 9782TIP3    H150761   1.952   2.802   2.328  1.1036  0.7189  1.4151
 9782TIP3    H250762   1.975   2.855   2.188 -1.1011 -0.0772  0.7230
 9783TIP3   OH250763   5.019   0.704   5.596  0.0549  0.1505 -0.5992
 9783TIP3    H150764   5.060   0.706   5.682  1.2158 -0.5382 -1.1215
 9783TIP3    H250765   4.936   0.659   5.610  0.2905 -0.0698  0.1283
 9784TIP3   OH250766   4.161   5.777   4.811 -0.1183  0.3667 -0.4519
 9784TIP3    H150767   4.114   5.733   4.740 -0.9912  2.2482 -1.1080
 9784TIP3    H250768   4.119   5.745   4.891  2.4096 -3.6324 -0.4363
 9785TIP3   OH250769   5.421   4.504  15.762  0.8260  0.3571  0.0948
 9785TIP3    H150770   5.490   4.488  15.698 -1.1367 -0.3685 -1.9925
 9785TIP3    H250771   5.422   4.599  15.775  0.9495  0.5963 -1.4576
 9786TIP3   OH250772   1.521   6.639   1.076 -0.3704 -0.3257 -0.3665
 9786TIP3    H150773   1.456   6.643   1.006 -0.8710  0.5491  0.1317
 9786TIP3    H250774   1.498   6.711   1.134  0.3285 -0.7444  0.4495
 9787TIP3   OH250775   4.830   5.703  14.849 -0.2888  0.1809 -0.1100
 9787TIP3    H150776   4.867   5.622  14.885  0.4527  1.4002  2.0243
 9787TIP3    H250777   4.746   5.713  14.894 -0.4833  0.4734 -0.5378
 9788TIP3   OH250778   0.317   6.252  16.926 -0.3415  0.2639 -0.1501
 9788TIP3    H150779   0.410   6.275  16.934  0.0482 -1.1731 -0.1788
 9788TIP3    H250780   0.317   6.157  16.913 -1.8753  0.0528  1.0147
 9789TIP3   OH250781   6.005   4.864  16.338 -0.4871  0.2840  0.8388
 9789TIP3    H150782   5.922   4.852  16.293  0.2896 -0.5804 -0.4513
 9789TIP3    H250783   6.042   4.943  16.299 -0.4091  0.3003  0.9453
 9790TIP3   OH250784   1.905   1.135  17.256 -0.3105 -0.2430  0.4748
 9790TIP3    H150785   1.942   1.112  17.171  0.4125  1.1064  0.3922
 9790TIP3    H250786   1.970   1.103  17.319  0.0548  0.3593  0.4185
 9791TIP3   OH250787   6.717   4.742  16.721  0.4058  0.2492  0.5123
 9791TIP3    H150788   6.648   4.675  16.725 -0.1188  0.4749 -2.5035
 9791TIP3    H250789   6.798   4.693  16.706  0.1624  0.1840 -0.7059
 9792TIP3   OH250790   0.019   2.318   5.817 -0.2967 -0.2392  0.3601
 9792TIP3    H150791   0.067   2.348   5.894  1.9005 -1.3346 -0.4985
 9792TIP3    H250792  -0.027   2.239   5.846 -0.9644  0.3690  0.9868
 9793TIP3   OH250793   2.639   3.577   1.930  0.4969 -0.2128 -0.4275
 9793TIP3    H150794   2.651   3.627   1.850  0.9978 -1.6000 -1.2518
 9793TIP3    H250795   2.630   3.643   1.999 -0.7721  1.0238 -1.7111
 9794TIP3   OH250796   5.532   1.331  10.804 -0.0197  0.5384 -0.8222
 9794TIP3    H150797   5.566   1.395  10.866  0.3510 -0.7945  0.3991
 9794TIP3    H250798   5.446   1.364  10.779 -0.7545  0.4658  1.4179
 9795TIP3   OH250799   5.129   2.859   2.786 -0.1147  0.0871  0.2348
 9795TIP3    H150800   5.101   2.832   2.873 -0.0559 -2.1294 -0.3634
 9795TIP3    H250801   5.050   2.854   2.732  0.2643 -0.6466 -0.2705
 9796TIP3   OH250802   0.190   6.350  17.128  0.7277 -0.2108 -0.1898
 9796TIP3    H150803   0.230   6.318  17.048 -0.0242 -1.8570  0.0428
 9796TIP3    H250804   0.217   6.441  17.134  0.2438  0.1622 -2.6777
 9797TIP3   OH250805   5.858   0.190   2.921  0.3163 -0.4389  0.1539
 9797TIP3    H150806   5.851   0.139   2.840 -0.7650  2.4372 -1.7245
 9797TIP3    H250807   5.906   0.269   2.896 -0.3185  0.6998  2.2385
 9798TIP3   OH250808   6.783   4.707   0.064 -0.4165 -0.1421 -0.6503
 9798TIP3    H150809   6.708   4.754   0.101 -0.0024 -0.4432  0.6591
 9798TIP3    H250810   6.763   4.615   0.082  1.7072 -0.1216  2.8665
 9799TIP3   OH250811   3.483   3.050   2.440 -0.7777 -0.1954  0.6885
 9799TIP3    H150812   3.566   3.096   2.454  0.8449 -2.7086  0.0303
 9799TIP3    H250813   3.473   2.994   2.517 -2.0104  0.2001  0.8483
 9800TIP3   OH250814   3.084   5.796  12.151  0.6397  0.4090  0.3904
 9800TIP3    H150815   3.028   5.730  12.111  0.4989  0.2210  0.8824
 9800TIP3    H250816   3.082   5.775  12.245  2.2384 -0.1468  0.3232
 9801TIP3   OH250817   6.750   5.142  16.503  0.4898 -0.5423  0.0549
 9801TIP3    H150818   6.776   5.224  16.544  0.2971 -0.1647 -0.5548
 9801TIP3    H250819   6.658   5.131  16.527  0.2366 -0.0684 -0.6600
 9802TIP3   OH250820   4.152   2.683   0.214 -0.0832 -0.0528  0.6064
 9802TIP3    H150821   4.171   2.772   0.244  0.9171  0.1216 -0.4742
 9802TIP3    H250822   4.085   2.694   0.147  0.8322  0.0283 -0.3242
 9803TIP3   OH250823   3.877   5.846  16.882 -0.3073 -0.0170  0.6468
 9803TIP3    H150824   3.968   5.847  16.853  0.5165 -0.4009  2.9974
 9803TIP3    H250825   3.851   5.938  16.885  0.6461  0.2370  1.7444
 9804TIP3   OH250826   1.841   0.819  16.270 -0.2513  0.2403  0.4286
 9804TIP3    H150827   1.881   0.777  16.194 -0.4917  0.2036  0.3201
 9804TIP3    H250828   1.790   0.892  16.233 -0.0145  0.4920  0.5941
 9805TIP3   OH250829   3.389   4.041  14.789  0.2336  0.3859 -0.4678
 9805TIP3    H150830   3.418   4.131  14.808  0.3855  0.6983 -2.0604
 9805TIP3    H250831   3.351   4.046  14.701  0.5184 -1.1746 -0.7043
 9806TIP3   OH250832   0.996   0.885   3.766  0.4981  0.4075 -0.1627
 9806TIP3    H150833   0.994   0.960   3.708 -1.1374  0.7099  0.2233
 9806TIP3    H250834   0.998   0.922   3.854  3.5920 -0.0390  0.0529
 9807TIP3   OH250835   4.287   0.285  14.234 -0.5604 -0.4921 -0.1384
 9807TIP3    H150836   4.285   0.246  14.146  0.3053 -1.7519  0.3723
 9807TIP3    H250837   4.376   0.319  14.242 -0.6567 -0.3320  0.2343
 9808TIP3   OH250838   0.074   4.612   3.933  0.9459 -0.0565 -0.0748
 9808TIP3    H150839  -0.010   4.619   3.978  1.1249 -0.7539  0.3825
 9808TIP3    H250840   0.051   4.587   3.843  0.6861 -0.9750  0.2334
 9809TIP3   OH250841   1.975   6.641  15.316 -0.4531 -0.4729  0.3324
 9809TIP3    H150842   1.932   6.588  15.250 -0.4131  0.5906 -0.5729
 9809TIP3    H250843   1.983   6.583  15.392 -1.5336 -1.3458 -0.1981
 9810TIP3   OH250844   1.814   6.651   5.860 -0.1592  0.3091 -0.4659
 9810TIP3    H150845   1.751   6.612   5.800 -0.2585 -1.4794  0.7140
 9810TIP3    H250846   1.898   6.614   5.832 -0.4024 -1.8661  1.4089
 9811TIP3   OH250847   5.038   2.521   4.926  0.2197 -0.1988 -0.2173
 9811TIP3    H150848   4.948   2.552   4.920  0.5899  1.0421  0.3017
 9811TIP3    H250849   5.065   2.504   4.836 -0.1819  0.4804 -0.4676
 9812TIP3   OH250850   1.843   0.744  16.919 -0.1054  0.2777 -0.0705
 9812TIP3    H150851   1.788   0.774  16.992 -0.9688 -0.1604 -0.5316
 9812TIP3    H250852   1.801   0.780  16.841 -0.1401 -0.6471 -0.4844
 9813TIP3   OH250853   6.231   5.091   2.791 -0.4864  0.4904  0.4108
 9813TIP3    H150854   6.243   5.166   2.848 -3.0600  0.5184  1.0708
 9813TIP3    H250855   6.242   5.126   2.702  0.7868  1.0656  0.7844
 9814TIP3   OH250856   0.761   6.283  15.567  0.1134 -0.6115 -0.4957
 9814TIP3    H150857   0.772   6.351  15.500 -1.3151  0.2297  0.0891
 9814TIP3    H250858   0.786   6.327  15.649 -0.4545 -0.9083 -0.1628
 9815TIP3   OH250859   5.241   6.415  11.679  0.0726  0.2788 -0.5504
 9815TIP3    H150860   5.164   6.472  11.679  1.2494  2.0045  1.3078
 9815TIP3    H250861   5.271   6.417  11.588 -0.5536  1.8077 -0.7636
 9816TIP3   OH250862   5.370   6.771  12.197  0.0327 -0.0952  0.3840
 9816TIP3    H150863   5.336   6.821  12.271 -0.1317  0.7266 -0.2195
 9816TIP3    H250864   5.465   6.784  12.201 -0.0515  0.7966 -0.1104
 9817TIP3   OH250865   4.258   4.696  13.640  0.1212  0.5165  0.7812
 9817TIP3    H150866   4.315   4.764  13.676 -1.5953  2.7981 -0.5367
 9817TIP3    H250867   4.178   4.702  13.693 -0.2217 -0.1482  0.3500
 9818TIP3   OH250868   5.671   5.262   4.136 -0.1551  0.1502  0.2218
 9818TIP3    H150869   5.746   5.267   4.196  0.9255 -1.7707 -0.8706
 9818TIP3    H250870   5.711   5.268   4.049 -1.3422 -0.3219 -0.3688
 9819TIP3   OH250871   3.303   5.987   0.285 -0.3153 -0.1625 -0.4107
 9819TIP3    H150872   3.297   6.074   0.323 -0.0269 -0.3322  0.0379
 9819TIP3    H250873   3.217   5.947   0.302 -0.3339 -0.0844 -0.3208
 9820TIP3   OH250874   2.317   3.726  11.882  0.1874 -0.0132  0.5632
 9820TIP3    H150875   2.308   3.729  11.787 -0.5521 -0.4627  0.6108
 9820TIP3    H250876   2.393   3.670  11.897 -0.3125 -0.7792  0.2589
 9821TIP3   OH250877   0.611   2.799   2.483 -0.4305  0.7463  0.2143
 9821TIP3    H150878   0.629   2.751   2.402 -0.3977  2.4980 -0.8679
 9821TIP3    H250879   0.599   2.889   2.455 -1.9937  1.1500  1.9994
 9822TIP3   OH250880   0.572   2.259  16.553  0.0832 -0.1529 -0.6587
 9822TIP3    H150881   0.606   2.290  16.469  0.7773  1.5384  0.1837
 9822TIP3    H250882   0.590   2.165  16.553 -0.9448 -0.4285 -2.8334
 9823TIP3   OH250883   6.147   3.221  10.700 -0.1589  0.0011  0.4381
 9823TIP3    H150884   6.126   3.236  10.608  0.6896 -0.7411  0.1060
 9823TIP3    H250885   6.073   3.170  10.733 -0.7742  0.8130  0.3491
 9824TIP3   OH250886   2.839   3.206  10.766  1.0534  0.0420 -0.5338
 9824TIP3    H150887   2.900   3.137  10.791 -0.2216 -0.3199  2.0110
 9824TIP3    H250888   2.753   3.174  10.795 -0.0548  1.3816 -2.1335
 9825TIP3   OH250889   5.638   1.184  13.586  0.2981  0.1864 -0.0907
 9825TIP3    H150890   5.718   1.207  13.539 -0.6368  3.8571 -0.1834
 9825TIP3    H250891   5.595   1.268  13.603 -2.3179 -1.4359  2.1738
 9826TIP3   OH250892   0.494   6.105  10.969 -0.2696  0.0978  0.0258
 9826TIP3    H150893   0.490   6.160  11.047  0.2219 -0.1171  0.2015
 9826TIP3    H250894   0.556   6.149  10.911  0.4926 -0.5199  0.3638
 9827TIP3   OH250895   4.075   3.422   6.185  0.1003 -0.6401 -0.6613
 9827TIP3    H150896   4.020   3.488   6.228 -0.3051 -0.8920 -0.7923
 9827TIP3    H250897   4.037   3.338   6.212  0.6350 -0.8255 -0.4664
 9828TIP3   OH250898   0.352   5.415  16.934 -0.4237 -0.2707  0.1189
 9828TIP3    H150899   0.276   5.398  16.991 -2.0775  2.9288 -0.8614
 9828TIP3    H250900   0.426   5.420  16.994 -1.3468 -1.3524  1.4159
 9829TIP3   OH250901   1.694   4.621  15.162 -0.4367  0.2873 -0.5178
 9829TIP3    H150902   1.705   4.698  15.217 -0.7731 -0.4834  0.6627
 9829TIP3    H250903   1.601   4.600  15.167  0.0424 -1.8038  1.4951
 9830TIP3   OH250904   4.708   3.635   5.157 -0.3029 -0.2350 -0.0113
 9830TIP3    H150905   4.646   3.705   5.139  0.0127 -0.5180 -2.6425
 9830TIP3    H250906   4.771   3.673   5.218  1.3149  2.7290 -3.2201
 9831TIP3   OH250907   6.686   2.517   1.908  0.3422 -0.1363 -0.3012
 9831TIP3    H150908   6.615   2.521   1.973  1.9427 -1.5969  1.6776
 9831TIP3    H250909   6.742   2.592   1.930 -0.8041  1.4015 -2.2705
 9832TIP3   OH250910   1.418   2.954   1.630 -0.0772 -0.3264  0.2666
 9832TIP3    H150911   1.343   2.913   1.587  1.3833 -2.2338 -0.6037
 9832TIP3    H250912   1.479   2.882   1.645  0.4588  0.6618  3.5323
 9833TIP3   OH250913   4.772   3.746  12.127  0.1694 -0.1481 -0.0315
 9833TIP3    H150914   4.825   3.777  12.053  0.8692 -2.0622 -0.3728
 9833TIP3    H250915   4.830   3.689  12.177 -0.7363 -0.0429  1.2000
 9834TIP3   OH250916   5.742   1.805  13.416 -0.4161 -0.4069  0.3667
 9834TIP3    H150917   5.657   1.802  13.371 -0.2058  1.4706 -0.2378
 9834TIP3    H250918   5.720   1.798  13.509 -1.0486 -2.0058  0.1269
 9835TIP3   OH250919   1.256   4.542   2.900  0.0718 -0.1741 -0.2211
 9835TIP3    H150920   1.294   4.629   2.890 -0.4839 -0.0604 -1.6861
 9835TIP3    H250921   1.321   4.482   2.863 -0.8727 -0.0263 -2.2605
 9836TIP3   OH250922   4.016   2.427  11.508  0.0418  0.4360 -0.0121
 9836TIP3    H150923   4.003   2.500  11.569  0.9935  0.0559  0.6634
 9836TIP3    H250924   4.079   2.460  11.445  0.0256  0.3984 -0.0472
 9837TIP3   OH250925   5.039   4.338  16.530 -0.0567  0.5367 -0.3018
 9837TIP3    H150926   5.062   4.311  16.619 -1.6859  2.1056  0.6569
 9837TIP3    H250927   4.948   4.368  16.536  0.8257  4.0122 -1.6722
 9838TIP3   OH250928   1.174   6.524   1.394 -0.0352  0.4700  0.5177
 9838TIP3    H150929   1.201   6.564   1.477  2.1913 -0.4726  0.3262
 9838TIP3    H250930   1.255   6.520   1.343 -0.9788 -0.7329 -0.9417
 9839TIP3   OH250931   4.731   4.279   3.187 -0.3482  0.5572 -0.0876
 9839TIP3    H150932   4.685   4.220   3.247  1.4739 -0.1629  0.6751
 9839TIP3    H250933   4.778   4.340   3.243 -1.2330  2.0062 -0.8650
 9840TIP3   OH250934   2.079   4.852   0.406 -0.0232  0.1363 -0.0988
 9840TIP3    H150935   2.140   4.816   0.470 -1.1108  1.9978  2.1568
 9840TIP3    H250936   2.079   4.946   0.424 -2.2854  0.3886 -1.1187
 9841TIP3   OH250937   3.025   4.182   2.415  0.0091 -1.0655 -0.3182
 9841TIP3    H150938   3.029   4.265   2.368 -2.5528 -1.7083 -1.8195
 9841TIP3    H250939   3.011   4.208   2.507  1.3292  0.1363 -0.4125
 9842TIP3   OH250940   4.510   4.306   3.022 -1.0211  0.2354  0.1580
 9842TIP3    H150941   4.591   4.305   3.072 -0.5376  1.5850 -0.5467
 9842TIP3    H250942   4.441   4.301   3.088 -0.3861  0.7236  0.8782
 9843TIP3   OH250943   1.597   4.178  16.615  0.1274  0.2628  0.9521
 9843TIP3    H150944   1.556   4.163  16.700  0.3248 -1.4913  0.7858
 9843TIP3    H250945   1.686   4.146  16.625 -0.2564 -1.3354 -0.2788
 9844TIP3   OH250946   0.931   1.345  16.912  0.3464  0.1100 -0.0216
 9844TIP3    H150947   1.016   1.340  16.954  0.3248  1.8022  0.2845
 9844TIP3    H250948   0.872   1.377  16.980 -0.1401  0.7565 -0.7249
 9845TIP3   OH250949   1.460   0.512   4.771 -0.2956  0.1024 -0.3165
 9845TIP3    H150950   1.390   0.457   4.807 -0.8370  0.8690 -0.1882
 9845TIP3    H250951   1.527   0.449   4.742 -1.2824 -0.6740 -0.9851
 9846TIP3   OH250952   2.972   0.239   0.365  0.4760  0.5888  0.1084
 9846TIP3    H150953   2.995   0.203   0.279 -0.7290  0.7454 -0.2946
 9846TIP3    H250954   3.047   0.293   0.389  1.3841 -0.4694 -0.2499
 9847TIP3   OH250955   2.185   2.105   1.631 -0.2635 -0.1272  0.0381
 9847TIP3    H150956   2.127   2.134   1.701 -0.2163 -0.5642  0.2625
 9847TIP3    H250957   2.210   2.016   1.656 -0.0765 -0.2078 -0.4251
 9848TIP3   OH250958   4.609   6.708  11.592  0.8285 -0.0313 -0.0959
 9848TIP3    H150959   4.672   6.759  11.644 -0.2416  2.7921 -1.3220
 9848TIP3    H250960   4.525   6.751  11.608 -0.2922 -1.8421 -0.8040
 9849TIP3   OH250961   4.170   0.219   2.631 -0.3067  0.4572  0.2300
 9849TIP3    H150962   4.254   0.247   2.594 -0.8879  1.8647 -0.0872
 9849TIP3    H250963   4.182   0.126   2.651  1.9706  1.0622  2.0303
 9850TIP3   OH250964   5.851   1.856   1.977 -0.1428  0.3567  0.3739
 9850TIP3    H150965   5.793   1.826   2.048 -0.6370 -2.3829 -1.0440
 9850TIP3    H250966   5.905   1.780   1.957  1.4172  1.7200 -0.8420
 9851TIP3   OH250967   6.151   4.151  15.384  0.0902 -0.4264 -0.1517
 9851TIP3    H150968   6.206   4.143  15.306 -0.3782  1.8502 -0.7843
 9851TIP3    H250969   6.212   4.147  15.457  0.7446 -0.8776 -0.7105
 9852TIP3   OH250970   5.653   1.943   1.148 -0.4466  0.1907 -0.2423
 9852TIP3    H150971   5.586   2.008   1.167 -1.6037 -0.8593 -0.6125
 9852TIP3    H250972   5.605   1.866   1.118  0.7943 -1.2605  1.2862
 9853TIP3   OH250973   1.256   5.713   1.238  0.5547  0.2867  0.2321
 9853TIP3    H150974   1.267   5.740   1.329 -0.6257  0.8634  0.2235
 9853TIP3    H250975   1.167   5.742   1.215 -0.7831 -3.3482  0.1381
 9854TIP3   OH250976   3.895   3.828  16.945  0.4160  0.0859  0.1894
 9854TIP3    H150977   3.843   3.906  16.926  1.2982  0.2364 -1.8958
 9854TIP3    H250978   3.916   3.835  17.038  0.0794  2.1092  0.1619
 9855TIP3   OH250979   5.075   2.502   2.604  0.3277  0.0654 -0.1199
 9855TIP3    H150980   5.065   2.556   2.682  0.3522 -1.0768  0.7059
 9855TIP3    H250981   5.001   2.441   2.608 -0.1548  0.5192 -1.4583
 9856TIP3   OH250982   6.758   0.119  10.662  0.4047  0.3363 -0.4854
 9856TIP3    H150983   6.830   0.057  10.669 -0.3781 -0.5859 -0.5121
 9856TIP3    H250984   6.743   0.148  10.752 -2.3878 -3.2060  0.3986
 9857TIP3   OH250985   0.196   2.141   3.149  0.3487  0.1983 -0.2017
 9857TIP3    H150986   0.212   2.209   3.213 -1.0440 -1.5021  2.1169
 9857TIP3    H250987   0.273   2.085   3.153  0.2733  0.1071 -0.0054
 9858TIP3   OH250988   3.267   2.563   4.658 -0.5465  0.0256 -0.1488
 9858TIP3    H150989   3.306   2.531   4.577 -1.0465 -0.1249 -0.3299
 9858TIP3    H250990   3.203   2.496   4.682 -1.9488  1.0800 -0.7808
 9859TIP3   OH250991   4.665   4.691  10.964  0.5233  0.3585  0.0709
 9859TIP3    H150992   4.696   4.612  10.919  0.0936 -0.6600  1.4544
 9859TIP3    H250993   4.726   4.759  10.938  0.0251 -0.0511 -2.3449
 9860TIP3   OH250994   2.288   5.165  13.175  0.2852 -0.0327 -0.2298
 9860TIP3    H150995   2.194   5.159  13.157  0.4620 -1.3864 -0.8926
 9860TIP3    H250996   2.327   5.101  13.115  1.6761  0.8285 -0.2694
 9861TIP3   OH250997   5.439   2.548   2.068  0.2124 -0.2310  0.0463
 9861TIP3    H150998   5.516   2.572   2.121  0.9202  0.6234 -1.3171
 9861TIP3    H250999   5.366   2.592   2.112  0.8193  0.6577  0.1889
 9862TIP3   OH251000   5.976   0.506   1.330  0.0682  0.2129 -0.0678
 9862TIP3    H151001   6.027   0.495   1.410 -1.7096 -0.3401  1.0397
 9862TIP3    H251002   6.030   0.465   1.262  0.8128 -0.9382  1.1641
 9863TIP3   OH251003   0.407   2.130  12.894 -0.0294  1.0697 -0.2150
 9863TIP3    H151004   0.463   2.199  12.858  0.3073  0.1009 -1.6344
 9863TIP3    H251005   0.336   2.176  12.937  2.1638  2.3886  2.2543
 9864TIP3   OH251006   4.387   2.926  11.952  0.0010  0.2397 -0.4857
 9864TIP3    H151007   4.346   2.997  12.001  1.4966  1.3010 -0.6882
 9864TIP3    H251008   4.416   2.967  11.870  0.6326 -0.6639 -0.7311
 9865TIP3   OH251009   1.795   3.679  13.413  0.3871  0.3925 -0.1169
 9865TIP3    H151010   1.782   3.708  13.503 -0.3397  0.8302 -0.3566
 9865TIP3    H251011   1.761   3.750  13.359 -0.1005 -0.2898 -0.7274
 9866TIP3   OH251012   2.773   5.274  13.281  0.4296 -0.3902 -0.6087
 9866TIP3    H151013   2.836   5.221  13.329  0.6121 -0.9324 -1.4109
 9866TIP3    H251014   2.772   5.235  13.193 -0.9697 -0.3467 -0.6236
 9867TIP3   OH251015   4.113   4.762  13.380 -0.3757 -0.0757  0.3337
 9867TIP3    H151016   4.039   4.739  13.324  0.8423  0.4510 -1.5817
 9867TIP3    H251017   4.172   4.687  13.375  0.6385  0.7591 -0.7132
 9868TIP3   OH251018   2.701   4.758  14.514 -0.5009 -0.5542  0.1039
 9868TIP3    H151019   2.630   4.821  14.504 -0.0521  0.1257  1.0596
 9868TIP3    H251020   2.773   4.793  14.460 -0.8790 -1.2564 -0.8864
 9869TIP3   OH251021   6.423   1.825  10.963 -0.1315  0.1460 -0.5449
 9869TIP3    H151022   6.422   1.920  10.973  2.6805  0.3785 -1.5906
 9869TIP3    H251023   6.456   1.792  11.047  0.8942  0.2786 -0.8865
 9870TIP3   OH251024   1.875   4.450  17.150 -0.3733  0.3136  0.1539
 9870TIP3    H151025   1.805   4.502  17.111  0.6669  0.8450 -1.0485
 9870TIP3    H251026   1.956   4.484  17.112  0.4787 -1.0004  0.6938
 9871TIP3   OH251027   3.451   0.222  15.855 -0.3647 -0.5853 -0.2870
 9871TIP3    H151028   3.513   0.153  15.830 -1.0919 -0.9734 -1.0780
 9871TIP3    H251029   3.482   0.299  15.807 -0.7770 -0.9094 -1.0996
 9872TIP3   OH251030   3.029   1.344   5.530 -0.3785  0.1656 -0.5101
 9872TIP3    H151031   3.078   1.306   5.603 -0.0915  2.8953  0.8608
 9872TIP3    H251032   3.082   1.324   5.453  0.9960 -0.0851  0.4600
 9873TIP3   OH251033   2.959   2.871  17.100 -0.4851 -0.0097 -0.3095
 9873TIP3    H151034   2.894   2.902  17.036 -0.0592 -0.2136 -0.8454
 9873TIP3    H251035   2.925   2.902  17.185 -0.9661  0.4144 -0.6458
 9874TIP3   OH251036   4.432   0.455   3.706 -0.3113 -0.3470  0.4395
 9874TIP3    H151037   4.423   0.550   3.695  0.2454 -0.4933 -1.8568
 9874TIP3    H251038   4.347   0.427   3.740 -1.0448  0.8099 -0.3309
 9875TIP3   OH251039   3.971   3.755  14.948 -0.6756 -0.8247  0.2950
 9875TIP3    H151040   3.934   3.827  14.999  1.1158  0.7894 -0.5023
 9875TIP3    H251041   3.919   3.753  14.868  1.2777  2.0658 -1.2499
 9876TIP3   OH251042   0.827   1.227  13.554  0.2757 -0.4697  0.2763
 9876TIP3    H151043   0.775   1.288  13.502 -1.7320 -1.7054  0.7156
 9876TIP3    H251044   0.895   1.196  13.494 -0.7848 -0.3784 -1.0152
 9877TIP3   OH251045   6.520   2.651  13.148 -0.0870 -0.1728  0.0867
 9877TIP3    H151046   6.607   2.690  13.157 -0.1536  0.0776 -0.3024
 9877TIP3    H251047   6.519   2.579  13.211  1.5819 -2.2572 -2.0658
 9878TIP3   OH251048   4.259   0.194  13.198 -0.4778 -0.1341  0.2098
 9878TIP3    H151049   4.206   0.212  13.120 -1.8593 -3.3347  0.2467
 9878TIP3    H251050   4.340   0.155  13.164 -1.1414 -1.6667  0.2941
 9879TIP3   OH251051   4.782   0.998   3.355 -0.1271 -0.0513 -0.1609
 9879TIP3    H151052   4.731   1.057   3.300  0.7533  0.5828 -0.3110
 9879TIP3    H251053   4.798   1.047   3.436 -0.1826 -0.4370  0.0886
 9880TIP3   OH251054   1.437   2.439   4.337  0.4389  0.2255 -0.1209
 9880TIP3    H151055   1.375   2.370   4.314  0.0887  0.5382 -0.1242
 9880TIP3    H251056   1.515   2.392   4.367  0.3271 -0.1718 -0.4452
 9881TIP3   OH251057   4.862   3.974  15.422  0.8483 -0.8810 -0.2151
 9881TIP3    H151058   4.774   3.973  15.459  1.3279 -2.0228  0.9810
 9881TIP3    H251059   4.852   4.019  15.338 -0.5468  0.5384  0.6536
 9882TIP3   OH251060   6.542   3.970  15.153  0.1574 -0.3452  0.1586
 9882TIP3    H151061   6.632   3.949  15.175  0.4674 -0.3992 -1.1169
 9882TIP3    H251062   6.543   4.063  15.133 -0.4465  0.0800  1.9117
 9883TIP3   OH251063   3.364   6.198  14.675 -0.2338  0.7493  0.0762
 9883TIP3    H151064   3.447   6.151  14.671 -1.1401 -1.4015  3.0695
 9883TIP3    H251065   3.321   6.178  14.591  1.0228 -0.5700 -0.3009
 9884TIP3   OH251066   0.555   6.474  15.826  0.2330  0.2599  0.1666
 9884TIP3    H151067   0.612   6.524  15.767  0.1792  1.2803  0.9441
 9884TIP3    H251068   0.606   6.468  15.907  0.0827 -0.6532  0.2009
 9885TIP3   OH251069   6.537   3.612  11.062 -0.8326  0.0475  0.1312
 9885TIP3    H151070   6.482   3.658  10.998  0.0416  0.8193 -0.0979
 9885TIP3    H251071   6.625   3.614  11.024 -0.2389  0.7771  1.4696
 9886TIP3   OH251072   2.748   0.021  13.888  0.4670  0.0049  0.2657
 9886TIP3    H151073   2.716   0.068  13.812 -1.5714 -0.1832  0.9396
 9886TIP3    H251074   2.713  -0.068  13.878 -0.4343  0.1603  1.7276
 9887TIP3   OH251075   6.291   5.483   4.118  0.1235  0.4963 -0.1354
 9887TIP3    H151076   6.208   5.526   4.139 -0.0253  0.5106 -0.7250
 9887TIP3    H251077   6.288   5.470   4.023 -0.4658 -2.0671  0.1413
 9888TIP3   OH251078   0.359   1.429   4.318  0.4156  0.1516  0.1283
 9888TIP3    H151079   0.345   1.436   4.413 -0.3459  1.7103 -0.0674
 9888TIP3    H251080   0.282   1.382   4.286 -2.2446  4.2337 -0.2889
 9889TIP3   OH251081   1.878   5.828   4.367  0.5676  0.3797  0.0692
 9889TIP3    H151082   1.838   5.747   4.400 -0.7877  0.1225 -2.0132
 9889TIP3    H251083   1.948   5.798   4.310  1.8440  0.7848  1.3617
 9890TIP3   OH251084   2.177   6.449  11.893  0.0326 -0.1812  0.3897
 9890TIP3    H151085   2.203   6.371  11.941  1.0041  0.3664  0.7893
 9890TIP3    H251086   2.146   6.416  11.808 -1.4810 -1.1295  1.2739
 9891TIP3   OH251087   2.749   4.982  16.548  0.0138 -0.4154  0.1142
 9891TIP3    H151088   2.739   4.995  16.454 -1.4432 -2.0399 -0.0150
 9891TIP3    H251089   2.691   5.047  16.587 -1.2358 -1.2640 -0.2399
 9892TIP3   OH251090   6.140   5.801   2.664 -0.0351 -0.0742  0.3016
 9892TIP3    H151091   6.124   5.854   2.586  1.7648 -0.9235 -0.7217
 9892TIP3    H251092   6.131   5.711   2.635  2.4618 -0.4810  0.5322
 9893TIP3   OH251093   5.308   2.020  12.974  0.3722 -0.2312 -0.1141
 9893TIP3    H151094   5.259   1.942  12.945  2.0672 -0.9302 -1.2972
 9893TIP3    H251095   5.395   2.008  12.937  0.9761  1.7737  0.5321
 9894TIP3   OH251096   5.690   2.166  16.915  0.3074 -0.3830 -0.2946
 9894TIP3    H151097   5.752   2.190  16.847  0.4075 -0.4987 -0.2435
 9894TIP3    H251098   5.606   2.157  16.869  0.0923  0.8993 -0.1812
 9895TIP3   OH251099   6.307   0.051  12.548 -0.4151 -0.1703  0.0335
 9895TIP3    H151100   6.281   0.102  12.624 -0.8942 -0.0566 -0.2037
 9895TIP3    H251101   6.402   0.046  12.554 -0.3192  1.0336 -0.1090
 9896TIP3   OH251102   6.381   5.034  15.739  0.2189  0.3743  0.2450
 9896TIP3    H151103   6.328   5.004  15.813  2.2435  0.6741  1.9178
 9896TIP3    H251104   6.413   4.953  15.699  0.5081  0.2053  0.7985
 9897TIP3   OH251105   1.665   2.010   3.893  0.0071 -0.7200 -0.7036
 9897TIP3    H151106   1.632   1.925   3.921 -0.7898 -0.4003 -0.6573
 9897TIP3    H251107   1.757   1.994   3.872  0.1212 -1.3863  0.2274
 9898TIP3   OH251108   0.479   5.211  13.009  1.0589 -0.3903 -0.3083
 9898TIP3    H151109   0.555   5.238  12.958  1.1843  0.1486  0.1494
 9898TIP3    H251110   0.504   5.126  13.046  1.8195  0.2150  0.6080
 9899TIP3   OH251111   6.712   5.020   3.177 -0.5782  0.6041  0.3095
 9899TIP3    H151112   6.657   4.941   3.182  0.4403 -0.0581  1.8779
 9899TIP3    H251113   6.666   5.085   3.229  0.7440 -0.4206  2.9624
 9900TIP3   OH251114   2.670   0.255   0.358  0.4939  0.3009 -0.1255
 9900TIP3    H151115   2.712   0.301   0.285  0.5073  0.8202  0.2043
 9900TIP3    H251116   2.741   0.240   0.420  0.6266 -0.7552 -0.5069
 9901TIP3   OH251117   4.256   0.682   4.622  0.2017 -0.1142  0.0948
 9901TIP3    H151118   4.329   0.623   4.641  0.6243  0.2348 -0.4040
 9901TIP3    H251119   4.255   0.744   4.695 -1.9591 -2.2940  2.0864
 9902TIP3   OH251120   4.444   0.861   0.917 -0.5884 -0.4333  0.0921
 9902TIP3    H151121   4.409   0.779   0.952  1.2027 -1.3898 -0.1994
 9902TIP3    H251122   4.461   0.914   0.994  0.2452 -1.2190  0.4742
 9903TIP3   OH251123   4.414   2.325   6.418 -0.0971  0.7535  0.4264
 9903TIP3    H151124   4.495   2.353   6.459 -0.9416  1.0626  1.9665
 9903TIP3    H251125   4.395   2.392   6.353 -0.5586  2.2437  2.0316
 9904TIP3   OH251126   5.043   6.767  12.010 -0.6602  0.3472 -0.3418
 9904TIP3    H151127   5.092   6.686  12.023 -0.3669  0.7874  1.6268
 9904TIP3    H251128   5.003   6.757  11.924 -0.0854 -1.5974 -0.4346
 9905TIP3   OH251129   1.012   5.259  14.664 -0.0038 -0.0025 -0.4103
 9905TIP3    H151130   0.929   5.306  14.654 -0.0950  0.1008  0.6286
 9905TIP3    H251131   1.059   5.274  14.582 -1.2980 -0.6695 -1.3057
 9906TIP3   OH251132   1.865   6.398  15.431  0.0942  0.0643  0.3723
 9906TIP3    H151133   1.791   6.388  15.371  0.7587 -0.9529 -0.3000
 9906TIP3    H251134   1.936   6.349  15.390  0.7341 -0.1701  1.7064
 9907TIP3   OH251135   2.640   3.424  15.271 -0.5920  0.7057 -0.1813
 9907TIP3    H151136   2.599   3.404  15.355 -1.4066 -1.8590 -1.1122
 9907TIP3    H251137   2.656   3.519  15.275 -3.3741  1.2227  1.6518
 9908TIP3   OH251138   1.407   5.006   2.134  0.1474  0.0935  0.7916
 9908TIP3    H151139   1.351   5.078   2.105 -0.7833 -0.4191  1.2493
 9908TIP3    H251140   1.493   5.045   2.146 -0.3762  1.1566  1.1527
 9909TIP3   OH251141   3.362   2.224   0.308 -0.4665  0.4897 -0.6525
 9909TIP3    H151142   3.419   2.301   0.307  2.0803 -1.2599 -0.3583
 9909TIP3    H251143   3.373   2.188   0.396 -3.0676  0.7184 -0.1482
 9910TIP3   OH251144   4.912   1.290  11.995  0.2670  0.3893  0.1886
 9910TIP3    H151145   4.857   1.236  12.053 -1.5848  1.5767 -0.3844
 9910TIP3    H251146   4.956   1.351  12.055  0.5324 -0.2030  0.6064
 9911TIP3   OH251147   5.198   2.247  12.205  0.0577  0.2885  0.0163
 9911TIP3    H151148   5.283   2.261  12.164  0.3415 -0.1326  0.4514
 9911TIP3    H251149   5.146   2.323  12.180 -0.5360 -0.9688 -3.0213
 9912TIP3   OH251150   1.225   5.764  11.982  0.5247  0.2437 -0.1283
 9912TIP3    H151151   1.172   5.766  11.902 -1.3204 -3.7011  0.7475
 9912TIP3    H251152   1.180   5.824  12.042 -1.7222 -1.2773 -0.1775
 9913TIP3   OH251153   5.340   6.535  15.452  0.9236  0.2904  0.6069
 9913TIP3    H151154   5.323   6.542  15.546  1.1758 -0.4484  0.7200
 9913TIP3    H251155   5.407   6.467  15.445  0.2851 -0.2841 -0.1625
 9914TIP3   OH251156   1.188   5.298  16.895 -0.1491  0.0165 -0.5750
 9914TIP3    H151157   1.267   5.318  16.846  0.2030 -1.0444 -0.4794
 9914TIP3    H251158   1.214   5.307  16.987 -0.4753  0.8294 -0.5570
 9915TIP3   OH251159   2.463   6.526  12.549  0.4107  0.1030 -0.2128
 9915TIP3    H151160   2.383   6.519  12.497  1.7246  0.2718 -2.3785
 9915TIP3    H251161   2.450   6.465  12.621 -1.7503  0.3140 -0.3571
 9916TIP3   OH251162   0.535   3.639   4.827 -0.3225  0.2750 -0.2199
 9916TIP3    H151163   0.578   3.602   4.904  2.2145  1.1466 -1.1157
 9916TIP3    H251164   0.548   3.734   4.835 -2.0207  0.5795 -0.6213
 9917TIP3   OH251165   6.260   3.846  11.923  0.8671 -0.6848  0.2203
 9917TIP3    H151166   6.269   3.804  12.008  0.4882 -0.0161  0.5988
 9917TIP3    H251167   6.211   3.927  11.941 -1.1354 -1.5642 -0.9366
 9918TIP3   OH251168   0.525   3.298   4.796 -0.4760  0.0130 -0.0547
 9918TIP3    H151169   0.469   3.368   4.761  0.3468  0.1841 -1.1054
 9918TIP3    H251170   0.466   3.242   4.845 -2.0031 -0.9789 -2.8122
 9919TIP3   OH251171   6.170   3.054   0.285 -0.1401  0.3854 -0.2685
 9919TIP3    H151172   6.123   3.008   0.215  0.7482  0.8251 -1.1704
 9919TIP3    H251173   6.237   3.105   0.240  1.1691 -0.1697  0.9753
 9920TIP3   OH251174   3.044   4.141   6.045  0.3339 -0.1296 -0.2410
 9920TIP3    H151175   3.118   4.110   6.098  0.2807  1.9927  1.2208
 9920TIP3    H251176   2.968   4.094   6.080  0.9257 -2.5383 -1.9430
 9921TIP3   OH251177   1.127   3.986   3.856 -0.2311 -0.2843  0.1827
 9921TIP3    H151178   1.085   4.012   3.773  1.5389  2.4854  0.0170
 9921TIP3    H251179   1.152   3.895   3.842 -0.7698 -0.1646 -2.0005
 9922TIP3   OH251180   5.509   4.473   2.327 -0.2061  0.4724 -0.0958
 9922TIP3    H151181   5.415   4.453   2.317  0.1784 -2.2137  0.8056
 9922TIP3    H251182   5.551   4.426   2.256  0.5988  0.2939  0.4903
 9923TIP3   OH251183   6.474   5.873   3.532  0.1642  0.1535 -0.4125
 9923TIP3    H151184   6.557   5.873   3.485  0.1514  0.9691 -0.4490
 9923TIP3    H251185   6.414   5.920   3.475  0.1049  0.9993  0.3257
 9924TIP3   OH251186   2.654   2.338  14.607 -0.5053 -0.2295  0.1058
 9924TIP3    H151187   2.644   2.425  14.568 -0.1652 -0.5169 -0.6317
 9924TIP3    H251188   2.691   2.355  14.694 -1.1046  0.4022  0.2522
 9925TIP3   OH251189   5.595   3.127  12.086 -0.3123 -0.2784  0.5530
 9925TIP3    H151190   5.673   3.081  12.054  0.1493  0.6921  0.2638
 9925TIP3    H251191   5.525   3.098  12.027 -0.2413 -1.3339  0.9530
 9926TIP3   OH251192   1.311   4.115   4.008  0.4919 -0.2287 -0.1065
 9926TIP3    H151193   1.246   4.061   3.962 -0.1184  0.9784 -0.7363
 9926TIP3    H251194   1.281   4.117   4.099  1.3062 -2.0595  0.2339
 9927TIP3   OH251195   3.115   6.486  11.760  0.1637  0.5217  0.1758
 9927TIP3    H151196   3.128   6.424  11.688 -0.4479 -0.3252  0.7680
 9927TIP3    H251197   3.053   6.550  11.725  1.1877  1.1132 -0.6114
 9928TIP3   OH251198   4.326   2.995   0.632  0.0480 -0.0363 -0.4342
 9928TIP3    H151199   4.399   2.991   0.694 -0.1299  2.0733 -0.0301
 9928TIP3    H251200   4.323   3.087   0.604 -2.0090 -0.2289 -0.9910
 9929TIP3   OH251201   1.966   3.227   5.499 -0.3029 -0.0781  0.2892
 9929TIP3    H151202   1.909   3.259   5.429 -0.2671 -1.2478 -0.3034
 9929TIP3    H251203   1.981   3.135   5.477  0.9214 -0.0756  1.0413
 9930TIP3   OH251204   3.789   0.862   4.070  0.2500  0.2593  0.0759
 9930TIP3    H151205   3.838   0.780   4.075  2.0350  1.2310 -0.5877
 9930TIP3    H251206   3.762   0.880   4.160 -0.7321 -1.3528  0.1326
 9931TIP3   OH251207   2.691   2.335  11.987  0.7916 -0.0512  0.0476
 9931TIP3    H151208   2.747   2.395  12.037  2.1892 -1.6918  0.5380
 9931TIP3    H251209   2.703   2.362  11.896  1.5896  0.2708  0.2370
 9932TIP3   OH251210   6.413   3.707  16.648  0.6157 -0.3485  0.2805
 9932TIP3    H151211   6.345   3.730  16.584  0.2425 -0.8219  0.5064
 9932TIP3    H251212   6.371   3.643  16.705  0.1918  1.6804  2.3883
 9933TIP3   OH251213   4.161   2.084   2.884 -0.1408  0.2560  0.3821
 9933TIP3    H151214   4.215   2.143   2.832 -0.1032 -0.4829 -0.4384
 9933TIP3    H251215   4.153   2.127   2.969  0.9385  0.8305  0.2050
 9934TIP3   OH251216   2.219   1.039   1.526 -0.9682  0.1505  0.3075
 9934TIP3    H151217   2.301   1.062   1.483 -0.8051  1.0791  1.0566
 9934TIP3    H251218   2.201   0.949   1.499 -0.4543  0.4214 -1.0031
 9935TIP3   OH251219   6.533   2.155   4.936  0.3145  0.1092 -0.4069
 9935TIP3    H151220   6.446   2.170   4.900  0.4226 -0.3483 -0.8684
 9935TIP3    H251221   6.590   2.211   4.882  0.1309  1.5789  0.8557
 9936TIP3   OH251222   5.483   5.780   1.347 -0.7924  0.0972  0.0319
 9936TIP3    H151223   5.431   5.786   1.267  1.3239 -0.0710 -1.4365
 9936TIP3    H251224   5.484   5.687   1.368 -0.2769 -0.0313 -0.5293
 9937TIP3   OH251225   3.690   2.878   5.958  0.2125 -0.3122 -0.2063
 9937TIP3    H151226   3.765   2.868   6.016 -0.1672  1.8486  0.7959
 9937TIP3    H251227   3.632   2.806   5.981  0.6941 -0.3084  1.1417
 9938TIP3   OH251228   1.149   0.366  11.176  0.5523  0.0367 -0.0492
 9938TIP3    H151229   1.130   0.273  11.159 -1.0533  0.3774 -0.3115
 9938TIP3    H251230   1.125   0.379  11.268 -0.9158  0.5464 -0.4688
 9939TIP3   OH251231   2.919   1.097   4.037 -0.0914 -0.2602  0.0275
 9939TIP3    H151232   2.978   1.150   3.984  0.7444 -1.7991 -0.6447
 9939TIP3    H251233   2.880   1.159   4.099  2.2181  0.8335  0.4959
 9940TIP3   OH251234   1.111   3.100   4.307 -0.8530 -0.2337 -0.5297
 9940TIP3    H151235   1.077   3.182   4.343  0.2905  0.6285 -1.3310
 9940TIP3    H251236   1.137   3.122   4.217  2.7817 -0.4813  0.3130
 9941TIP3   OH251237   1.758   0.500   1.041 -0.6175 -0.0672 -0.4288
 9941TIP3    H151238   1.768   0.490   0.947  1.7345  2.4452 -0.5613
 9941TIP3    H251239   1.692   0.569   1.051 -1.7931 -1.1869 -0.1332
 9942TIP3   OH251240   4.097   1.144   5.649  0.0797  0.1363 -0.3265
 9942TIP3    H151241   4.028   1.078   5.639  0.5495 -0.1229 -2.0575
 9942TIP3    H251242   4.105   1.155   5.744 -0.6732 -1.6062 -0.0190
 9943TIP3   OH251243   5.733   0.394  12.142  0.5104 -0.1334  0.3400
 9943TIP3    H151244   5.816   0.436  12.162  0.0021  0.9924  0.1544
 9943TIP3    H251245   5.718   0.414  12.049  0.4503 -1.0843  0.1327
 9944TIP3   OH251246   0.422   3.531   3.911  0.5401  0.3097  0.4512
 9944TIP3    H151247   0.363   3.480   3.968  0.5479 -0.3003 -0.0761
 9944TIP3    H251248   0.419   3.485   3.827 -0.1177  1.6732 -0.3002
 9945TIP3   OH251249   1.441   1.614  15.650 -0.6060  0.3592 -0.1458
 9945TIP3    H151250   1.475   1.543  15.704 -0.6465  0.7998  0.4679
 9945TIP3    H251251   1.347   1.595  15.642 -0.7136  0.6124  0.4486
 9946TIP3   OH251252   4.012   4.044  11.690 -0.2935  0.2715 -0.3624
 9946TIP3    H151253   4.096   4.045  11.735 -0.0676 -2.2342 -0.6140
 9946TIP3    H251254   4.029   4.087  11.606  0.4999  0.6218 -0.0313
 9947TIP3   OH251255   2.907   6.666  11.693  0.2437  0.0998 -0.0416
 9947TIP3    H151256   2.882   6.757  11.702 -1.7322 -0.3556 -0.5628
 9947TIP3    H251257   2.826   6.617  11.701  0.8465 -1.4450 -2.2672
 9948TIP3   OH251258   6.422   4.247   5.207 -0.5564  0.1436  0.0045
 9948TIP3    H151259   6.376   4.169   5.239  1.1158 -1.1054 -0.5254
 9948TIP3    H251260   6.430   4.233   5.113 -0.2101  0.9474 -0.0915
 9949TIP3   OH251261   5.960   4.360  16.292  0.2231 -0.0435 -0.1892
 9949TIP3    H151262   5.881   4.350  16.344 -0.2429  0.4083 -0.7997
 9949TIP3    H251263   5.981   4.453  16.298  0.5657 -0.1138 -0.2464
 9950TIP3   OH251264   3.048   6.230   3.734 -0.6430  0.5240  0.0373
 9950TIP3    H151265   3.023   6.157   3.678 -0.1615  0.8512 -0.6020
 9950TIP3    H251266   2.984   6.227   3.806 -1.1894  0.0383 -0.4610
 9951TIP3   OH251267   6.436   4.127  16.861 -0.7864 -0.0335 -0.3113
 9951TIP3    H151268   6.423   4.221  16.853 -0.7880  0.0391  0.4645
 9951TIP3    H251269   6.467   4.099  16.775 -0.7074  0.6883 -0.5193
 9952TIP3   OH251270   6.289   4.714  11.696  0.4522 -0.0924 -0.0070
 9952TIP3    H151271   6.370   4.760  11.717  0.9807 -1.2005  0.5177
 9952TIP3    H251272   6.219   4.771  11.728  1.0570  0.5646  0.1525
 9953TIP3   OH251273   5.473   5.382  14.399  0.2590 -1.1681 -0.0183
 9953TIP3    H151274   5.503   5.338  14.319  0.7106  0.5939 -0.8597
 9953TIP3    H251275   5.405   5.443  14.368  2.7833  2.0564  0.3036
 9954TIP3   OH251276   3.192   5.342   3.750 -0.0100 -1.1328 -0.3785
 9954TIP3    H151277   3.206   5.347   3.656 -0.8352 -1.0088 -0.5054
 9954TIP3    H251278   3.109   5.294   3.759 -0.7882  0.2611  0.2148
 9955TIP3   OH251279   0.764   4.637   3.534 -0.2897 -0.3972  0.0810
 9955TIP3    H151280   0.745   4.588   3.454  0.3207 -2.4680  1.1381
 9955TIP3    H251281   0.828   4.702   3.508 -0.9957 -0.2352 -1.3453
 9956TIP3   OH251282   1.277   5.797   4.734 -0.0190  0.0002 -0.3252
 9956TIP3    H151283   1.219   5.863   4.772 -1.0879 -1.7072  1.1995
 9956TIP3    H251284   1.354   5.797   4.790  1.1901  1.7014 -1.8743
 9957TIP3   OH251285   2.385   4.147  12.770  0.6528 -0.1542 -0.5970
 9957TIP3    H151286   2.312   4.106  12.722  1.5128 -2.1527 -0.3273
 9957TIP3    H251287   2.357   4.236  12.786 -2.1031 -1.0707  0.2278
 9958TIP3   OH251288   0.007   2.754   0.745 -0.0497 -0.5018 -0.1802
 9958TIP3    H151289  -0.046   2.747   0.665 -1.9132 -0.6063  1.0031
 9958TIP3    H251290   0.037   2.664   0.761 -1.8278 -1.0124  0.5813
 9959TIP3   OH251291   5.733   4.680   4.615  0.2854 -0.2175  0.0417
 9959TIP3    H151292   5.816   4.724   4.597 -0.8090  1.7097 -0.6315
 9959TIP3    H251293   5.755   4.587   4.619  2.6733  0.3203  1.1968
 9960TIP3   OH251294   2.389   0.673  13.145  0.1404  0.2684  0.2094
 9960TIP3    H151295   2.443   0.596  13.162  2.4972  1.7210 -0.1453
 9960TIP3    H251296   2.369   0.669  13.051  0.2673  0.0963  0.1904
 9961TIP3   OH251297   2.230   1.850   3.033  0.0698 -0.4515  0.0343
 9961TIP3    H151298   2.167   1.845   3.105 -1.6224 -1.2860 -1.4585
 9961TIP3    H251299   2.182   1.889   2.961  0.9286 -2.0969 -1.4883
 9962TIP3   OH251300   5.344   4.447  14.024 -0.3583  0.4380  0.4703
 9962TIP3    H151301   5.434   4.430  14.000 -0.5178 -0.4638  0.5040
 9962TIP3    H251302   5.305   4.487  13.946 -0.1064  0.2311  0.2401
 9963TIP3   OH251303   1.877   4.529   5.439 -0.7116  0.5067  0.0949
 9963TIP3    H151304   1.938   4.594   5.472 -0.4018  0.4039 -0.2711
 9963TIP3    H251305   1.834   4.495   5.518  0.9970 -0.7182  0.5648
 9964TIP3   OH251306   4.696   3.394  16.467 -0.1542 -0.2888  0.3061
 9964TIP3    H151307   4.762   3.417  16.402 -0.1628  2.3871  1.1451
 9964TIP3    H251308   4.747   3.375  16.546 -0.2910  2.2016  1.0769
 9965TIP3   OH251309   6.253   3.746   3.487  0.2177 -0.4246  0.0528
 9965TIP3    H151310   6.288   3.696   3.560  1.3792  0.1677 -0.0792
 9965TIP3    H251311   6.184   3.801   3.525  1.3889  0.5115  0.8839
 9966TIP3   OH251312   6.293   1.673  11.217  0.5096 -0.2970 -0.2038
 9966TIP3    H151313   6.262   1.750  11.169 -0.8330 -1.1059 -0.7054
 9966TIP3    H251314   6.261   1.686  11.306 -2.0349 -1.4286 -0.8556
 9967TIP3   OH251315   6.599   0.287   4.631 -0.2169  0.1684 -0.3398
 9967TIP3    H151316   6.624   0.249   4.715  0.6344  1.1509 -0.1224
 9967TIP3    H251317   6.610   0.216   4.567  0.4452 -0.2040  0.1810
 9968TIP3   OH251318   0.019   4.583   0.859 -0.2156  0.1774 -0.1855
 9968TIP3    H151319  -0.030   4.523   0.916 -0.6382 -0.2984 -1.0241
 9968TIP3    H251320  -0.047   4.642   0.823  0.0584  0.5313 -0.1127
 9969TIP3   OH251321   4.678   2.077  17.068 -0.0241  0.3323  0.8129
 9969TIP3    H151322   4.696   2.170  17.062 -0.0822  0.3348  0.6792
 9969TIP3    H251323   4.716   2.040  16.988 -0.8464  0.3723  0.3995
 9970TIP3   OH251324   0.938   5.847  15.584 -0.5203 -0.1798  0.6164
 9970TIP3    H151325   1.013   5.896  15.618 -0.1136 -1.1783  1.2078
 9970TIP3    H251326   0.919   5.781  15.651 -0.2913 -1.6015 -0.6419
 9971TIP3   OH251327   2.199   1.094   3.569  0.5479 -0.0011 -0.3298
 9971TIP3    H151328   2.217   1.188   3.579  0.7677  0.1067 -1.5886
 9971TIP3    H251329   2.145   1.088   3.491  2.1200 -1.0667 -1.3885
 9972TIP3   OH251330   4.900   0.042  13.773  0.0306 -0.0863 -0.3273
 9972TIP3    H151331   4.942  -0.033  13.815  0.5752  0.9131  0.9828
 9972TIP3    H251332   4.965   0.072  13.709  0.6390  0.4084  0.4954
 9973TIP3   OH251333   5.180   1.641   1.354  0.3198 -0.5606 -0.0310
 9973TIP3    H151334   5.198   1.558   1.310 -1.2738 -1.4266  0.8351
 9973TIP3    H251335   5.164   1.616   1.446  0.8516  0.8424  0.4644
 9974TIP3   OH251336   6.230   0.699  15.282 -0.2389  0.4168 -0.2038
 9974TIP3    H151337   6.305   0.646  15.309  0.0684  0.8006 -0.2959
 9974TIP3    H251338   6.250   0.725  15.192 -0.1184  1.1523  0.0284
 9975TIP3   OH251339   5.112   2.163  12.616  0.1358  0.0484 -0.1611
 9975TIP3    H151340   5.022   2.150  12.585  0.9140  0.2156 -2.7144
 9975TIP3    H251341   5.135   2.250  12.585  1.4121 -0.2622 -0.1265
 9976TIP3   OH251342   1.392   5.386  14.628  0.4095 -0.1364  0.1649
 9976TIP3    H151343   1.476   5.431  14.641  0.3799 -0.4901  1.7025
 9976TIP3    H251344   1.403   5.301  14.669 -0.7990 -0.0754  0.6670
 9977TIP3   OH251345   3.839   0.011   0.985  0.2970  0.7123  0.2023
 9977TIP3    H151346   3.819   0.035   1.076  1.2429 -0.8881  0.8798
 9977TIP3    H251347   3.931   0.035   0.973  0.1332  1.0612 -0.3989
 9978TIP3   OH251348   3.376   1.129   1.071 -0.0302  0.0403  0.0086
 9978TIP3    H151349   3.423   1.061   1.023 -0.0955 -0.3270  0.4641
 9978TIP3    H251350   3.316   1.166   1.006 -1.8623 -2.0864  0.3670
 9979TIP3   OH251351   6.406   0.073  14.209  0.8100  0.6177  0.1208
 9979TIP3    H151352   6.357   0.125  14.146  0.0724 -0.0868  0.0967
 9979TIP3    H251353   6.444   0.137  14.269  0.2509  1.2048 -0.1393
 9980TIP3   OH251354   5.089   1.769   0.817 -0.3585  0.4988 -0.3497
 9980TIP3    H151355   5.170   1.790   0.771 -0.1420  0.8852  0.1918
 9980TIP3    H251356   5.099   1.677   0.842  0.2599  0.7534  0.3867
 9981TIP3   OH251357   6.620   0.407  15.771 -0.0748  0.7009  0.0683
 9981TIP3    H151358   6.662   0.411  15.685  0.6253  1.9841  0.4341
 9981TIP3    H251359   6.690   0.382  15.830 -0.1774  1.3294  0.4697
 9982TIP3   OH251360   6.276   6.312   1.074  0.6271 -0.9315 -0.2733
 9982TIP3    H151361   6.199   6.360   1.041  0.9440 -0.2135 -0.0025
 9982TIP3    H251362   6.342   6.380   1.085  0.8917 -1.3464  0.7280
 9983TIP3   OH251363   1.627   3.684  16.847 -0.2183  0.1021 -0.6358
 9983TIP3    H151364   1.645   3.711  16.757  0.6266 -1.0547 -0.8323
 9983TIP3    H251365   1.645   3.590  16.848  0.7772  0.2770  1.0030
 9984TIP3   OH251366   5.694   0.980   3.685  0.5106 -0.1490  0.5888
 9984TIP3    H151367   5.777   1.026   3.682  0.0401  0.6860 -0.0736
 9984TIP3    H251368   5.678   0.963   3.778  0.6791  1.0561  0.8474
 9985TIP3   OH251369   3.299   6.465   2.733  0.5657  0.4233  0.3541
 9985TIP3    H151370   3.326   6.557   2.733  0.6279  0.4312  1.7282
 9985TIP3    H251371   3.381   6.417   2.747  0.5876  0.1258 -0.7438
 9986TIP3   OH251372   0.029   0.549  17.092  0.7021  0.5354 -0.1588
 9986TIP3    H151373   0.011   0.607  17.017  3.1398  2.9730  0.9536
 9986TIP3    H251374   0.110   0.504  17.068  0.2122 -0.5099  0.0821
 9987TIP3   OH251375   1.591   4.747  11.652  0.0723 -0.7057  0.4706
 9987TIP3    H151376   1.578   4.751  11.557 -1.4749  0.0275  0.6777
 9987TIP3    H251377   1.683   4.723  11.663  0.3809 -0.4018 -1.2096
 9988TIP3   OH251378   0.813   4.960  11.759 -0.1154  0.2028 -0.3875
 9988TIP3    H151379   0.888   4.901  11.746  0.0772  0.5498 -0.9098
 9988TIP3    H251380   0.800   4.963  11.854  0.2386 -0.2262 -0.3241
 9989TIP3   OH251381   2.570   5.521  11.802 -0.2618  0.3974 -0.1483
 9989TIP3    H151382   2.598   5.571  11.725 -0.2291 -1.8733 -1.6759
 9989TIP3    H251383   2.652   5.501  11.848 -0.4171  4.2310  2.2783
 9990TIP3   OH251384   1.958   2.005   0.218  0.6750  0.5162 -0.0192
 9990TIP3    H151385   1.938   2.011   0.124  2.7206  0.2790 -0.5181
 9990TIP3    H251386   1.873   2.000   0.260 -0.2919 -0.4650 -1.9450
 9991TIP3   OH251387   6.455   3.827   5.758  0.1978 -0.1420 -0.4109
 9991TIP3    H151388   6.509   3.891   5.713 -1.0716  0.8483 -0.5747
 9991TIP3    H251389   6.477   3.743   5.717  2.6255 -0.0341  0.4933
 9992TIP3   OH251390   2.998   5.879   0.050  0.1857  0.4699  0.5529
 9992TIP3    H151391   2.940   5.839  -0.015  0.5553  2.3289 -1.0501
 9992TIP3    H251392   3.028   5.959   0.007  3.5931 -0.1794  1.4662
 9993TIP3   OH251393   1.025   4.434   5.200 -0.5510 -0.0649  0.7077
 9993TIP3    H151394   1.045   4.476   5.284 -1.4958 -0.7174  1.2806
 9993TIP3    H251395   1.007   4.343   5.222  1.1476 -0.7236 -0.4856
 9994TIP3   OH251396   2.537   6.461   2.217  0.1019  0.9195  0.1462
 9994TIP3    H151397   2.493   6.379   2.194 -0.7674  0.9041  1.6580
 9994TIP3    H251398   2.535   6.513   2.137  2.1474 -1.0963 -1.3449
 9995TIP3   OH251399   5.476   2.442  12.945 -0.0454  0.1571  0.5924
 9995TIP3    H151400   5.572   2.441  12.945 -0.0436 -0.9756  0.6980
 9995TIP3    H251401   5.452   2.442  12.852  0.0856 -1.2696  0.5243
 9996TIP3   OH251402   0.252   2.876  14.911 -0.5590  0.2758 -0.2377
 9996TIP3    H151403   0.314   2.858  14.982 -1.1463 -1.3627 -0.0747
 9996TIP3    H251404   0.307   2.898  14.836  0.2628 -1.0416 -0.0732
 9997TIP3   OH251405   5.756   5.795   5.628  0.2329  0.1806  0.5248
 9997TIP3    H151406   5.672   5.815   5.669 -0.1630 -0.1491 -0.1049
 9997TIP3    H251407   5.750   5.835   5.541  0.9695  0.6780  0.6952
 9998TIP3   OH251408   4.657   3.871   4.568  0.5144 -0.0247  0.1660
 9998TIP3    H151409   4.626   3.923   4.642  0.6346 -1.7844  1.5260
 9998TIP3    H251410   4.585   3.812   4.548 -0.0837  1.3860 -2.1381
 9999TIP3   OH251411   3.343   3.299   3.545  0.3089  0.3281  0.2525
 9999TIP3    H151412   3.263   3.248   3.555 -0.4383  1.5019  0.4773
 9999TIP3    H251413   3.406   3.238   3.506 -1.3926  0.0091 -2.2037
10000TIP3   OH251414   2.890   2.653  15.384 -0.5657 -0.0261 -0.0270
10000TIP3    H151415   2.881   2.748  15.385 -0.6036 -0.0155 -0.6071
10000TIP3    H251416   2.976   2.636  15.422 -0.5311  0.2438  0.0166
10001TIP3   OH251417   3.575   4.634   1.284  0.0551 -0.1228  0.1974
10001TIP3    H151418   3.613   4.652   1.198 -0.6297 -0.0692 -0.0975
10001TIP3    H251419   3.630   4.685   1.345  0.9419 -0.6768 -0.1225
10002TIP3   OH251420   3.968   4.008  10.820 -0.2125  0.1363 -0.1008
10002TIP3    H151421   3.917   4.060  10.882  0.6335 -0.0847  0.8142
10002TIP3    H251422   3.954   4.050  10.735 -2.4425 -0.3234 -0.0097
10003TIP3   OH251423   6.485   0.589   0.108 -0.3210 -0.3176 -0.0450
10003TIP3    H151424   6.469   0.497   0.128 -1.1040 -0.0965  0.4026
10003TIP3    H251425   6.501   0.591   0.014  0.3380 -0.9859  0.0414
10004TIP3   OH251426   2.141   5.885  13.977  0.1790 -0.2578  0.2956
10004TIP3    H151427   2.082   5.950  13.939  0.7567 -0.1626 -0.4691
10004TIP3    H251428   2.228   5.924  13.968  0.2544  0.6280  3.4491
10005TIP3   OH251429   4.157   4.178   0.873 -0.4492 -0.3013 -0.0343
10005TIP3    H151430   4.181   4.085   0.876  0.2089 -0.1337  0.3297
10005TIP3    H251431   4.222   4.217   0.815  0.1127  0.1477  0.8733
10006TIP3   OH251432   5.120   4.543   1.838  0.4292  0.7083 -0.5575
10006TIP3    H151433   5.182   4.597   1.789  0.4550 -1.3129 -2.9892
10006TIP3    H251434   5.089   4.478   1.774 -1.4624 -0.6035  1.5216
10007TIP3   OH251435   4.411   0.293   3.480  0.5598 -0.0305  0.6871
10007TIP3    H151436   4.482   0.230   3.468  0.6917  0.3807 -0.9945
10007TIP3    H251437   4.433   0.339   3.561  2.0325 -0.1384  0.3760
10008TIP3   OH251438   4.233   5.735   3.119  0.1282 -0.0124 -0.3850
10008TIP3    H151439   4.196   5.663   3.068  0.7038  0.3125 -1.2931
10008TIP3    H251440   4.159   5.771   3.168 -0.3141 -0.7248 -0.5215
10009TIP3   OH251441   3.212   3.351  16.871 -0.0636  0.1864  0.5157
10009TIP3    H151442   3.139   3.291  16.859  0.9788 -1.0944  0.2328
10009TIP3    H251443   3.174   3.438  16.865 -1.0063 -0.3061 -4.0266
10010TIP3   OH251444   5.143   1.063  12.130  0.4362  0.5065  0.4097
10010TIP3    H151445   5.147   0.971  12.154 -1.2154  0.2615 -0.1378
10010TIP3    H251446   5.078   1.067  12.059  1.3185  1.9318 -0.3777
10011TIP3   OH251447   5.231   5.227  14.759  0.2346  0.1331 -0.5071
10011TIP3    H151448   5.291   5.153  14.770  1.3991  1.0519 -0.4698
10011TIP3    H251449   5.206   5.251  14.848 -0.8306 -0.7331 -0.5532
10012TIP3   OH251450   3.450   4.981   3.234  0.0692  0.0861 -0.0816
10012TIP3    H151451   3.472   4.934   3.314 -0.3260  0.5068  0.2827
10012TIP3    H251452   3.421   4.914   3.173  0.0576 -0.2038  0.2414
10013TIP3   OH251453   4.816   3.814   0.851 -0.1252  0.3518  0.0844
10013TIP3    H151454   4.762   3.874   0.800  1.7359  1.7575 -0.3460
10013TIP3    H251455   4.881   3.782   0.788 -0.1957 -1.0218  0.6678
10014TIP3   OH251456   2.039   6.536  13.422  0.1355 -0.1734 -0.3568
10014TIP3    H151457   2.093   6.457  13.427 -2.6886 -2.1651  1.0958
10014TIP3    H251458   2.101   6.607  13.442  2.7034 -1.9791 -1.2938
10015TIP3   OH251459   2.973   5.462  16.743  0.0591 -0.2480 -0.8587
10015TIP3    H151460   3.044   5.504  16.693 -0.4116  0.8576 -0.6128
10015TIP3    H251461   2.893   5.504  16.710 -0.2013  1.3406  1.5801
10016TIP3   OH251462   2.172   4.212  12.298 -0.1732  0.0550  0.5129
10016TIP3    H151463   2.204   4.125  12.271  2.5771  1.0606  0.2384
10016TIP3    H251464   2.246   4.251  12.344 -0.4207  3.1869 -1.4623
10017TIP3   OH251465   1.392   5.001  16.005  0.0669  0.8504 -0.1164
10017TIP3    H151466   1.450   5.076  15.990 -0.0389  0.7129 -1.3534
10017TIP3    H251467   1.440   4.926  15.969 -0.6791  0.6666 -0.7537
10018TIP3   OH251468   3.006   1.169   4.629 -0.8748 -0.1022 -0.8224
10018TIP3    H151469   3.038   1.155   4.539  2.4896  1.0183  0.0787
10018TIP3    H251470   2.981   1.261   4.631 -0.7369 -0.0725 -0.5430
10019TIP3   OH251471   1.346   3.740   2.556  0.4132 -0.0156 -0.1106
10019TIP3    H151472   1.312   3.788   2.631 -0.0393  0.2387 -0.4685
10019TIP3    H251473   1.441   3.736   2.570  0.7636  2.8118 -1.0691
10020TIP3   OH251474   5.587   3.379  16.805 -0.5492 -0.1205 -0.4661
10020TIP3    H151475   5.494   3.373  16.827 -0.5970  0.4299 -0.5088
10020TIP3    H251476   5.591   3.441  16.733  0.0245  1.3438  0.7598
10021TIP3   OH251477   0.593   3.956   5.378 -0.7591 -0.1007  0.0351
10021TIP3    H151478   0.619   4.048   5.366 -0.3470 -0.1365  0.6092
10021TIP3    H251479   0.593   3.920   5.289 -2.7736  0.9165 -0.4445
10022TIP3   OH251480   0.777   4.635   0.892  0.3005 -0.4545  0.1191
10022TIP3    H151481   0.866   4.607   0.867 -0.0121 -1.1195 -0.2819
10022TIP3    H251482   0.720   4.586   0.834 -0.4367 -1.6481  1.7648
10023TIP3   OH251483   4.176   0.051   5.078 -0.0397  0.1658  0.5536
10023TIP3    H151484   4.184   0.124   5.139 -1.6303  0.7416  0.1330
10023TIP3    H251485   4.261   0.007   5.081  0.1815  0.6560  2.5388
10024TIP3   OH251486   6.602   2.467   5.375  0.6486  0.0720 -0.5016
10024TIP3    H151487   6.641   2.417   5.447  1.3352  0.0886 -0.8498
10024TIP3    H251488   6.522   2.505   5.412  1.4396  0.8002  0.5210
10025TIP3   OH251489   4.977   4.943  14.659  0.2466  0.6771  1.0447
10025TIP3    H151490   4.953   5.019  14.607  2.2742 -0.2621 -1.4428
10025TIP3    H251491   5.045   4.899  14.609  0.1101 -2.0803  3.0195
10026TIP3   OH251492   4.308   1.247   1.386  0.2161  0.1294 -0.2204
10026TIP3    H151493   4.242   1.181   1.407  1.5392 -0.8661  1.1088
10026TIP3    H251494   4.270   1.298   1.315 -1.5562 -1.0077 -0.1541
10027TIP3   OH251495   3.956   6.413  14.822  0.0865 -0.1675 -0.5097
10027TIP3    H151496   4.010   6.335  14.814 -0.8286 -1.0448  1.2557
10027TIP3    H251497   3.866   6.382  14.808 -0.3804  0.3427  1.1658
10028TIP3   OH251498   5.443   2.436  10.518 -0.1831 -0.4282  0.2720
10028TIP3    H151499   5.524   2.389  10.536  0.1854 -0.2174 -0.7733
10028TIP3    H251500   5.377   2.394  10.573  0.9487  0.4760  2.4520
10029TIP3   OH251501   0.021   2.707  12.238  0.2651  0.1761  0.0575
10029TIP3    H151502   0.080   2.717  12.312 -2.1256 -0.1421  2.1507
10029TIP3    H251503   0.026   2.615  12.214  0.4541  0.1079  0.3622
10030TIP3   OH251504   1.086   2.062  10.891  0.6771  0.1647  0.2964
10030TIP3    H151505   1.100   2.148  10.931 -0.5580  1.0036 -0.9575
10030TIP3    H251506   1.001   2.033  10.927  0.3483  0.1893 -0.4465
10031TIP3   OH251507   6.760   4.940  13.737  0.0832 -0.3892  0.2866
10031TIP3    H151508   6.672   4.954  13.702  0.2776  0.3293  0.0646
10031TIP3    H251509   6.804   5.024  13.725  0.4672 -0.4152  1.3755
10032TIP3   OH251510   2.127   1.019   5.588 -0.1030  0.0357  0.7266
10032TIP3    H151511   2.106   1.090   5.527  0.7110 -1.3715 -1.3170
10032TIP3    H251512   2.048   0.965   5.589  0.8110 -1.4999 -1.4819
10033TIP3   OH251513   1.080   4.706  11.138 -0.0841  0.7221  0.5776
10033TIP3    H151514   1.173   4.706  11.158 -0.2502  2.3579  1.5809
10033TIP3    H251515   1.075   4.736  11.047  0.3914  0.0634  0.3345
10034TIP3   OH251516   6.749   0.894   5.593  0.0184 -0.2926  0.2914
10034TIP3    H151517   6.732   0.884   5.687  0.4195 -1.0399  0.2863
10034TIP3    H251518   6.680   0.844   5.550  0.0267 -0.2236  0.1970
10035TIP3   OH251519   3.374   5.218   4.162  0.0299  0.5775 -0.3859
10035TIP3    H151520   3.402   5.244   4.074 -0.3106  2.2260 -0.0430
10035TIP3    H251521   3.423   5.276   4.221 -2.4546  2.0906  0.3151
10036TIP3   OH251522   4.467   4.456   6.283 -0.4115  0.1901  0.0352
10036TIP3    H151523   4.442   4.395   6.353  0.3258  0.1589  0.2842
10036TIP3    H251524   4.531   4.407   6.231  0.4500  0.8479  0.4333
10037TIP3   OH251525   3.039   1.900  11.520  0.5675 -0.4379 -0.1469
10037TIP3    H151526   2.965   1.960  11.515  0.7991 -0.2230 -1.4082
10037TIP3    H251527   3.036   1.852  11.437  2.9746  0.9560 -1.1540
10038TIP3   OH251528   0.713   0.997  16.690  0.1981  0.1523 -0.0664
10038TIP3    H151529   0.659   1.074  16.671 -1.6504 -0.7961  1.0267
10038TIP3    H251530   0.721   0.953  16.605 -1.8095 -0.2699 -0.1035
10039TIP3   OH251531   4.223   3.305   1.521 -0.0125  0.0627 -0.7042
10039TIP3    H151532   4.204   3.289   1.613  1.1935  1.9955 -0.0649
10039TIP3    H251533   4.137   3.326   1.482 -0.2699  1.3041  0.4630
10040TIP3   OH251534   5.926   5.988  14.544 -0.0740 -0.2350  0.3894
10040TIP3    H151535   5.883   5.952  14.466 -0.4498 -1.9461  1.3418
10040TIP3    H251536   5.870   6.060  14.571 -0.7720 -0.5954 -0.0693
10041TIP3   OH251537   2.531   5.402   0.276 -0.4381 -0.3862 -0.8689
10041TIP3    H151538   2.543   5.438   0.188 -0.5805 -0.7803 -1.0520
10041TIP3    H251539   2.533   5.307   0.264 -2.6750 -0.4969 -0.7670
10042TIP3   OH251540   1.349   2.841   1.245  0.2976 -0.6712  0.1298
10042TIP3    H151541   1.339   2.927   1.204 -1.5841 -0.5414  0.7665
10042TIP3    H251542   1.373   2.783   1.173  3.0465  0.5663 -0.0902
10043TIP3   OH251543   1.386   2.311   4.712 -0.6491  0.2592  0.0700
10043TIP3    H151544   1.337   2.243   4.664 -0.7225  1.3295 -1.4348
10043TIP3    H251545   1.318   2.370   4.746 -0.5339  0.1384  0.5151
10044TIP3   OH251546   4.332   6.146   0.999 -0.2827 -0.0081  0.3975
10044TIP3    H151547   4.345   6.180   1.088 -1.1021 -1.1297  0.9682
10044TIP3    H251548   4.262   6.202   0.963 -0.3388  0.0943  0.6604
10045TIP3   OH251549   5.559   0.575  12.702 -0.1940 -0.3481 -0.3068
10045TIP3    H151550   5.469   0.607  12.694 -0.4296 -0.5487  1.2328
10045TIP3    H251551   5.557   0.488  12.664 -0.7528 -0.4975  0.0461
10046TIP3   OH251552   3.286   3.417  14.631 -0.5206  0.0810  0.3673
10046TIP3    H151553   3.290   3.428  14.536  1.0232  0.7818  0.4889
10046TIP3    H251554   3.245   3.331  14.644 -1.5388  0.3478 -0.8864
10047TIP3   OH251555   5.663   5.582  14.224 -1.1013  0.0738  0.0823
10047TIP3    H151556   5.612   5.514  14.269  0.4534 -0.5618  0.9858
10047TIP3    H251557   5.745   5.538  14.200 -1.4656  0.6883 -2.5182
10048TIP3   OH251558   0.556   6.047   3.243  0.1307 -0.6132  0.4524
10048TIP3    H151559   0.596   6.134   3.236  4.3233 -2.4027 -0.9461
10048TIP3    H251560   0.566   6.009   3.156 -3.8414 -1.7740  0.3307
10049TIP3   OH251561   3.424   3.344  12.958  0.7105 -0.3154  0.1513
10049TIP3    H151562   3.479   3.375  12.887  2.5786 -0.7868  1.3283
10049TIP3    H251563   3.376   3.421  12.987  0.1747 -0.0462 -1.3434
10050TIP3   OH251564   2.615   1.517  12.693 -0.5405 -0.1490  0.5667
10050TIP3    H151565   2.647   1.579  12.628  1.0258 -0.0617  1.3772
10050TIP3    H251566   2.543   1.563  12.737  1.0579  1.4558  1.6444
10051TIP3   OH251567   4.006   2.080   3.300 -0.4085  0.1129  0.4361
10051TIP3    H151568   3.932   2.134   3.327 -0.6932 -0.0333 -0.0594
10051TIP3    H251569   4.047   2.130   3.230 -1.3373 -0.8357 -0.8080
10052TIP3   OH251570   3.425   5.690   1.534 -1.0661 -0.1844 -0.0809
10052TIP3    H151571   3.431   5.781   1.505  0.2598 -0.4933 -0.8513
10052TIP3    H251572   3.491   5.644   1.483 -2.0905 -1.7032 -0.1208
10053TIP3   OH251573   6.184   1.535   6.023  0.7083  0.7301  0.1517
10053TIP3    H151574   6.207   1.484   5.946  0.1734 -0.4520  0.7509
10053TIP3    H251575   6.116   1.483   6.067  1.0696  1.3211  1.4684
10054TIP3   OH251576   0.226   1.761   5.623 -0.1042 -0.2232 -0.5448
10054TIP3    H151577   0.263   1.747   5.710  0.5900 -1.4891 -1.0152
10054TIP3    H251578   0.132   1.741   5.633  0.1254 -1.2310 -0.2591
10055TIP3   OH251579   4.799   4.448  13.785 -0.8145 -0.3544  0.5824
10055TIP3    H151580   4.717   4.411  13.819 -0.5517  0.1008  1.7590
10055TIP3    H251581   4.836   4.495  13.859  0.6921 -0.8378  0.1608
10056TIP3   OH251582   6.161   5.236  15.071  0.5404  0.1505 -0.1622
10056TIP3    H151583   6.193   5.258  14.984  0.5102  0.9211  0.0118
10056TIP3    H251584   6.221   5.281  15.131  1.1547 -1.1791  0.2460
10057TIP3   OH251585   6.328   5.593   5.671  0.0931 -0.2204  0.3225
10057TIP3    H151586   6.406   5.626   5.627  0.0702 -1.4217 -0.6582
10057TIP3    H251587   6.335   5.498   5.667 -1.9730 -0.3879 -0.8715
10058TIP3   OH251588   4.838   5.532  12.197  0.8855 -0.0187 -0.2385
10058TIP3    H151589   4.895   5.468  12.239  2.8126  1.7288 -0.0729
10058TIP3    H251590   4.750   5.508  12.227  1.5055 -2.5413 -0.1754
10059TIP3   OH251591   6.361   6.274  13.703  0.1346  0.1879  0.7122
10059TIP3    H151592   6.288   6.219  13.733 -0.3609  1.3892  1.8375
10059TIP3    H251593   6.319   6.357  13.679  1.0576  0.6635  0.7267
10060TIP3   OH251594   1.455   1.802  12.301 -0.1657  0.3040 -0.6600
10060TIP3    H151595   1.406   1.884  12.291  0.4676  0.6306 -1.0967
10060TIP3    H251596   1.391   1.734  12.278 -0.0029  0.7962 -2.8154
10061TIP3   OH251597   3.055   5.301   1.488 -0.3481 -0.0066 -0.0251
10061TIP3    H151598   3.088   5.295   1.578  2.5148  1.3127 -0.8729
10061TIP3    H251599   3.100   5.232   1.441 -2.6112 -1.3704 -0.3477
10062TIP3   OH251600   5.319   2.325  16.379  0.1225  0.3805 -0.6682
10062TIP3    H151601   5.257   2.251  16.379 -1.1593  1.3965 -2.0635
10062TIP3    H251602   5.400   2.288  16.415 -0.5298 -1.6578 -1.1504
10063TIP3   OH251603   4.734   4.692   2.793 -0.1092 -0.3413 -0.1206
10063TIP3    H151604   4.795   4.766   2.798 -1.2924  0.5767  1.9819
10063TIP3    H251605   4.767   4.639   2.721  2.5258  0.6747  0.2271
10064TIP3   OH251606   1.129   2.261   1.967 -0.1662  0.0167 -0.2153
10064TIP3    H151607   1.174   2.240   1.885 -0.2256  0.1196 -0.2734
10064TIP3    H251608   1.197   2.299   2.022 -0.3551  0.8789 -0.5735
10065TIP3   OH251609   2.247   0.831  17.214  0.1207  0.7336  0.1612
10065TIP3    H151610   2.291   0.766  17.269  0.8414 -1.1238 -2.4069
10065TIP3    H251611   2.318   0.884  17.179  0.0833 -0.2433 -1.5053
10066TIP3   OH251612   5.461   4.371   2.007  0.6654  0.0477  0.1200
10066TIP3    H151613   5.446   4.465   1.998 -3.4854 -0.2055  1.9392
10066TIP3    H251614   5.440   4.335   1.920 -1.4510  0.5860  0.3538
10067TIP3   OH251615   2.635   0.801  16.205  0.8377 -0.2136  0.1415
10067TIP3    H151616   2.643   0.709  16.182 -0.0452  0.1316 -1.6937
10067TIP3    H251617   2.573   0.802  16.278  1.0555 -1.0815  0.3481
10068TIP3   OH251618   5.216   3.277   6.510  0.4965 -0.1904 -0.0346
10068TIP3    H151619   5.302   3.300   6.476  0.6830  0.2608  0.7244
10068TIP3    H251620   5.226   3.187   6.541  0.8898  0.1026  0.6929
10069TIP3   OH251621   4.071   6.341  15.270  0.2107 -0.0769 -0.5672
10069TIP3    H151622   3.989   6.302  15.302  0.5730  0.0004  0.5060
10069TIP3    H251623   4.043   6.408  15.208 -0.5202 -0.4592 -0.6567
10070TIP3   OH251624   5.916   2.814  12.747 -0.4684  0.2900  0.0980
10070TIP3    H151625   5.863   2.781  12.675  0.0094  0.4239 -0.3281
10070TIP3    H251626   5.857   2.868  12.798 -0.2953  2.1760 -1.5429
10071TIP3   OH251627   6.768   0.202   1.291 -0.6763  0.0192 -0.5481
10071TIP3    H151628   6.815   0.194   1.208 -1.6708 -0.1665 -1.1066
10071TIP3    H251629   6.711   0.125   1.294 -1.4387  0.5858 -0.2053
10072TIP3   OH251630   4.842   4.847  15.056 -0.0873  0.6835 -0.4425
10072TIP3    H151631   4.904   4.827  14.986 -0.1620 -0.9073 -0.0893
10072TIP3    H251632   4.761   4.871  15.010 -0.1451 -0.3844 -0.9298
10073TIP3   OH251633   4.076   2.098  15.497  0.6561 -0.7124  0.2007
10073TIP3    H151634   4.084   2.181  15.450 -1.0545  0.4856  1.8978
10073TIP3    H251635   4.077   2.031  15.428 -0.8061  0.8829 -1.4779
10074TIP3   OH251636   3.228   3.801   5.803 -0.3250  0.2404  0.2741
10074TIP3    H151637   3.182   3.880   5.776 -0.6910 -0.6066 -1.7594
10074TIP3    H251638   3.302   3.833   5.856  0.6949  2.1372 -2.1023
10075TIP3   OH251639   5.672   4.958  16.431 -0.2588 -0.5039  0.2204
10075TIP3    H151640   5.648   5.028  16.491 -0.2779  0.4040 -0.8087
10075TIP3    H251641   5.601   4.894  16.439 -1.0740  0.3499  0.0129
10076TIP3   OH251642   1.854   1.088   1.448  0.4438  0.2880  0.4574
10076TIP3    H151643   1.892   1.102   1.361  0.9054 -1.7438  0.2580
10076TIP3    H251644   1.786   1.154   1.456  2.0811  2.1842 -0.3784
10077TIP3   OH251645   0.031   2.246  14.948 -0.9596  0.3146  0.0577
10077TIP3    H151646   0.034   2.222  15.040  0.3918  0.3466  0.0531
10077TIP3    H251647  -0.028   2.321  14.944 -0.5236  0.7202  1.0018
10078TIP3   OH251648   6.739   3.311  14.176 -0.0944  0.0656  0.0005
10078TIP3    H151649   6.663   3.368  14.188 -0.2516  0.4925 -2.5132
10078TIP3    H251650   6.735   3.284  14.085  2.1422 -0.8523  0.1062
10079TIP3   OH251651   0.516   0.501  15.732  0.3692 -0.0572 -0.0290
10079TIP3    H151652   0.453   0.429  15.736  1.1066 -0.7415 -0.4874
10079TIP3    H251653   0.559   0.491  15.647  0.5395  0.8793 -0.0683
10080TIP3   OH251654   1.811   3.920  11.278  0.0578  0.0099  0.1615
10080TIP3    H151655   1.844   3.872  11.202  1.0539  0.5995  0.1997
10080TIP3    H251656   1.874   3.899  11.348  0.3253  1.1013  0.2593
10081TIP3   OH251657   4.959   3.993  11.437  0.0940 -0.1850  0.2779
10081TIP3    H151658   4.963   4.065  11.374  0.7138  0.0889  0.6215
10081TIP3    H251659   5.040   3.944  11.423 -0.8682 -1.5354 -0.7817
10082TIP3   OH251660   1.620   4.567  12.312  0.5218  0.6884  0.0258
10082TIP3    H151661   1.688   4.558  12.379  1.0825 -1.0870 -0.7207
10082TIP3    H251662   1.654   4.632  12.252  2.1145 -0.9002 -0.8914
10083TIP3   OH251663   2.636   2.933  17.120  0.4491 -0.1208 -0.5088
10083TIP3    H151664   2.542   2.940  17.136  0.5711  1.1007 -0.2242
10083TIP3    H251665   2.677   2.968  17.200  1.0877  2.6671 -1.9164
10084TIP3   OH251666   6.179   3.270   3.129  0.5541  0.0839 -0.0724
10084TIP3    H151667   6.220   3.270   3.043  1.7636  1.3903  0.4587
10084TIP3    H251668   6.167   3.363   3.150 -2.1504 -0.2161  0.0843
10085TIP3   OH251669   3.971   1.847  13.195 -0.6924 -0.4978 -0.1513
10085TIP3    H151670   3.931   1.867  13.110 -0.3229 -3.1074 -1.0313
10085TIP3    H251671   4.062   1.875  13.186 -0.3332 -1.8538 -1.1319
10086TIP3   OH251672   3.867   1.553  17.088 -0.0791 -0.2156 -0.0341
10086TIP3    H151673   3.837   1.462  17.086  0.4081 -0.4535  1.8338
10086TIP3    H251674   3.962   1.547  17.076 -0.1765  0.1592 -1.1064
10087TIP3   OH251675   4.110   5.499   3.628  0.1546 -0.2038 -0.4075
10087TIP3    H151676   4.073   5.586   3.612  1.3112  0.6263  1.2077
10087TIP3    H251677   4.094   5.452   3.546 -1.0791  1.3002 -1.1014
10088TIP3   OH251678   5.910   0.476  15.411  0.4232  0.0795 -0.0033
10088TIP3    H151679   5.842   0.540  15.432  0.3798  0.2405 -0.6084
10088TIP3    H251680   5.984   0.501  15.466 -0.0464 -0.1761  0.7530
10089TIP3   OH251681   6.741   1.820   0.779  0.3594  0.2959  0.3652
10089TIP3    H151682   6.723   1.765   0.855 -0.8405 -1.8212 -1.3285
10089TIP3    H251683   6.711   1.907   0.805  0.1180 -0.3355  2.3490
10090TIP3   OH251684   0.004   6.330   4.301  0.4813 -0.2279 -0.1543
10090TIP3    H151685  -0.040   6.291   4.226  0.8934 -1.2668  0.1262
10090TIP3    H251686   0.067   6.264   4.329 -0.5269 -0.4049  1.8969
10091TIP3   OH251687   0.871   6.005   1.050 -0.3728 -0.3233 -0.0716
10091TIP3    H151688   0.895   6.042   0.965  1.2147  1.0659  0.9156
10091TIP3    H251689   0.835   6.078   1.099  0.4370 -0.6451  1.0474
10092TIP3   OH251690   4.638   5.252  12.369 -0.2982  0.3421 -0.3765
10092TIP3    H151691   4.594   5.272  12.286  0.0689  0.2652 -0.5936
10092TIP3    H251692   4.603   5.166  12.393 -0.9915  0.7068 -0.0453
10093TIP3   OH251693   3.882   2.028  15.111  0.0362  0.5214  0.7109
10093TIP3    H151694   3.902   2.089  15.040  2.6646 -0.7597  0.2012
10093TIP3    H251695   3.867   1.944  15.067  1.2514 -0.1969  1.5904
10094TIP3   OH251696   4.326   2.487  16.410  0.7003  0.0000 -0.4861
10094TIP3    H151697   4.275   2.556  16.453  1.1700 -0.1941  0.4205
10094TIP3    H251698   4.390   2.534  16.358 -0.8636  0.2626 -2.2796
10095TIP3   OH251699   5.866   2.497  15.832  0.7208  0.3846 -0.6440
10095TIP3    H151700   5.951   2.463  15.861  1.1993 -0.4335 -2.8593
10095TIP3    H251701   5.829   2.427  15.778 -1.8912  0.2673  1.0669
10096TIP3   OH251702   2.223   0.589   4.379 -0.1254  0.2397  0.0600
10096TIP3    H151703   2.310   0.630   4.379 -0.3300  0.6795  0.1990
10096TIP3    H251704   2.198   0.586   4.287 -0.9185  2.1864  0.1677
10097TIP3   OH251705   5.755   2.694   1.967 -0.1585 -0.2763 -0.5195
10097TIP3    H151706   5.771   2.619   1.910 -0.3324  0.5366 -1.6652
10097TIP3    H251707   5.705   2.755   1.913 -1.3089  0.0546  0.8548
10098TIP3   OH251708   4.059   0.752   3.443  0.0858  0.2229 -0.5070
10098TIP3    H151709   4.004   0.825   3.469 -0.3549 -0.6215  1.0452
10098TIP3    H251710   3.999   0.678   3.437  1.0575 -0.8523  1.7971
10099TIP3   OH251711   1.691   4.166   1.050  0.4901  0.0772 -0.1559
10099TIP3    H151712   1.664   4.246   1.006  2.8860 -0.1804 -2.4045
10099TIP3    H251713   1.611   4.116   1.062 -0.7581  1.8563 -0.7368
10100TIP3   OH251714   3.917   0.467   0.918 -0.1385 -0.0820  0.0863
10100TIP3    H151715   3.833   0.427   0.895 -1.1378  2.6515 -1.4401
10100TIP3    H251716   3.978   0.434   0.852 -0.4210 -0.7201  0.1349
10101TIP3   OH251717   1.626   5.746   4.098 -0.7067  0.0122 -0.2816
10101TIP3    H151718   1.618   5.828   4.049 -0.1819 -0.2063 -0.7484
10101TIP3    H251719   1.703   5.759   4.154  1.0482 -1.1047 -2.3031
10102TIP3   OH251720   5.213   5.668  14.886  0.2176 -0.3340  0.1728
10102TIP3    H151721   5.162   5.744  14.856 -1.8635 -0.6375  2.5685
10102TIP3    H251722   5.196   5.600  14.821 -1.0011  0.1334 -0.0207
10103TIP3   OH251723   3.312   3.888  12.997  0.3541  0.3010  0.2955
10103TIP3    H151724   3.375   3.873  12.927  1.0428 -0.0185  0.9572
10103TIP3    H251725   3.332   3.820  13.062  0.2800  1.0625  1.1526
10104TIP3   OH251726   6.103   4.110  14.123 -0.3354 -0.0392  0.1523
10104TIP3    H151727   6.070   4.106  14.213 -0.5663  1.6616  0.1786
10104TIP3    H251728   6.196   4.088  14.131 -0.9262 -2.9432  0.3366
10105TIP3   OH251729   1.669   1.690   0.942  0.3617  0.4911  0.6971
10105TIP3    H151730   1.657   1.766   0.999 -0.8140  1.6031 -0.9614
10105TIP3    H251731   1.702   1.726   0.860 -0.9302 -0.6829 -0.3825
10106TIP3   OH251732   1.875   0.706   0.145  0.2792  0.3291  0.5535
10106TIP3    H151733   1.844   0.624   0.182  1.1882  0.8400  2.5935
10106TIP3    H251734   1.971   0.699   0.148  0.4268  0.5055 -1.6038
10107TIP3   OH251735   1.041   0.343  11.649 -0.2805 -0.1043 -0.5232
10107TIP3    H151736   1.023   0.343  11.555 -2.7524  0.9353 -0.1173
10107TIP3    H251737   1.042   0.251  11.673 -1.7174 -0.3244 -1.2376
10108TIP3   OH251738   5.939   4.716   2.662 -0.1686 -0.1363 -0.4767
10108TIP3    H151739   5.969   4.792   2.711  0.5982 -1.4601  1.2071
10108TIP3    H251740   5.854   4.695   2.699 -1.3762  1.0772 -2.3724
10109TIP3   OH251741   6.473   6.229  12.243  0.0779 -0.4985  0.8686
10109TIP3    H151742   6.416   6.178  12.185  0.7744  0.9843 -1.2822
10109TIP3    H251743   6.422   6.308  12.262  0.8311  0.2198  0.0351
10110TIP3   OH251744   2.259   5.664   2.929 -0.3764  0.2568 -0.7901
10110TIP3    H151745   2.212   5.584   2.905 -0.4022 -0.1622  0.5729
10110TIP3    H251746   2.190   5.730   2.941 -0.4594  0.1526 -0.6922
10111TIP3   OH251747   0.457   2.019  13.803 -0.0373  0.1388 -0.0714
10111TIP3    H151748   0.432   1.936  13.844  1.2845 -0.3630 -0.2439
10111TIP3    H251749   0.400   2.084  13.845  0.4875 -0.5217  1.7380
10112TIP3   OH251750   2.052   0.696   3.771  0.1931 -0.2065 -0.0594
10112TIP3    H151751   2.087   0.607   3.767  0.1510 -0.1842 -0.9820
10112TIP3    H251752   1.976   0.695   3.713  0.5491  0.5891 -0.5565
10113TIP3   OH251753   0.925   0.882  15.901 -0.3552 -0.2113 -0.2377
10113TIP3    H151754   0.933   0.974  15.876 -2.0208  0.1348  0.4192
10113TIP3    H251755   0.898   0.838  15.820 -2.1278  0.3281  0.0116
10114TIP3   OH251756   5.637   3.474   2.314 -0.0074 -0.3052  0.5431
10114TIP3    H151757   5.609   3.426   2.236  4.7088 -1.2927 -0.9168
10114TIP3    H251758   5.636   3.566   2.286  1.3719 -0.6268 -0.7706
10115TIP3   OH251759   6.243   5.790   1.730 -0.0144  0.0056 -0.4406
10115TIP3    H151760   6.197   5.706   1.739  0.7365 -0.6115 -1.9709
10115TIP3    H251761   6.212   5.824   1.646  0.4296  0.8036 -0.2865
10116TIP3   OH251762   2.631   6.203   0.098 -0.5619 -0.1581 -0.3645
10116TIP3    H151763   2.590   6.213   0.184  2.2144  0.0503  1.0379
10116TIP3    H251764   2.580   6.260   0.040 -2.6404 -0.4850  1.0407
10117TIP3   OH251765   0.748   1.219  16.215  0.1284 -0.2964 -0.1000
10117TIP3    H151766   0.805   1.153  16.177  1.1926  0.6639 -0.2012
10117TIP3    H251767   0.807   1.290  16.243 -1.0959  1.3406 -1.4526
10118TIP3   OH251768   2.192   5.424   2.600 -0.1294 -0.2051 -0.0530
10118TIP3    H151769   2.243   5.497   2.633  0.6657 -0.8881  0.2602
10118TIP3    H251770   2.247   5.385   2.532 -0.1280 -1.0910  0.4458
10119TIP3   OH251771   2.617   1.759   5.250 -0.6996  0.0283  0.1001
10119TIP3    H151772   2.569   1.815   5.312 -0.3320  0.5543 -0.0849
10119TIP3    H251773   2.602   1.800   5.165  0.8506  0.7498  0.1489
10120TIP3   OH251774   1.289   4.498  10.961 -0.4702  0.0560  0.5240
10120TIP3    H151775   1.196   4.492  10.939 -0.8269 -0.1649  1.9900
10120TIP3    H251776   1.299   4.587  10.996  0.1682  0.5420 -0.8299
10121TIP3   OH251777   1.647   0.665  15.286 -0.2613 -0.4792 -0.0390
10121TIP3    H151778   1.735   0.703  15.295 -0.1123 -0.6336 -0.8021
10121TIP3    H251779   1.618   0.692  15.198 -0.4521 -1.5133 -0.3017
10122TIP3   OH251780   1.600   0.122  11.627  0.4424 -0.5006  0.4265
10122TIP3    H151781   1.680   0.072  11.642  0.1505 -0.7297  1.3186
10122TIP3    H251782   1.628   0.213  11.626  1.0642 -0.6608 -1.7728
10123TIP3   OH251783   1.798   2.691  12.439  0.2538  0.3553 -0.2675
10123TIP3    H151784   1.776   2.603  12.410 -0.1132  0.5779 -0.6703
10123TIP3    H251785   1.713   2.733  12.456  0.4254  0.6295 -0.0731
10124TIP3   OH251786   0.734   3.039  13.888 -0.2261  0.1856 -0.0998
10124TIP3    H151787   0.814   3.092  13.895 -0.4972  0.5736  0.1121
10124TIP3    H251788   0.730   3.013  13.796  1.6281 -2.1835  0.3760
10125TIP3   OH251789   0.237   0.549   4.334  0.2245 -0.1567  0.6374
10125TIP3    H151790   0.243   0.478   4.397 -1.1896 -1.0010 -0.1163
10125TIP3    H251791   0.320   0.547   4.287 -0.4353 -2.5959 -0.6325
10126TIP3   OH251792   3.311   6.434   4.218  0.4730  0.0973  0.1835
10126TIP3    H151793   3.392   6.473   4.185  0.2725  0.7337  0.4373
10126TIP3    H251794   3.294   6.361   4.158  0.7759  0.4783 -0.3824
10127TIP3   OH251795   1.299   6.053  12.103  0.8845 -0.0147 -0.1704
10127TIP3    H151796   1.347   6.070  12.021 -0.7539 -1.1803 -1.4326
10127TIP3    H251797   1.267   6.139  12.131  0.7059  0.2858 -1.2536
10128TIP3   OH251798   4.541   0.696  16.999  0.2381  0.2598  0.0467
10128TIP3    H151799   4.542   0.617  16.945  0.4738 -0.0808  0.5452
10128TIP3    H251800   4.537   0.768  16.936  0.9870 -0.1206 -0.4439
10129TIP3   OH251801   1.087   1.369   2.551  0.0771  0.3105 -0.0506
10129TIP3    H151802   1.145   1.405   2.618  1.8719 -0.6843 -1.0018
10129TIP3    H251803   1.125   1.397   2.468 -1.8506  1.1371 -0.7005
10130TIP3   OH251804   5.137   1.492   1.609  0.1826  0.8586 -0.0608
10130TIP3    H151805   5.054   1.445   1.624 -0.3854  1.4653 -1.1604
10130TIP3    H251806   5.205   1.427   1.626 -0.5126  0.3733  0.9724
10131TIP3   OH251807   2.297   6.682   3.317  0.1435 -0.4035  0.7452
10131TIP3    H151808   2.371   6.701   3.375  0.7468  0.7719 -0.3688
10131TIP3    H251809   2.335   6.673   3.230 -0.7777 -1.8945  0.4632
10132TIP3   OH251810   1.688   1.961  12.888 -0.3064 -0.2499 -0.0968
10132TIP3    H151811   1.767   1.913  12.862 -1.0051 -1.4575 -0.0761
10132TIP3    H251812   1.712   2.003  12.970  0.3696 -0.4704 -0.1701
10133TIP3   OH251813   4.987   2.482  17.159  0.5667 -0.3310 -0.2846
10133TIP3    H151814   4.965   2.573  17.179 -1.9245 -1.0180  0.4310
10133TIP3    H251815   5.031   2.450  17.238 -2.3240 -0.8306  1.2992
10134TIP3   OH251816   3.664   1.465  12.844 -0.8289 -0.1939 -0.0443
10134TIP3    H151817   3.585   1.444  12.894 -0.7872 -1.9546 -0.6441
10134TIP3    H251818   3.632   1.476  12.754 -0.7293  1.6913  0.1282
10135TIP3   OH251819   5.614   5.611  16.314  0.3013  0.0407 -0.0075
10135TIP3    H151820   5.697   5.564  16.320 -0.5344 -1.7428 -1.3650
10135TIP3    H251821   5.569   5.570  16.239 -2.0777  0.4861  1.0938
10136TIP3   OH251822   2.459   0.090  15.962  0.2876  0.6137 -0.3368
10136TIP3    H151823   2.491   0.111  16.050 -0.3883 -0.4247  0.1801
10136TIP3    H251824   2.535   0.053  15.917  0.2507 -0.3845  0.3742
10137TIP3   OH251825   4.571   6.606  13.847  0.2981  0.0316  0.1596
10137TIP3    H151826   4.576   6.521  13.890 -1.5090 -0.3175 -0.2316
10137TIP3    H251827   4.531   6.588  13.762  0.2453  1.2048 -0.0892
10138TIP3   OH251828   0.928   4.981   1.086  0.3458 -0.5683 -0.3900
10138TIP3    H151829   0.902   5.013   1.172 -0.7555  1.4405 -1.3951
10138TIP3    H251830   0.986   4.907   1.104  0.8181  0.3188  2.0649
10139TIP3   OH251831   1.572   2.361   0.345 -0.0780 -0.5175  0.4346
10139TIP3    H151832   1.477   2.361   0.331 -0.1464  0.1146  0.8134
10139TIP3    H251833   1.584   2.312   0.426 -0.5341  2.7862  2.7361
10140TIP3   OH251834   0.990   5.483  16.063 -0.7476 -0.3415  0.5650
10140TIP3    H151835   0.901   5.470  16.097 -0.2091  1.4145  2.9467
10140TIP3    H251836   1.014   5.571  16.092  1.3290 -0.2725 -1.1202
10141TIP3   OH251837   2.811   3.084   6.367  0.4377 -0.5789  0.2441
10141TIP3    H151838   2.807   3.178   6.350  0.3210 -0.9047 -1.8237
10141TIP3    H251839   2.719   3.056   6.366  0.5579 -0.9914 -1.1268
10142TIP3   OH251840   6.456   1.365  13.026 -0.8047  0.2977 -0.6435
10142TIP3    H151841   6.529   1.427  13.030  0.0623 -0.7107 -0.4387
10142TIP3    H251842   6.401   1.398  12.955 -0.3191  1.2462 -0.5987
10143TIP3   OH251843   4.643   0.097  13.453  0.3379 -0.2908 -0.3492
10143TIP3    H151844   4.616   0.087  13.544  2.9905  2.0550  0.8339
10143TIP3    H251845   4.589   0.168  13.420  1.3804  0.8714  0.3776
10144TIP3   OH251846   0.654   0.011  16.648  0.7383  0.1714  0.3022
10144TIP3    H151847   0.563   0.016  16.619  0.9060  1.2530 -0.0932
10144TIP3    H251848   0.660   0.074  16.720  0.9563 -0.5934  0.9749
10145TIP3   OH251849   1.078   2.946  12.657  0.0240 -0.9423  0.4798
10145TIP3    H151850   1.092   3.007  12.730 -1.6517 -2.4148  2.1391
10145TIP3    H251851   1.094   2.999  12.579 -2.0585  1.9360  1.7733
10146TIP3   OH251852   5.961   2.847  10.851 -0.2300  0.2497  0.7177
10146TIP3    H151853   5.991   2.791  10.780  0.3566  3.7878 -2.1258
10146TIP3    H251854   5.878   2.808  10.879 -0.4584 -1.3714 -1.8764
10147TIP3   OH251855   5.270   6.668   6.539 -0.2102 -0.1104 -0.2491
10147TIP3    H151856   5.329   6.617   6.594 -1.0825  1.5449  2.3933
10147TIP3    H251857   5.314   6.753   6.530 -0.0856 -0.3396 -2.2056
10148TIP3   OH251858   6.755   6.154   1.103  0.2297 -0.0120 -0.0692
10148TIP3    H151859   6.703   6.120   1.176  1.6423  0.9475  1.4560
10148TIP3    H251860   6.790   6.075   1.060 -0.8391 -0.5998  0.0958
10149TIP3   OH251861   1.939   6.211  12.781 -0.4628 -0.2967 -0.2128
10149TIP3    H151862   1.854   6.256  12.779 -0.0273  0.5489 -2.2210
10149TIP3    H251863   1.916   6.118  12.792 -1.7304 -0.1828 -1.5728
10150TIP3   OH251864   2.105   3.475  15.402  0.4372 -0.0303  0.3612
10150TIP3    H151865   2.125   3.516  15.318  2.2653  2.7921  2.0183
10150TIP3    H251866   2.014   3.498  15.419  0.3845  0.3069 -0.3396
10151TIP3   OH251867   5.199   3.399  12.094 -0.4106 -0.2875 -0.1855
10151TIP3    H151868   5.259   3.367  12.027  0.6078 -1.5769  1.2617
10151TIP3    H251869   5.204   3.494  12.089 -0.1796 -0.3651 -1.7395
10152TIP3   OH251870   2.735   6.740   2.434  0.3682 -0.1326 -0.1882
10152TIP3    H151871   2.824   6.771   2.419  0.1915  0.3001 -0.3535
10152TIP3    H251872   2.696   6.733   2.347  0.1084  0.0955 -0.0953
10153TIP3   OH251873   2.471   3.759  12.495 -0.1034  0.3779  0.0293
10153TIP3    H151874   2.493   3.842  12.537 -1.0448  1.3007 -1.2357
10153TIP3    H251875   2.375   3.756  12.496 -0.0895 -1.0203  0.6295
10154TIP3   OH251876   4.015   0.071   0.157  0.2063 -0.7776  0.3481
10154TIP3    H151877   3.965   0.017   0.218 -0.7562 -1.0083 -0.6023
10154TIP3    H251878   3.965   0.067   0.075  1.3681 -0.3552 -0.4148
10155TIP3   OH251879   3.248   2.635  15.251 -0.3360  0.1706 -0.0094
10155TIP3    H151880   3.327   2.596  15.213  0.3318  1.7331 -0.3208
10155TIP3    H251881   3.281   2.693  15.320 -1.2893  0.1621  0.4743
10156TIP3   OH251882   1.632   0.478   2.229  0.2816 -0.1421  0.3582
10156TIP3    H151883   1.579   0.417   2.281  0.5198  1.1434  2.1776
10156TIP3    H251884   1.722   0.454   2.248  0.3987  1.2450  1.7608
10157TIP3   OH251885   1.849   0.728   2.170 -0.1627 -0.0006 -0.0277
10157TIP3    H151886   1.919   0.689   2.117  1.8312  0.0314  2.3547
10157TIP3    H251887   1.896   0.778   2.237 -2.5137  0.3109  1.4858
10158TIP3   OH251888   3.998   1.287  14.749  0.5457 -0.5892  0.3594
10158TIP3    H151889   4.029   1.199  14.768 -0.1260 -0.4790  2.1837
10158TIP3    H251890   3.907   1.287  14.779  0.8744  1.0345  1.4599
10159TIP3   OH251891   0.254   4.896  15.538 -0.5632  0.5162  0.4731
10159TIP3    H151892   0.286   4.957  15.472  0.5906  1.3317  1.7326
10159TIP3    H251893   0.271   4.939  15.622 -0.0099 -1.3528  1.4013
10160TIP3   OH251894   4.218   3.880   2.088  0.1417 -0.2714  0.3151
10160TIP3    H151895   4.312   3.899   2.084  0.6231 -2.4233  0.2975
10160TIP3    H251896   4.212   3.798   2.137 -1.6669 -0.5843 -0.3640
10161TIP3   OH251897   6.085   3.499  13.304 -0.0004  0.2911  0.2483
10161TIP3    H151898   6.008   3.450  13.277 -0.8211  1.0841  1.0964
10161TIP3    H251899   6.109   3.552  13.228  0.4330 -0.7993 -0.4131
10162TIP3   OH251900   4.982   3.073  15.239  0.0739 -0.1728 -0.0924
10162TIP3    H151901   4.898   3.094  15.198 -0.6074 -2.7255 -0.1838
10162TIP3    H251902   4.958   3.019  15.315  1.5844  0.1242  0.6321
10163TIP3   OH251903   4.739   0.137   0.162 -0.5895 -0.0080  0.0150
10163TIP3    H151904   4.663   0.082   0.181  0.8118 -2.9345 -2.0085
10163TIP3    H251905   4.709   0.199   0.097 -1.3765 -0.8718 -0.4634
10164TIP3   OH251906   0.727   0.009  15.084  0.3560  0.6249  0.2160
10164TIP3    H151907   0.686  -0.073  15.110  0.4440  1.2267  2.5139
10164TIP3    H251908   0.799  -0.016  15.026 -0.2034 -0.8179  0.1226
10165TIP3   OH251909   0.955   3.812  13.091  0.7636 -0.4605 -0.0693
10165TIP3    H151910   1.019   3.860  13.145  1.0109 -0.2076 -0.5794
10165TIP3    H251911   1.004   3.737  13.057  0.6805 -0.4784 -0.1489
10166TIP3   OH251912   5.254   2.732   2.137 -0.9473 -0.2058  0.1403
10166TIP3    H151913   5.203   2.755   2.059 -0.3216 -0.0873 -0.2437
10166TIP3    H251914   5.189   2.714   2.204 -1.4915  0.9179 -0.0633
10167TIP3   OH251915   4.768   6.096   2.053 -0.1641 -0.6486  0.3000
10167TIP3    H151916   4.833   6.115   2.121 -0.1576  0.3068  0.0321
10167TIP3    H251917   4.724   6.179   2.037 -1.5369 -1.2963  0.5407
10168TIP3   OH251918   3.959   2.861  13.293 -0.8891  0.5805 -0.3965
10168TIP3    H151919   3.972   2.955  13.307 -4.1019  1.3466 -1.6999
10168TIP3    H251920   4.012   2.842  13.215 -3.0822  2.3253 -2.4897
10169TIP3   OH251921   2.253   2.532  16.111  0.4383  0.5213 -0.6307
10169TIP3    H151922   2.312   2.606  16.126  2.6411 -0.6239 -2.9152
10169TIP3    H251923   2.227   2.541  16.020  0.0755 -1.0605 -0.7054
10170TIP3   OH251924   4.428   3.171   2.074 -0.0677  0.2940 -0.8031
10170TIP3    H151925   4.348   3.220   2.055 -0.6527 -0.6420 -0.8002
10170TIP3    H251926   4.421   3.148   2.167  1.4145  2.3592 -0.1085
10171TIP3   OH251927   4.194   0.681  10.672  0.3778  0.0546 -0.8062
10171TIP3    H151928   4.223   0.687  10.763  1.1225  0.7973 -1.0719
10171TIP3    H251929   4.153   0.595  10.664  0.7104 -0.1913  0.1115
10172TIP3   OH251930   1.757   1.387   1.460  0.6244 -0.4020  0.0918
10172TIP3    H151931   1.745   1.432   1.377  0.8157 -0.8990 -0.2059
10172TIP3    H251932   1.827   1.435   1.504 -0.8886  1.1863  0.9044
10173TIP3   OH251933   0.252   3.001  11.320  0.5560 -0.0978  0.0185
10173TIP3    H151934   0.234   2.918  11.276  1.1003  0.2920 -0.9967
10173TIP3    H251935   0.343   2.995  11.347  0.2276 -0.3248  1.0998
10174TIP3   OH251936   3.277   1.302   1.264 -0.1464  0.3864  0.2793
10174TIP3    H151937   3.281   1.223   1.211 -0.2491  0.4009  0.2484
10174TIP3    H251938   3.367   1.319   1.290 -0.2744 -0.4564  1.3453
10175TIP3   OH251939   5.256   0.085   5.244  0.0842 -0.2423  0.2152
10175TIP3    H151940   5.239  -0.009   5.236  0.8723 -0.4385  0.7470
10175TIP3    H251941   5.257   0.101   5.338 -1.7537  0.6376  0.1376
10176TIP3   OH251942   3.629   5.392   4.930 -0.0193 -0.4297 -0.0163
10176TIP3    H151943   3.635   5.487   4.922  0.9368 -0.6368 -2.7949
10176TIP3    H251944   3.671   5.372   5.014  0.1727  1.5387  0.3985
10177TIP3   OH251945   2.436   0.388   5.041 -0.1600  0.8799  0.1773
10177TIP3    H151946   2.385   0.417   5.117  0.7218  1.0129  0.7392
10177TIP3    H251947   2.371   0.359   4.977 -0.9391  1.3715  0.7402
10178TIP3   OH251948   5.614   4.308  12.272 -0.2317 -0.1285 -0.0126
10178TIP3    H151949   5.635   4.217  12.292  1.9551  0.3267 -0.0059
10178TIP3    H251950   5.580   4.343  12.354 -0.4451 -0.7584  0.1767
10179TIP3   OH251951   1.878   1.241  16.131 -0.5675 -0.3193 -0.5531
10179TIP3    H151952   1.810   1.176  16.152 -1.0698  0.7781  1.4299
10179TIP3    H251953   1.885   1.294  16.210  1.2576  0.8055 -1.4258
10180TIP3   OH251954   4.591   6.031   0.942 -0.1203  0.4063 -0.6632
10180TIP3    H151955   4.499   6.054   0.957  0.3770  1.8993  0.3298
10180TIP3    H251956   4.608   6.058   0.852 -0.5006  0.6746 -0.6577
10181TIP3   OH251957   0.717   4.375   5.722  0.1761  0.0485  0.4892
10181TIP3    H151958   0.632   4.360   5.680  0.6829 -0.1889 -0.4871
10181TIP3    H251959   0.700   4.363   5.815 -1.3191  2.1268  0.5364
10182TIP3   OH251960   1.296   4.287  10.734 -0.3006  0.3758  0.1175
10182TIP3    H151961   1.268   4.358  10.791 -1.0607  1.2525 -1.3022
10182TIP3    H251962   1.330   4.220  10.794 -0.4819  1.5137  1.5371
10183TIP3   OH251963   1.022   0.318   5.662  0.0454 -0.5182  0.3643
10183TIP3    H151964   1.026   0.231   5.701 -0.4499 -0.1192  1.3303
10183TIP3    H251965   1.110   0.354   5.676  0.3442 -0.9532 -0.3014
10184TIP3   OH251966   4.177   6.577   2.028  0.8384  0.2983  0.0890
10184TIP3    H151967   4.088   6.544   2.017  0.4851  1.6250 -1.3398
10184TIP3    H251968   4.201   6.552   2.118 -0.3598 -1.4463 -0.0440
10185TIP3   OH251969   3.485   1.045  16.171 -0.2585  0.0405 -0.3960
10185TIP3    H151970   3.457   1.113  16.110 -0.8414 -1.7662 -2.2745
10185TIP3    H251971   3.412   0.982  16.172 -1.0675  0.7451  3.5652
10186TIP3   OH251972   4.097   0.347   1.596 -0.7328 -0.2997 -0.2294
10186TIP3    H151973   4.175   0.354   1.540 -0.7663 -0.0603 -0.2496
10186TIP3    H251974   4.060   0.436   1.595 -0.6237 -0.2468  0.3340
10187TIP3   OH251975   0.739   0.283  12.500 -0.5277  0.0237 -0.2032
10187TIP3    H151976   0.680   0.348  12.538  0.3489  0.4528  0.4513
10187TIP3    H251977   0.733   0.208  12.558  0.7384  0.6439  0.7662
10188TIP3   OH251978   4.034   0.328  15.463  0.3453 -0.3146 -0.3041
10188TIP3    H151979   4.060   0.414  15.497  0.3733  0.2191 -1.5818
10188TIP3    H251980   3.946   0.342  15.427  0.7275 -0.5426 -1.3925
10189TIP3   OH251981   5.845   4.615   1.066 -0.2364  0.8792 -0.3526
10189TIP3    H151982   5.820   4.531   1.104 -0.2891  0.1132 -1.9880
10189TIP3    H251983   5.791   4.622   0.987  0.6302  1.8921 -0.8812
10190TIP3   OH251984   5.798   6.166   5.351  0.1393 -0.0894  0.0152
10190TIP3    H151985   5.784   6.248   5.399 -2.2855  0.0951 -0.8555
10190TIP3    H251986   5.847   6.193   5.273  1.3016  0.1426  0.8133
10191TIP3   OH251987   3.847   4.312  15.294  0.1624 -0.2515 -0.2296
10191TIP3    H151988   3.893   4.230  15.309  1.3941  0.2790 -0.9588
10191TIP3    H251989   3.850   4.325  15.199 -0.9850  0.1109 -0.2412
10192TIP3   OH251990   1.905   1.679  16.551  0.4119 -0.0510 -0.1820
10192TIP3    H151991   1.996   1.688  16.523  0.7396  1.7734  1.3064
10192TIP3    H251992   1.858   1.750  16.506 -0.6138 -1.7476 -1.9653
10193TIP3   OH251993   4.536   0.704  15.971 -0.7462  0.0375  0.6225
10193TIP3    H151994   4.495   0.617  15.963 -1.6950  0.5041  0.2318
10193TIP3    H251995   4.630   0.687  15.961 -1.0226 -0.7725 -1.0473
10194TIP3   OH251996   4.140   2.230  13.672 -0.0446 -0.1295  0.0259
10194TIP3    H151997   4.126   2.288  13.747 -0.6339  0.9433 -0.8784
10194TIP3    H251998   4.058   2.182  13.662  0.7671 -1.9190  1.3768
10195TIP3   OH251999   3.363   1.962   3.801 -0.2526 -0.5307  0.0685
10195TIP3    H152000   3.439   1.948   3.857  0.1092  0.1331 -0.2505
10195TIP3    H252001   3.396   2.012   3.727 -1.1982  0.7734  0.4744
10196TIP3   OH252002   5.529   3.739  14.679 -0.6755  0.5650 -0.0309
10196TIP3    H152003   5.530   3.651  14.642 -0.0207  0.5486  0.0260
10196TIP3    H252004   5.450   3.741  14.733  0.1577 -0.5312  1.2852
10197TIP3   OH252005   4.278   6.401  12.719 -0.6674  0.2668  0.1795
10197TIP3    H152006   4.214   6.467  12.744  0.4462  0.5515  2.5017
10197TIP3    H252007   4.273   6.335  12.788  0.4706 -0.4840 -0.4209
10198TIP3   OH252008   3.179   0.297  11.371 -0.1111  0.0972  0.0085
10198TIP3    H152009   3.147   0.212  11.340 -0.4475  0.0937  0.3619
10198TIP3    H252010   3.101   0.350  11.381  0.1526  0.6861 -0.8778
10199TIP3   OH252011   6.138   1.702  12.922  0.0183  0.3501  0.1782
10199TIP3    H152012   6.192   1.778  12.945  1.8354 -0.9605  0.5026
10199TIP3    H252013   6.153   1.640  12.993 -2.3882  0.1047  0.5393
10200TIP3   OH252014   5.887   6.021  13.633  0.1751  0.8932 -0.1805
10200TIP3    H152015   5.816   5.958  13.646  0.9792  0.0857  0.4479
10200TIP3    H252016   5.919   6.003  13.544 -0.0676  0.9132 -0.2727
10201TIP3   OH252017   2.536   2.379   5.243  0.2007  0.3491 -0.1552
10201TIP3    H152018   2.522   2.285   5.248 -1.0559  0.5251  0.0918
10201TIP3    H252019   2.460   2.417   5.288  0.0559  1.4954 -1.3096
10202TIP3   OH252020   4.264   2.755  13.301  0.8003  0.3443  0.1383
10202TIP3    H152021   4.313   2.810  13.362  0.3778  0.3689  0.4595
10202TIP3    H252022   4.328   2.691  13.270  0.7776 -0.3197  1.3932
10203TIP3   OH252023   0.654   5.352  15.914 -0.3797  0.0743  0.1069
10203TIP3    H152024   0.672   5.420  15.979  2.3446  0.0943 -0.5699
10203TIP3    H252025   0.676   5.270  15.958 -0.5948 -0.1093 -0.1216
10204TIP3   OH252026   2.622   3.105  10.902  0.1304  0.4310  0.0782
10204TIP3    H152027   2.540   3.068  10.870  1.6015 -1.0248 -2.4079
10204TIP3    H252028   2.667   3.031  10.943 -0.6950  1.7512  3.7212
10205TIP3   OH252029   3.128   1.728   1.570 -0.2462  0.2287  0.6145
10205TIP3    H152030   3.033   1.729   1.561 -0.2163 -1.3543 -0.1436
10205TIP3    H252031   3.160   1.693   1.487  0.9722  0.2123  1.0718
10206TIP3   OH252032   1.198   2.649   4.081  0.6402  0.1844  0.5611
10206TIP3    H152033   1.229   2.575   4.029 -0.5374  0.3653 -0.4431
10206TIP3    H252034   1.133   2.611   4.141  0.6551  0.2638  0.6277
10207TIP3   OH252035   0.400   1.077  13.503  0.4417 -0.1180 -0.2797
10207TIP3    H152036   0.473   1.017  13.488  0.6082  0.0712 -0.2401
10207TIP3    H252037   0.419   1.116  13.589  0.4608  0.1671 -0.4117
10208TIP3   OH252038   0.951   0.757  13.069  0.4184 -0.2403  0.4823
10208TIP3    H152039   0.905   0.833  13.105 -0.4974 -1.3754  1.7939
10208TIP3    H252040   1.029   0.748  13.124  0.0662 -0.7718  0.8989
10209TIP3   OH252041   1.863   3.995   3.431  0.2078 -0.2233 -0.2180
10209TIP3    H152042   1.939   4.042   3.398 -0.1976  0.2170 -0.5291
10209TIP3    H252043   1.839   3.935   3.360 -0.1534  0.1281 -0.3936
10210TIP3   OH252044   1.501   3.195   1.540 -0.6374  0.0221 -0.0587
10210TIP3    H152045   1.578   3.189   1.482 -0.8990 -0.5125 -0.3517
10210TIP3    H252046   1.476   3.105   1.557 -2.3233  0.1656 -1.4750
10211TIP3   OH252047   2.853   5.062  14.187 -0.3500  0.0774  0.6222
10211TIP3    H152048   2.910   5.136  14.208  0.9656 -0.9316  0.7554
10211TIP3    H252049   2.835   5.071  14.094  1.3837 -0.4516  0.1988
10212TIP3   OH252050   1.845   1.258   4.454 -0.0285  0.2392  0.1209
10212TIP3    H152051   1.821   1.260   4.547 -0.2882 -1.4009  0.1233
10212TIP3    H252052   1.908   1.186   4.447 -0.8347 -0.3808 -1.1320
10213TIP3   OH252053   1.718   4.399  12.716 -0.2483  0.5769  0.2248
10213TIP3    H152054   1.634   4.424  12.755 -0.4975 -2.4754  1.9936
10213TIP3    H252055   1.784   4.432  12.777 -0.4850 -1.3357  1.5945
10214TIP3   OH252056   2.093   1.245   2.282 -0.0448  0.4501  0.6546
10214TIP3    H152057   2.023   1.198   2.237 -0.5660  1.9799 -0.1817
10214TIP3    H252058   2.079   1.337   2.260  3.0371  0.7264 -0.7257
10215TIP3   OH252059   3.240   0.087   5.420  0.2893  0.1459  0.0529
10215TIP3    H152060   3.250   0.162   5.479  0.0425  0.8643 -0.8110
10215TIP3    H252061   3.184   0.027   5.468 -2.7658  2.1590 -0.7380
10216TIP3   OH252062   5.040   1.540   3.588 -0.3647  0.5173  0.3977
10216TIP3    H152063   5.025   1.635   3.584 -0.5054  0.5362  1.2058
10216TIP3    H252064   5.120   1.531   3.639 -1.0573  0.1625  1.4765
10217TIP3   OH252065   2.245   3.678   4.029  0.4733 -0.1013 -0.6054
10217TIP3    H152066   2.219   3.659   4.119  2.6073  0.4503  0.1769
10217TIP3    H252067   2.253   3.592   3.988  0.3709 -0.4002 -0.0117
10218TIP3   OH252068   6.696   6.407  17.144  0.1890  0.1256 -0.5129
10218TIP3    H152069   6.791   6.409  17.133  0.1621  0.0161 -0.7809
10218TIP3    H252070   6.673   6.497  17.168  0.2988  0.2824 -0.9780
10219TIP3   OH252071   2.214   6.352   1.270 -0.2341  0.3911  0.2961
10219TIP3    H152072   2.263   6.278   1.235 -0.5448 -0.4972  1.6729
10219TIP3    H252073   2.196   6.407   1.193  0.9205 -0.4047 -0.5857
10220TIP3   OH252074   3.533   3.505  15.460 -0.8238  0.3106 -0.2833
10220TIP3    H152075   3.479   3.460  15.524 -0.6222  2.4310  1.5248
10220TIP3    H252076   3.619   3.464  15.468 -1.0940 -0.2074 -0.0222
10221TIP3   OH252077   0.379   2.941   5.027 -0.0638  0.3074  0.9403
10221TIP3    H152078   0.454   2.890   5.057 -0.5773 -1.5467 -0.7467
10221TIP3    H252079   0.303   2.899   5.067 -0.4132  0.5151  0.5075
10222TIP3   OH252080   6.263   0.941  10.759 -0.5325  0.4910  0.0951
10222TIP3    H152081   6.234   0.872  10.818  1.0556 -0.5903 -0.3303
10222TIP3    H252082   6.222   1.020  10.793 -0.3091 -0.2223  2.1787
10223TIP3   OH252083   4.016   0.229   4.852  0.3181  0.1894 -0.0751
10223TIP3    H152084   3.941   0.234   4.911 -0.2815 -0.3162 -0.7717
10223TIP3    H252085   4.036   0.136   4.847  1.4200  0.3803  0.6205
10224TIP3   OH252086   3.397   1.091  11.304 -0.0790 -0.0809 -0.0404
10224TIP3    H152087   3.340   1.014  11.315  1.1266 -1.0984 -0.6689
10224TIP3    H252088   3.356   1.159  11.358 -0.1333 -1.7140  2.1142
10225TIP3   OH252089   6.068   3.782  15.408  0.2868  0.6963  0.5478
10225TIP3    H152090   6.139   3.833  15.446  0.8806 -0.4787  1.0728
10225TIP3    H252091   6.105   3.745  15.328 -1.0349  3.3760 -1.4684
10226TIP3   OH252092   3.175   2.003  14.011  0.2552 -0.1690 -0.0361
10226TIP3    H152093   3.204   2.071  13.950  0.1315 -1.3039 -1.4230
10226TIP3    H252094   3.242   1.935  14.004  0.6036 -0.0267  1.6521
10227TIP3   OH252095   6.416   1.160  12.558  0.4170  0.4025 -0.0951
10227TIP3    H152096   6.469   1.084  12.532  0.2954 -0.1969  1.3191
10227TIP3    H252097   6.360   1.127  12.628 -0.2149  1.6131 -0.0064
10228TIP3   OH252098   3.719   6.453   0.561  0.5505  0.3183  0.7001
10228TIP3    H152099   3.765   6.380   0.519  0.3245  0.5920 -0.0229
10228TIP3    H252100   3.766   6.465   0.644  2.0500  0.8627 -0.1875
10229TIP3   OH252101   1.791   3.656  14.477  0.3855 -0.3236 -0.3578
10229TIP3    H152102   1.744   3.701  14.407  0.5179 -1.0180 -0.9152
10229TIP3    H252103   1.833   3.581  14.433 -2.9109 -3.3231  1.0744
10230TIP3   OH252104   3.282   6.479   0.322  0.0269 -0.5856 -0.1867
10230TIP3    H152105   3.207   6.451   0.270  0.6884 -0.6977 -1.0916
10230TIP3    H252106   3.261   6.569   0.347  0.1796 -0.1376 -1.5778
10231TIP3   OH252107   3.146   3.162  17.244 -0.3134  0.0669 -0.4423
10231TIP3    H152108   3.114   3.077  17.213  1.2041 -1.1542  1.0939
10231TIP3    H252109   3.070   3.202  17.285 -0.7193 -1.2524  0.1622
10232TIP3   OH252110   3.458   3.688   0.559 -1.2455  0.0018  0.9870
10232TIP3    H152111   3.437   3.681   0.466  0.4813  0.7688  0.4842
10232TIP3    H252112   3.505   3.771   0.567  1.0936 -1.2900  1.9902
10233TIP3   OH252113   1.744   5.667   2.298 -0.7377  0.5491  0.3760
10233TIP3    H152114   1.712   5.646   2.210  1.9501  1.3522 -0.9127
10233TIP3    H252115   1.712   5.596   2.353 -1.7984 -0.4266 -1.3994
10234TIP3   OH252116   4.484   6.344  16.839  0.5311  0.4887  0.1486
10234TIP3    H152117   4.441   6.262  16.863 -1.6667  0.5972 -2.8232
10234TIP3    H252118   4.571   6.318  16.810 -0.0058 -0.7810 -0.4051
10235TIP3   OH252119   4.187   0.671  16.245 -0.2515  0.1706 -0.4523
10235TIP3    H152120   4.126   0.743  16.261 -0.5344 -0.5895  2.3722
10235TIP3    H252121   4.271   0.704  16.275 -0.3926 -0.6237  0.9166
10236TIP3   OH252122   2.185   2.833  15.657 -0.5176  0.1529  0.0782
10236TIP3    H152123   2.177   2.928  15.646 -0.6101  0.1931  0.4928
10236TIP3    H252124   2.254   2.807  15.595 -0.9045  0.4050 -0.4631
10237TIP3   OH252125   5.168   5.207  16.050 -0.6186  0.3160  0.4592
10237TIP3    H152126   5.137   5.120  16.025  1.5045 -0.9942  2.0287
10237TIP3    H252127   5.219   5.236  15.975  0.7462 -0.9427  0.8530
10238TIP3   OH252128   0.303   3.612  11.257  0.0258 -0.3259 -0.1770
10238TIP3    H152129   0.368   3.680  11.244 -1.4523  1.0645 -0.5847
10238TIP3    H252130   0.313   3.555  11.181  1.9931 -1.2601  0.6942
10239TIP3   OH252131   1.880   2.937  12.259  0.3878  0.2896 -0.0803
10239TIP3    H152132   1.901   2.868  12.322  0.3690  0.0990 -0.2791
10239TIP3    H252133   1.867   3.015  12.312  1.7385  0.4481  0.0357
10240TIP3   OH252134   0.814   2.828  16.336 -0.1847  0.5515  0.4485
10240TIP3    H152135   0.863   2.910  16.324 -0.9307  0.7684 -1.5725
10240TIP3    H252136   0.732   2.843  16.289 -1.1522 -0.7038  1.6562
10241TIP3   OH252137   0.595   0.294  13.649  0.2229 -0.1750 -0.0372
10241TIP3    H152138   0.528   0.298  13.581  1.5676 -1.2153 -1.4886
10241TIP3    H252139   0.546   0.305  13.731 -1.7085 -0.8388 -1.0336
10242TIP3   OH252140   5.132   0.722   0.340 -0.0489  0.1469 -0.0461
10242TIP3    H152141   5.105   0.631   0.341 -0.3534  0.2224 -0.9868
10242TIP3    H252142   5.213   0.724   0.290 -0.2920  0.4564 -0.4356
10243TIP3   OH252143   2.788   5.452   5.866 -0.1245 -0.3182 -0.3728
10243TIP3    H152144   2.848   5.392   5.821 -1.1992 -0.7050 -1.3297
10243TIP3    H252145   2.751   5.505   5.797 -2.0785 -1.1548 -0.0300
10244TIP3   OH252146   3.901   5.704   0.721 -0.4616  0.1567 -0.5212
10244TIP3    H152147   3.905   5.668   0.632  1.8159 -0.3387 -0.2880
10244TIP3    H252148   3.993   5.720   0.744 -1.0398  0.8461  1.5276
10245TIP3   OH252149   4.743   3.798   4.233  0.1568 -0.1525 -0.0567
10245TIP3    H152150   4.663   3.797   4.285  0.1930  0.2161  0.0120
10245TIP3    H252151   4.806   3.849   4.285  0.7481 -1.2460  0.3298
10246TIP3   OH252152   3.648   1.710  11.203  0.1806  0.2175  0.0058
10246TIP3    H152153   3.665   1.786  11.258 -1.8511  0.5075  0.3360
10246TIP3    H252154   3.716   1.647  11.226 -0.8283  0.1247  3.2771
10247TIP3   OH252155   5.337   5.524   0.616  0.0957  0.1299 -0.3284
10247TIP3    H152156   5.284   5.582   0.561 -0.4171  0.7486  0.7945
10247TIP3    H252157   5.275   5.486   0.679  0.3090 -2.0868 -1.3480
10248TIP3   OH252158   4.923   6.656  16.157  0.7314  0.2039  0.3683
10248TIP3    H152159   4.894   6.735  16.201 -0.1286 -0.2201  0.5817
10248TIP3    H252160   4.961   6.687  16.074 -0.4545  0.7793  0.0226
10249TIP3   OH252161   1.820   6.648  14.486 -0.4833  0.1378 -0.3825
10249TIP3    H152162   1.789   6.598  14.410  1.5765  1.0664 -1.9360
10249TIP3    H252163   1.843   6.734  14.451 -1.0549  1.1873  1.6542
10250TIP3   OH252164   3.481   0.391  12.375 -0.1702 -0.3278 -0.5647
10250TIP3    H152165   3.487   0.415  12.283  1.0491  0.2339 -0.3551
10250TIP3    H252166   3.469   0.474  12.421  0.0742 -0.5177 -0.1511
10251TIP3   OH252167   2.182   5.756   4.740 -0.0684 -0.4461 -0.2073
10251TIP3    H152168   2.106   5.744   4.683 -0.6557  1.4859  0.0843
10251TIP3    H252169   2.258   5.753   4.680 -0.4435 -1.2868 -0.6556
10252TIP3   OH252170   0.679   5.394  12.120  0.0861 -0.5436 -0.0630
10252TIP3    H152171   0.676   5.489  12.112 -0.9575 -0.3987  1.5101
10252TIP3    H252172   0.613   5.373  12.187 -0.6511 -2.4990 -1.2987
10253TIP3   OH252173   2.824   5.844   1.127 -1.0429  0.2993 -0.3015
10253TIP3    H152174   2.804   5.936   1.141  0.4215  0.7796 -1.1336
10253TIP3    H252175   2.907   5.830   1.174 -0.1719 -0.0415 -1.8805
10254TIP3   OH252176   5.256   4.632   5.426  0.2928  0.0122  0.7225
10254TIP3    H152177   5.170   4.609   5.391 -0.2527  2.3601  0.3601
10254TIP3    H252178   5.238   4.684   5.504  1.3957  0.1783  0.8920
10255TIP3   OH252179   4.012   0.600  13.195  0.0281 -0.1842 -0.4152
10255TIP3    H152180   3.944   0.557  13.245 -0.5465 -1.1952 -1.9985
10255TIP3    H252181   3.969   0.629  13.114  0.8806  1.5196 -0.3251
10256TIP3   OH252182   1.466   6.580   1.449  0.3094 -0.2621 -0.2447
10256TIP3    H152183   1.513   6.556   1.529  0.0619  0.1722  0.0407
10256TIP3    H252184   1.535   6.593   1.384  0.6492  0.9637  0.3256
10257TIP3   OH252185   2.330   0.706  11.467 -0.3155  0.1655 -0.2150
10257TIP3    H152186   2.274   0.696  11.544 -1.2192 -0.2814 -0.9218
10257TIP3    H252187   2.396   0.637  11.476  0.2286  0.7842  0.6917
10258TIP3   OH252188   3.541   0.531   5.693  0.4554 -0.6156  0.1184
10258TIP3    H152189   3.483   0.547   5.618  1.4277 -1.0358 -0.7532
10258TIP3    H252190   3.551   0.617   5.734  0.1044 -0.3233 -0.3914
10259TIP3   OH252191   3.412   2.551   3.977  0.9600 -0.0474  0.5526
10259TIP3    H152192   3.367   2.611   4.036 -0.0372  0.2566 -0.4727
10259TIP3    H252193   3.390   2.464   4.009  1.3812  0.1225  1.3082
10260TIP3   OH252194   0.074   5.105   2.586 -0.3634 -0.2863  0.1660
10260TIP3    H152195   0.008   5.035   2.588  2.1302 -2.8802 -1.0157
10260TIP3    H252196   0.158   5.059   2.579  1.5358  2.8543  0.2709
10261TIP3   OH252197   2.045   0.379   2.745  0.3964 -0.0260 -0.1681
10261TIP3    H152198   2.028   0.410   2.834 -1.9636 -1.0210 -0.2024
10261TIP3    H252199   2.058   0.459   2.694  1.2611  0.5779  0.9608
10262TIP3   OH252200   5.811   1.808  14.452  0.2408  0.0085 -0.8050
10262TIP3    H152201   5.754   1.756  14.396 -0.7052  0.8311 -0.6327
10262TIP3    H252202   5.784   1.898  14.437  2.6892  0.6256 -2.0771
10263TIP3   OH252203   5.404   0.462   4.716 -0.7040  0.1426  1.2938
10263TIP3    H152204   5.371   0.466   4.627 -1.1838 -0.5805  1.4335
10263TIP3    H252205   5.444   0.548   4.731 -0.3959  0.1806  0.3050
10264TIP3   OH252206   6.442   1.063   4.730  0.3223  0.2168  0.1386
10264TIP3    H152207   6.492   1.036   4.652  5.1362  0.7610  2.6461
10264TIP3    H252208   6.394   1.141   4.702  3.7910  1.8844 -1.9143
10265TIP3   OH252209   4.782   1.934  13.728  0.4308 -0.0114 -0.6289
10265TIP3    H152210   4.723   1.876  13.680 -0.9147  1.3015 -0.6310
10265TIP3    H252211   4.730   1.963  13.803  1.7953 -0.4089  0.4970
10266TIP3   OH252212   6.655   6.090  17.077  0.0437  0.2457  0.0205
10266TIP3    H152213   6.676   6.135  17.159  0.1416 -1.4368  0.9573
10266TIP3    H252214   6.691   6.147  17.009  0.6067  1.3263  1.1782
10267TIP3   OH252215   6.162   4.213   2.817  0.6639 -0.5245  0.2880
10267TIP3    H152216   6.088   4.272   2.807 -0.3064 -1.5265  1.1998
10267TIP3    H252217   6.190   4.194   2.728 -0.0523  0.0280 -0.0653
10268TIP3   OH252218   2.770   0.812  13.298  0.0438 -0.0794  0.1856
10268TIP3    H152219   2.837   0.877  13.319  0.9740 -0.3658 -1.7180
10268TIP3    H252220   2.815   0.728  13.303 -0.5404 -0.3932  0.2492
10269TIP3   OH252221   0.986   5.134  14.160 -0.5217  0.0666  0.7637
10269TIP3    H152222   0.939   5.155  14.080 -0.3544 -1.2690  0.2762
10269TIP3    H252223   0.965   5.205  14.221 -0.4475  1.2241 -0.5400
10270TIP3   OH252224   6.176   1.116  17.075  0.6147  0.0852  0.9294
10270TIP3    H152225   6.232   1.066  17.135 -0.3766 -1.8963  0.2970
10270TIP3    H252226   6.101   1.058  17.058 -0.8588  2.0017  0.5003
10271TIP3   OH252227   4.965   6.583  11.774 -0.0452  0.7074 -0.1260
10271TIP3    H152228   4.946   6.510  11.833 -1.9431  1.1354 -0.1472
10271TIP3    H252229   4.896   6.647  11.792  0.5937  1.7689 -1.3009
10272TIP3   OH252230   6.288   2.353  11.923  0.6868  0.2039 -0.7480
10272TIP3    H152231   6.347   2.293  11.968  3.1162  2.6638 -0.3303
10272TIP3    H252232   6.270   2.422  11.988  0.1294  1.2396 -1.9541
10273TIP3   OH252233   3.538   4.682   6.305  0.6223  0.5364  0.1459
10273TIP3    H152234   3.452   4.722   6.309  0.0366 -0.7453  3.1745
10273TIP3    H252235   3.594   4.738   6.358  0.9223 -0.1231  0.5513
10274TIP3   OH252236   1.996   4.234   1.246 -0.1788  0.0859  0.2534
10274TIP3    H152237   2.026   4.252   1.335  0.6588  0.4489 -0.0949
10274TIP3    H252238   1.991   4.138   1.241  0.8974  0.0182  0.3380
10275TIP3   OH252239   2.661   6.624   2.987  0.2893 -0.1289 -0.1265
10275TIP3    H152240   2.692   6.627   2.897 -1.5172  2.1048 -0.7719
10275TIP3    H252241   2.736   6.649   3.040  0.7530  0.8642 -1.2337
10276TIP3   OH252242   0.057   3.317   6.633  0.3751 -0.0297 -0.0017
10276TIP3    H152243   0.092   3.406   6.634  1.1497 -0.3105  2.3578
10276TIP3    H252244   0.133   3.261   6.617  0.1155 -0.3516 -0.1263
10277TIP3   OH252245   2.867   5.675   0.447 -0.3215  0.1983  0.1687
10277TIP3    H152246   2.924   5.731   0.500 -3.3015  0.7690  3.0743
10277TIP3    H252247   2.839   5.731   0.375 -0.3770  1.2758  0.9986
10278TIP3   OH252248   5.215   2.979   6.401  0.3590  0.5500  0.4747
10278TIP3    H152249   5.216   2.885   6.386  1.2926  0.6035  0.1242
10278TIP3    H252250   5.302   2.999   6.435  1.1956  1.6680 -2.0657
10279TIP3   OH252251   1.081   3.040  13.756 -0.1232 -0.4856 -0.4987
10279TIP3    H152252   1.147   2.987  13.802 -0.3479 -3.0271 -2.8675
10279TIP3    H252253   1.051   3.102  13.822  2.9314 -0.7612  1.3547
10280TIP3   OH252254   2.343   4.761  16.388  0.0440  0.5850 -0.6522
10280TIP3    H152255   2.290   4.821  16.441  2.4068  0.8825  1.6059
10280TIP3    H252256   2.386   4.817  16.323 -0.5239  0.7329 -0.9012
10281TIP3   OH252257   4.034   4.629   4.469  0.8178 -0.3540  0.4022
10281TIP3    H152258   3.967   4.570   4.504  0.3563 -1.6418 -2.3963
10281TIP3    H252259   4.017   4.712   4.513 -2.6147 -0.6342 -0.0953
10282TIP3   OH252260   2.621   0.190  15.073 -0.1336 -0.0037 -0.0088
10282TIP3    H152261   2.653   0.152  15.155  1.2259 -0.6050 -0.7799
10282TIP3    H252262   2.695   0.238  15.038  0.1819 -1.8681 -2.1183
10283TIP3   OH252263   2.418   4.717   1.683  0.2446 -0.1805  0.4908
10283TIP3    H152264   2.500   4.667   1.678  1.1531  1.1495  1.3661
10283TIP3    H252265   2.426   4.781   1.613  0.1793  0.2635  0.8882
10284TIP3   OH252266   2.715   1.876   4.624 -0.1046 -0.0834 -0.0575
10284TIP3    H152267   2.705   1.933   4.701  1.2201 -0.7211  0.6280
10284TIP3    H252268   2.630   1.880   4.580 -0.0433  2.4953 -0.1139
10285TIP3   OH252269   1.031   0.222   0.946  0.1770  0.6101  0.1732
10285TIP3    H152270   1.101   0.212   1.011 -0.7627 -0.3205  1.0880
10285TIP3    H252271   0.950   0.219   0.997 -0.5346  3.1360 -0.6941
10286TIP3   OH252272   1.983   5.145   1.742 -0.0973  0.5568  0.0066
10286TIP3    H152273   1.920   5.158   1.813 -0.3368  0.8595 -0.2542
10286TIP3    H252274   2.017   5.057   1.755  1.6151  1.4088  1.8886
10287TIP3   OH252275   1.002   6.448  12.393  0.1645 -0.0122  0.2468
10287TIP3    H152276   0.966   6.426  12.307  1.0728 -0.2541 -0.0819
10287TIP3    H252277   1.032   6.365  12.428 -0.9660 -0.0551  1.1839
10288TIP3   OH252278   2.591   2.023  13.902  0.1826 -0.3004  0.2323
10288TIP3    H152279   2.587   2.039  13.997 -0.2944 -1.1054  0.3620
10288TIP3    H252280   2.503   2.039  13.871  0.3093 -0.1635 -0.0509
10289TIP3   OH252281   5.016   5.981   5.786  0.0142  0.3816  0.1421
10289TIP3    H152282   5.029   6.024   5.702 -0.5957  2.8638  1.2105
10289TIP3    H252283   4.929   5.940   5.779  0.2920 -0.0978 -0.6594
10290TIP3   OH252284   4.229   5.887   1.012 -0.1142  0.2740 -0.2774
10290TIP3    H152285   4.154   5.871   1.070  0.4972  1.4389  0.8800
10290TIP3    H252286   4.264   5.971   1.040  0.6456  0.5312 -1.8963
10291TIP3   OH252287   3.836   4.801   5.761  0.1794 -0.5049 -0.6981
10291TIP3    H152288   3.836   4.885   5.715 -1.3773 -0.9350 -1.5208
10291TIP3    H252289   3.820   4.736   5.693  1.5381 -1.5085 -0.0947
10292TIP3   OH252290   1.965   2.668  10.216  0.2101 -0.1100 -0.4050
10292TIP3    H152291   1.953   2.600  10.150  1.6011 -0.6364 -0.1511
10292TIP3    H252292   1.951   2.625  10.300 -2.1310  0.6891 -0.3036
10293TIP3   OH252293   3.522   1.762   3.475 -0.4203  0.3484  0.2094
10293TIP3    H152294   3.544   1.737   3.565 -0.5412  2.0550  0.7411
10293TIP3    H252295   3.588   1.717   3.422  1.0346  1.0618  1.3390
10294TIP3   OH252296   4.176   4.305  16.676 -0.2414  0.7160  0.1555
10294TIP3    H152297   4.193   4.335  16.765 -2.5036  1.2502  0.4621
10294TIP3    H252298   4.163   4.385  16.625  0.3940  0.3938 -0.5361
10295TIP3   OH252299   5.227   3.966   0.069 -0.3007 -0.0850 -0.1497
10295TIP3    H152300   5.189   3.977  -0.018  1.0150  0.6687 -0.6426
10295TIP3    H252301   5.165   4.010   0.128 -0.6205  0.4119 -0.8454
10296TIP3   OH252302   4.631   4.837   0.338  0.0305  0.6203  0.0124
10296TIP3    H152303   4.582   4.774   0.286 -0.3358 -0.5100  1.6673
10296TIP3    H252304   4.606   4.922   0.302  0.6946 -0.1032 -2.4123
10297TIP3   OH252305   0.838   1.227  15.585 -0.0590 -0.8694 -0.1821
10297TIP3    H152306   0.834   1.151  15.526  5.0408  1.5051 -4.3954
10297TIP3    H252307   0.897   1.199  15.655 -2.3013 -2.2170  1.2609
10298TIP3   OH252308   6.289   1.208  16.320 -0.1995 -0.2791  0.1523
10298TIP3    H152309   6.236   1.210  16.400 -0.7141  0.8132 -0.1984
10298TIP3    H252310   6.360   1.271  16.338  0.0827 -0.5550  0.0119
10299TIP3   OH252311   4.891   1.242   3.884 -0.0416  0.3865  0.2476
10299TIP3    H152312   4.907   1.278   3.971  0.1960  2.4453 -0.5832
10299TIP3    H252313   4.979   1.228   3.848 -0.1387 -0.0442  0.1763
10300TIP3   OH252314   3.606   0.920   2.057  0.2293 -0.0344 -0.7082
10300TIP3    H152315   3.660   0.997   2.074  1.0202 -0.2975 -1.9534
10300TIP3    H252316   3.534   0.953   2.003 -0.5239  0.1760  0.3681
10301TIP3   OH252317   5.961   6.186  15.590 -0.1972 -0.4408 -0.0023
10301TIP3    H152318   5.930   6.111  15.539  1.2903 -1.3981  0.4317
10301TIP3    H252319   6.039   6.217  15.543 -0.7288  0.7827 -0.1094
10302TIP3   OH252320   6.462   3.922  16.340  0.6954 -0.5989  0.6240
10302TIP3    H152321   6.377   3.886  16.313  0.2979  0.8573 -0.1357
10302TIP3    H252322   6.526   3.855  16.313  0.3568  0.7082 -4.1961
10303TIP3   OH252323   0.255   2.550  13.309 -0.2204  0.0691 -0.5498
10303TIP3    H152324   0.304   2.612  13.254  1.4212 -1.3103 -0.7145
10303TIP3    H252325   0.297   2.466  13.294 -0.3947 -0.5534  2.0359
10304TIP3   OH252326   5.574   1.152   2.102 -0.0882  0.4625 -0.4134
10304TIP3    H152327   5.481   1.174   2.092 -1.0731 -2.5428  1.1441
10304TIP3    H252328   5.576   1.082   2.167  3.2761  0.2177 -0.6068
10305TIP3   OH252329   5.601   2.561  16.615  0.4349  0.0282  0.5430
10305TIP3    H152330   5.592   2.543  16.522  0.6494  0.1800  0.4947
10305TIP3    H252331   5.571   2.651  16.626  1.3681  0.3557  0.4637
10306TIP3   OH252332   1.888   4.977  14.394  0.1512 -0.5001  0.1721
10306TIP3    H152333   1.964   4.956  14.449 -0.4828  0.3772  1.4493
10306TIP3    H252334   1.813   4.951  14.447 -0.4751  0.3298 -0.2856
10307TIP3   OH252335   0.457   2.817   4.338 -0.1578 -0.6833 -0.1552
10307TIP3    H152336   0.524   2.882   4.318  0.3261 -1.5750 -1.5553
10307TIP3    H252337   0.379   2.869   4.356  0.6920  0.3457  0.7160
10308TIP3   OH252338   4.774   5.600   1.942  0.1532  0.1212 -0.0318
10308TIP3    H152339   4.736   5.685   1.962  0.7273  0.3899 -0.0524
10308TIP3    H252340   4.842   5.619   1.878 -1.1331 -0.6255 -1.6739
10309TIP3   OH252341   0.049   1.547   4.960 -0.8045  0.1905 -0.2624
10309TIP3    H152342   0.034   1.560   5.054  0.7273  1.7900 -0.1823
10309TIP3    H252343  -0.037   1.560   4.920 -0.8144  3.8745  0.5837
10310TIP3   OH252344   3.679   1.222   1.002  0.2777 -0.1364 -0.4372
10310TIP3    H152345   3.667   1.128   1.013  1.9347 -0.4704 -1.1447
10310TIP3    H252346   3.644   1.240   0.915 -2.3850  0.4112  0.6782
10311TIP3   OH252347   6.175   4.854   2.386 -0.4648  0.1957  0.3439
10311TIP3    H152348   6.173   4.840   2.292 -1.9306 -1.7837  0.5949
10311TIP3    H252349   6.198   4.769   2.423  2.2321  1.4005  1.7801
10312TIP3   OH252350   3.560   1.392  16.521  1.0341  0.5200  0.6587
10312TIP3    H152351   3.529   1.370  16.433  1.9690 -1.7411  0.8232
10312TIP3    H252352   3.607   1.475  16.510 -1.9677  2.2450 -0.2204
10313TIP3   OH252353   3.498   4.097  16.563  0.8850 -0.7595 -0.3026
10313TIP3    H152354   3.572   4.140  16.519  2.0200 -2.7775 -0.4901
10313TIP3    H252355   3.445   4.061  16.492 -0.4006  0.7690 -0.1736
10314TIP3   OH252356   0.374   4.802  16.941 -0.6326 -0.1137  0.3004
10314TIP3    H152357   0.409   4.881  16.900 -1.9116  0.6339  0.5802
10314TIP3    H252358   0.333   4.754  16.869 -0.1608 -0.3530  0.1892
10315TIP3   OH252359   4.435   2.938   6.158  0.4526 -0.2049  0.3793
10315TIP3    H152360   4.344   2.957   6.182  0.0209  0.6109 -1.6961
10315TIP3    H252361   4.472   2.895   6.236 -1.5716 -0.1852  1.4173
10316TIP3   OH252362   0.581   4.139   0.630 -0.1040  0.1024  0.0756
10316TIP3    H152363   0.548   4.188   0.554 -1.2350 -0.4901  0.1594
10316TIP3    H252364   0.660   4.096   0.598  0.5807  1.4704 -0.1713
10317TIP3   OH252365   5.810   6.631   0.817  0.0402  0.2297 -0.2374
10317TIP3    H152366   5.893   6.598   0.852 -0.1868  0.5662  0.6563
10317TIP3    H252367   5.820   6.726   0.816  0.3878  0.2143 -2.0323
10318TIP3   OH252368   1.952   2.873   4.456 -0.4547  0.2408 -0.1725
10318TIP3    H152369   1.884   2.881   4.390 -1.7230 -2.0496  0.7504
10318TIP3    H252370   1.906   2.851   4.537  1.2570  0.2763  0.8844
10319TIP3   OH252371   3.697   0.813  12.322 -0.0194 -0.0903  0.1373
10319TIP3    H152372   3.723   0.773  12.240  0.4179  1.3033 -0.4305
10319TIP3    H252373   3.766   0.789  12.384  0.3324 -0.0604 -0.2420
10320TIP3   OH252374   2.224   1.810  11.204 -0.1670 -0.3125 -0.4157
10320TIP3    H152375   2.229   1.797  11.109 -1.1889 -0.7711 -0.4225
10320TIP3    H252376   2.193   1.726  11.237  0.3018 -0.1898  0.3383
10321TIP3   OH252377   3.951   3.513  13.270  0.0095 -0.9610 -0.4362
10321TIP3    H152378   3.937   3.459  13.192 -1.1647 -1.5636  0.1552
10321TIP3    H252379   3.998   3.455  13.331  0.2488 -0.7455 -0.4135
10322TIP3   OH252380   0.441   3.857  17.135 -0.1605  0.2264 -0.0703
10322TIP3    H152381   0.497   3.926  17.172  0.7535 -0.2189 -0.6060
10322TIP3    H252382   0.386   3.903  17.072  0.3276  0.4976 -0.3030
10323TIP3   OH252383   3.320   4.691  12.572  0.0617  0.7820 -0.0631
10323TIP3    H152384   3.310   4.599  12.548 -0.6988  1.1214 -1.1359
10323TIP3    H252385   3.346   4.734  12.491  3.2477  1.1257  1.0336
10324TIP3   OH252386   6.186   5.328  14.745  0.3320 -0.1643  0.0702
10324TIP3    H152387   6.257   5.386  14.772  1.9515 -1.4037 -1.2702
10324TIP3    H252388   6.218   5.288  14.664 -2.6731  0.5705 -1.6017
10325TIP3   OH252389   4.084   3.690  11.944  0.6980  0.5065 -0.0889
10325TIP3    H152390   4.119   3.601  11.935 -1.5994 -0.2798 -2.7146
10325TIP3    H252391   4.138   3.742  11.884  0.7091  0.4304 -0.1454
10326TIP3   OH252392   0.466   3.003   1.260  0.3047 -0.2782 -0.3954
10326TIP3    H152393   0.492   2.931   1.317  1.4314  0.2415 -0.2222
10326TIP3    H252394   0.374   3.020   1.283  0.7158 -0.1324  1.2137
10327TIP3   OH252395   5.121   2.078  16.419 -0.0553 -0.3860 -0.6606
10327TIP3    H152396   5.100   1.997  16.372 -0.7479 -0.3749 -0.3888
10327TIP3    H252397   5.150   2.049  16.506  1.9688 -0.4450 -1.3182
10328TIP3   OH252398   1.721   4.894   5.201  0.0215 -0.2104 -0.1267
10328TIP3    H152399   1.656   4.965   5.210  0.4918  0.4748 -1.7836
10328TIP3    H252400   1.733   4.862   5.290 -1.8764  0.2952  0.3658
10329TIP3   OH252401   0.368   5.825  13.844  0.0531  0.0098 -0.0440
10329TIP3    H152402   0.401   5.803  13.931 -0.4941 -0.7652 -0.0224
10329TIP3    H252403   0.298   5.888  13.860  1.3090  1.4925 -0.0790
10330TIP3   OH252404   1.496   5.785   5.993 -0.0621  0.0745  0.1806
10330TIP3    H152405   1.506   5.814   5.903 -1.1764 -1.2323 -0.3885
10330TIP3    H252406   1.402   5.771   6.004  0.1374 -0.4967  1.3151
10331TIP3   OH252407   1.531   4.547   0.281 -0.3038 -0.2919  0.0653
10331TIP3    H152408   1.582   4.472   0.313 -0.3922 -0.6261 -0.5782
10331TIP3    H252409   1.585   4.623   0.302  0.0059 -0.5679  0.2831
10332TIP3   OH252410   2.799   5.795   1.914  0.4691 -0.0764  1.0982
10332TIP3    H152411   2.834   5.882   1.931  3.3350 -1.0318  0.6870
10332TIP3    H252412   2.852   5.736   1.968  0.4326 -1.8043 -0.6210
10333TIP3   OH252413   1.201   5.594   4.245  0.5824  0.4260  0.2388
10333TIP3    H152414   1.211   5.605   4.339 -0.5786 -0.2004  0.4469
10333TIP3    H252415   1.152   5.512   4.235 -1.0032  1.4530 -0.8233
10334TIP3   OH252416   3.028   4.173   3.583  0.5352  0.3674 -0.5542
10334TIP3    H152417   2.962   4.109   3.608  1.6713 -1.0249 -0.9833
10334TIP3    H252418   3.056   4.213   3.666  0.3747 -0.2702 -0.1892
10335TIP3   OH252419   4.270   5.730   2.629  0.9250  0.6829  0.7157
10335TIP3    H152420   4.176   5.740   2.618  0.9297 -0.8675 -1.2211
10335TIP3    H252421   4.301   5.817   2.656 -1.0778  1.0889  1.8862
10336TIP3   OH252422   2.191   1.740  14.603  0.2256  0.3871 -0.1619
10336TIP3    H152423   2.117   1.773  14.654 -0.2080 -2.2505  1.1004
10336TIP3    H252424   2.160   1.740  14.513 -0.4466  1.5166  0.0567
10337TIP3   OH252425   0.073   4.038   5.755  0.7151 -0.1434  0.2020
10337TIP3    H152426   0.150   3.981   5.755  0.4850 -0.4537  0.5024
10337TIP3    H252427   0.022   4.011   5.832  0.1405 -0.1681 -0.1786
10338TIP3   OH252428   0.998   2.737   2.004 -0.4789  0.7497  0.2710
10338TIP3    H152429   0.922   2.683   1.984 -0.1412  0.8764 -1.5676
10338TIP3    H252430   0.963   2.825   2.017 -0.6736  0.8093 -0.5885
10339TIP3   OH252431   2.215   5.636   4.466 -0.2988 -0.0716  0.5661
10339TIP3    H152432   2.222   5.662   4.374  1.8431 -1.1504  0.3754
10339TIP3    H252433   2.135   5.584   4.470  0.3734 -1.3189 -1.0537
10340TIP3   OH252434   2.373   3.260   4.624  0.3935 -0.0687  0.2222
10340TIP3    H152435   2.335   3.172   4.633 -1.2502  0.7329  1.7746
10340TIP3    H252436   2.448   3.259   4.683 -1.0682  0.2477  2.2133
10341TIP3   OH252437   3.112   6.586   5.817 -0.1013 -0.1745 -0.3920
10341TIP3    H152438   3.136   6.532   5.892  3.3385  0.2820 -1.0105
10341TIP3    H252439   3.089   6.671   5.854 -1.0437 -0.7029  0.2742
10342TIP3   OH252440   2.412   4.699   3.915 -0.0306  0.6423 -0.4612
10342TIP3    H152441   2.450   4.628   3.863 -0.8167 -0.0933 -0.0589
10342TIP3    H252442   2.469   4.775   3.898  0.6250  0.0091 -1.1598
10343TIP3   OH252443   0.770   3.266   3.649  0.6989 -0.4569 -0.6675
10343TIP3    H152444   0.839   3.332   3.659 -0.1752  0.1079  3.0388
10343TIP3    H252445   0.817   3.184   3.634  2.3108 -0.1362  2.0546
10344TIP3   OH252446   2.792   2.150   5.446  0.1425  0.2918  0.0159
10344TIP3    H152447   2.701   2.179   5.451  0.0564 -0.1361  1.3633
10344TIP3    H252448   2.791   2.060   5.481  0.9065 -0.1467 -1.0259
10345TIP3   OH252449   2.470   3.065  12.990  0.2489  0.0133 -0.3195
10345TIP3    H152450   2.553   3.084  13.034 -0.0704  0.0331  0.2843
10345TIP3    H252451   2.403   3.095  13.051 -0.2584 -2.0311  0.2158
10346TIP3   OH252452   5.972   2.320  11.941 -0.0557  0.6956  0.1999
10346TIP3    H152453   5.920   2.383  11.890  0.9213 -0.6243 -2.6595
10346TIP3    H252454   6.059   2.324  11.901  0.3845 -1.4445  0.8428
10347TIP3   OH252455   0.489   3.757  14.187  0.1389  0.6558 -0.3707
10347TIP3    H152456   0.433   3.827  14.154 -1.1162  0.2338  0.7852
10347TIP3    H252457   0.432   3.681  14.192  0.5654  0.4095  1.5691
10348TIP3   OH252458   4.436   0.672  11.268  0.1488  0.0180 -0.3163
10348TIP3    H152459   4.364   0.701  11.324  0.9345  0.2316  0.6110
10348TIP3    H252460   4.448   0.743  11.206 -1.2388 -0.5515 -1.2946
10349TIP3   OH252461   5.845   2.177  16.688 -0.0151 -0.4141 -0.4277
10349TIP3    H152462   5.908   2.109  16.715  0.4171  0.6461  1.4079
10349TIP3    H252463   5.834   2.163  16.594  2.3931 -1.1375 -0.6881
10350TIP3   OH252464   5.187   0.573   0.986 -0.4718 -0.7652 -0.9276
10350TIP3    H152465   5.206   0.635   1.057 -2.1497  0.6793 -1.6695
10350TIP3    H252466   5.250   0.595   0.918  0.3071 -1.3081 -0.4049
10351TIP3   OH252467   4.638   2.832   4.233  0.0638  0.5105 -0.5138
10351TIP3    H152468   4.601   2.745   4.249 -0.1876  1.0948  2.6015
10351TIP3    H252469   4.563   2.891   4.236  0.6777  1.2476  1.6246
10352TIP3   OH252470   4.882   0.101  12.866 -0.0256  0.0369  0.2843
10352TIP3    H152471   4.931   0.056  12.935  0.8779  1.9789  0.9767
10352TIP3    H252472   4.801   0.051  12.858  1.1335 -2.0276  0.5963
10353TIP3   OH252473   3.355   0.418   3.422 -0.3747  0.5020 -0.2652
10353TIP3    H152474   3.368   0.452   3.510  1.3911  0.5714 -0.5150
10353TIP3    H252475   3.410   0.474   3.366 -0.9325  0.0389 -1.3113
10354TIP3   OH252476   3.690   5.429  12.551 -0.1390  0.2563 -0.3937
10354TIP3    H152477   3.628   5.488  12.508 -0.7895 -0.5370 -0.5667
10354TIP3    H252478   3.635   5.366  12.598  0.5403  1.0051  1.5188
10355TIP3   OH252479   5.077   3.781  12.804  0.0626  0.1828  0.6938
10355TIP3    H152480   5.156   3.730  12.786 -1.1235 -0.9270 -1.8679
10355TIP3    H252481   5.068   3.778  12.899  1.1604 -2.6841  0.8041
10356TIP3   OH252482   4.595   5.514  13.879  0.3971  0.8262 -0.2531
10356TIP3    H152483   4.665   5.546  13.936 -0.0426 -0.0158  0.7970
10356TIP3    H252484   4.641   5.482  13.801  1.4234 -1.3329  1.1239
10357TIP3   OH252485   5.277   1.888   5.369  0.5194  0.1039 -0.5954
10357TIP3    H152486   5.253   1.803   5.404 -2.6987  0.7674 -0.8751
10357TIP3    H252487   5.299   1.872   5.277 -1.0631 -0.3497 -0.9209
10358TIP3   OH252488   3.769   4.634  14.559 -0.4330  0.1851 -0.1460
10358TIP3    H152489   3.847   4.643  14.613  1.1341  0.5360 -2.3246
10358TIP3    H252490   3.698   4.621  14.622  1.1339  1.2622  2.0010
10359TIP3   OH252491   5.017   3.977  16.713 -0.2974 -0.0416 -0.3182
10359TIP3    H152492   4.948   4.021  16.761 -0.2564 -1.3655  1.0280
10359TIP3    H252493   5.055   3.915  16.775  0.9076 -0.6232 -1.5548
10360TIP3   OH252494   0.303   5.060  15.763 -0.4794  0.3391  0.6588
10360TIP3    H152495   0.325   4.982  15.814 -0.8184 -0.7983 -0.8706
10360TIP3    H252496   0.380   5.117  15.770 -0.4717  0.1738  2.3012
10361TIP3   OH252497   1.408   0.444   0.085  0.2100 -0.0432  0.1008
10361TIP3    H152498   1.382   0.500   0.158  0.3154 -1.2241  1.0760
10361TIP3    H252499   1.390   0.355   0.115  1.7136 -0.6610 -0.7177
10362TIP3   OH252500   0.784   4.727   1.429 -0.0585  0.0292  0.1229
10362TIP3    H152501   0.857   4.691   1.380 -0.5859 -1.3248  0.3018
10362TIP3    H252502   0.778   4.673   1.508 -0.4620  0.9291  0.7312
10363TIP3   OH252503   2.909   1.308  14.866 -0.0310 -0.1065  0.5884
10363TIP3    H152504   2.951   1.243  14.923  0.9495  0.3948  0.4733
10363TIP3    H252505   2.849   1.257  14.813  0.9798 -0.9990  0.2471
10364TIP3   OH252506   6.283   0.882   3.609 -0.6171 -0.5527 -0.3330
10364TIP3    H152507   6.362   0.890   3.662 -1.4551  0.8191  0.7779
10364TIP3    H252508   6.227   0.822   3.658 -1.4737  0.8741  0.4966
10365TIP3   OH252509   2.726   3.667  15.989 -0.0183  0.8527  0.0298
10365TIP3    H152510   2.701   3.592  15.935  0.4117  0.7346 -0.0058
10365TIP3    H252511   2.775   3.630  16.062 -1.4262  0.9015  1.0627
10366TIP3   OH252512   2.685   6.208   0.918  0.0294 -0.2244  0.3365
10366TIP3    H152513   2.713   6.159   0.995 -0.9656  0.2957  1.0413
10366TIP3    H252514   2.647   6.289   0.952 -2.8218 -1.0925 -0.5001
10367TIP3   OH252515   2.792   3.222  13.692 -0.2415 -0.7566  0.8510
10367TIP3    H152516   2.703   3.233  13.657 -0.2881  0.7165  1.3451
10367TIP3    H252517   2.843   3.189  13.618 -0.4812  1.6178 -0.4668
10368TIP3   OH252518   6.128   3.646   2.283  0.4606  0.1396  0.1831
10368TIP3    H152519   6.187   3.669   2.211 -0.1678  1.4823  0.0795
10368TIP3    H252520   6.186   3.627   2.356  1.0466  0.5856 -0.1599
10369TIP3   OH252521   5.076   5.047   5.300  0.0376  0.5094 -0.7560
10369TIP3    H152522   5.161   5.051   5.256  0.3074 -1.4312 -0.4855
10369TIP3    H252523   5.054   5.138   5.317  2.0016  1.0636 -0.9395
10370TIP3   OH252524   0.163   5.885  16.284 -0.2555  0.4839  0.2597
10370TIP3    H152525   0.255   5.862  16.275 -0.4390 -0.0731 -0.2864
10370TIP3    H252526   0.159   5.978  16.265  0.0679  0.3131 -0.6682
10371TIP3   OH252527   5.610   4.971   0.251 -0.4991 -0.3123 -0.2477
10371TIP3    H152528   5.669   4.998   0.180  2.2229 -0.5752  1.7392
10371TIP3    H252529   5.573   4.888   0.221  0.7888 -0.5500 -1.2910
10372TIP3   OH252530   4.645   2.949   3.071  0.4012 -0.2914 -0.1171
10372TIP3    H152531   4.559   2.977   3.103  0.7463  1.1980 -0.4120
10372TIP3    H252532   4.641   2.853   3.073 -0.3579 -0.2791  2.2715
10373TIP3   OH252533   3.601   2.419   0.957  0.5924 -0.0090  0.1313
10373TIP3    H152534   3.559   2.491   1.003 -0.9552 -1.4176  1.0308
10373TIP3    H252535   3.628   2.358   1.026  0.3848 -1.0414 -0.6658
10374TIP3   OH252536   3.041   2.107  16.294  0.1044 -0.1168  0.1069
10374TIP3    H152537   3.058   2.168  16.222  0.5353  0.2510  0.5165
10374TIP3    H252538   2.988   2.037  16.255  1.4786 -0.6273 -0.8817
10375TIP3   OH252539   0.288   3.254   0.961  0.4965 -0.5597 -0.0652
10375TIP3    H152540   0.220   3.249   0.894  0.5523  0.8872 -0.2572
10375TIP3    H252541   0.241   3.240   1.043  0.6078 -3.6004 -0.4168
10376TIP3   OH252542   3.109   3.915   6.284 -0.5822 -0.4049 -0.0327
10376TIP3    H152543   3.174   3.968   6.237 -0.8181 -0.9431 -1.0052
10376TIP3    H252544   3.043   3.977   6.313 -0.1115  0.0251  0.1407
10377TIP3   OH252545   0.949   1.118  12.035 -0.5857  0.3901 -0.1117
10377TIP3    H152546   0.902   1.071  11.967  0.2553 -0.6933  0.0359
10377TIP3    H252547   0.960   1.054  12.105  2.2557  0.1611 -0.6518
10378TIP3   OH252548   0.430   3.187   5.541 -0.4805  0.6042 -0.0611
10378TIP3    H152549   0.363   3.236   5.588 -1.0697 -0.3859  0.1582
10378TIP3    H252550   0.512   3.213   5.582 -0.6561  2.2470 -0.6901
10379TIP3   OH252551   5.189   5.766  11.961 -0.3479  0.3632 -0.7353
10379TIP3    H152552   5.195   5.678  11.998 -0.6094  0.5442 -0.2460
10379TIP3    H252553   5.269   5.810  11.990 -0.8876  0.7298  0.2427
10380TIP3   OH252554   6.468   0.528  15.082  0.3316  0.0626 -0.4429
10380TIP3    H152555   6.393   0.481  15.118  0.8373 -0.6695 -0.3106
10380TIP3    H252556   6.431   0.585  15.016 -0.2022 -1.3329 -1.3993
10381TIP3   OH252557   0.926   3.802  11.602  0.0400  0.0982 -0.1526
10381TIP3    H152558   0.971   3.729  11.561  0.0745 -0.7615  1.3287
10381TIP3    H252559   0.890   3.852  11.529  0.8521 -0.8433 -1.2411
10382TIP3   OH252560   4.661   1.692  14.097 -0.0014 -0.1937  0.2091
10382TIP3    H152561   4.635   1.758  14.160  0.3185  0.0805  0.0552
10382TIP3    H252562   4.603   1.617  14.114 -0.0813 -0.0269  0.6537
10383TIP3   OH252563   1.826   2.660  16.819  0.3594 -0.7111  0.3368
10383TIP3    H152564   1.886   2.594  16.785  1.2896 -0.3404  1.2293
10383TIP3    H252565   1.832   2.652  16.914 -0.9572 -0.6143  0.4478
10384TIP3   OH252566   4.306   4.159   5.898  0.1301  0.2766  0.0341
10384TIP3    H152567   4.320   4.101   5.823 -0.8070 -0.3876  0.3517
10384TIP3    H252568   4.218   4.138   5.929  0.5242  0.4857  1.3788
10385TIP3   OH252569   6.738   6.455   1.133  0.0034  0.3337  0.0175
10385TIP3    H152570   6.758   6.368   1.167  0.5557 -0.7340 -2.7331
10385TIP3    H252571   6.823   6.490   1.106 -0.2355  1.7156  0.9818
10386TIP3   OH252572   1.495   0.242   6.221 -0.3733 -0.3852 -0.0188
10386TIP3    H152573   1.534   0.221   6.306  2.5822  0.1928 -1.1131
10386TIP3    H252574   1.469   0.334   6.228 -0.3705 -0.4133  0.3513
10387TIP3   OH252575   0.567   2.634   4.905  0.4397 -0.1029  0.0762
10387TIP3    H152576   0.483   2.676   4.888  0.6948 -0.4564 -2.4236
10387TIP3    H252577   0.631   2.705   4.903  0.4265 -0.0955 -0.2808
10388TIP3   OH252578   0.548   0.784  15.914 -0.1957  0.4503  0.0339
10388TIP3    H152579   0.489   0.724  15.868 -0.4399  0.0512  0.8620
10388TIP3    H252580   0.595   0.829  15.843  0.2653 -0.9740 -0.6031
10389TIP3   OH252581   5.457   5.212   0.219 -0.2648 -0.1784 -0.3604
10389TIP3    H152582   5.390   5.204   0.287  0.7775  0.2267  0.7663
10389TIP3    H252583   5.513   5.136   0.232  0.9697  0.8159  0.4567
10390TIP3   OH252584   5.514   6.498  12.928 -0.3061 -0.1618 -0.3268
10390TIP3    H152585   5.526   6.403  12.923 -0.6692 -0.2984  1.0662
10390TIP3    H252586   5.437   6.515  12.875 -0.9627 -0.8107  0.4018
10391TIP3   OH252587   5.521   3.948  17.175  0.0929 -0.3607  0.5475
10391TIP3    H152588   5.466   3.894  17.233 -0.9232 -0.7844 -0.7506
10391TIP3    H252589   5.564   3.884  17.117  0.1757  0.1164  0.0794
10392TIP3   OH252590   2.341   3.133   2.867  0.7348  0.4235  0.7172
10392TIP3    H152591   2.357   3.042   2.841  0.5633  0.5594  0.1202
10392TIP3    H252592   2.395   3.145   2.945  0.8295 -0.1659  0.7468
10393TIP3   OH252593   3.291   1.469   1.649  0.6446 -0.0176  0.0474
10393TIP3    H152594   3.265   1.525   1.576  0.2713  0.2020  0.3512
10393TIP3    H252595   3.375   1.505   1.677  0.3671  0.4422  0.2952
10394TIP3   OH252596   1.901   0.368   6.175  0.1359 -0.5455 -0.0028
10394TIP3    H152597   1.968   0.328   6.231  0.1534  0.3781  0.6647
10394TIP3    H252598   1.909   0.462   6.193 -0.7119 -0.3527 -0.6220
10395TIP3   OH252599   2.401   4.179  14.331 -0.3921 -0.1128 -0.3625
10395TIP3    H152600   2.481   4.205  14.285 -0.6174  0.9021 -0.2082
10395TIP3    H252601   2.336   4.244  14.305 -0.7564 -0.0290  0.6890
10396TIP3   OH252602   0.671   1.046  15.724 -0.4957  0.3847 -0.5788
10396TIP3    H152603   0.646   1.085  15.808 -1.7748  0.8879 -1.1647
10396TIP3    H252604   0.757   1.083  15.705 -1.3013  2.2985 -0.7118
10397TIP3   OH252605   5.148   0.449  11.820 -0.1203 -0.0077 -0.0335
10397TIP3    H152606   5.148   0.369  11.767  1.3656 -0.7467  0.9931
10397TIP3    H252607   5.199   0.512  11.768  0.1410 -0.2730 -0.1022
10398TIP3   OH252608   1.607   5.929  11.422  0.5473 -0.3055 -0.0632
10398TIP3    H152609   1.686   5.906  11.373 -0.0197 -0.3170 -0.9963
10398TIP3    H252610   1.567   5.845  11.444  0.8481 -0.3032  0.5170
10399TIP3   OH252611   4.035   3.674  15.899 -0.0003  0.4066 -0.3756
10399TIP3    H152612   3.988   3.665  15.982  1.6557 -1.5135  0.4412
10399TIP3    H252613   3.984   3.622  15.837  0.1416 -0.3507  0.1213
10400TIP3   OH252614   0.008   2.643   2.329 -0.1006 -0.2233  0.2259
10400TIP3    H152615  -0.057   2.587   2.285  0.7645 -1.4576  0.4815
10400TIP3    H252616  -0.007   2.627   2.422  0.8528 -0.8740  0.2780
10401TIP3   OH252617   2.845   0.126  14.232 -0.2126 -0.0241 -0.2288
10401TIP3    H152618   2.924   0.123  14.178 -0.7605  0.0806 -1.0556
10401TIP3    H252619   2.795   0.200  14.197 -1.1752 -0.7448 -0.4255
10402TIP3   OH252620   5.996   0.663   2.053 -0.3138  0.0831  0.5930
10402TIP3    H152621   5.936   0.675   1.980 -0.2441 -1.2288  0.2904
10402TIP3    H252622   6.027   0.573   2.044 -0.0651 -0.0090  2.0627
10403TIP3   OH252623   2.487   0.136  16.515 -0.2561 -0.2911  0.1582
10403TIP3    H152624   2.443   0.072  16.571  0.8756  0.3187  1.8167
10403TIP3    H252625   2.512   0.207  16.574  1.8446 -0.0467 -0.9077
10404TIP3   OH252626   5.278   0.993  15.815  0.1567 -0.6166 -0.1236
10404TIP3    H152627   5.197   1.041  15.799  0.3682  0.1571  0.9804
10404TIP3    H252628   5.258   0.937  15.891  0.8011 -0.0097  0.5077
10405TIP3   OH252629   1.507   1.459   1.292  0.0544  0.3074 -0.5381
10405TIP3    H152630   1.508   1.541   1.242 -0.1002  2.4163  2.6645
10405TIP3    H252631   1.431   1.468   1.350 -1.0800 -3.0002 -1.2990
10406TIP3   OH252632   6.036   2.058  17.169 -0.8235 -0.1170  0.2110
10406TIP3    H152633   5.983   1.988  17.131 -0.9009  0.1785 -0.2234
10406TIP3    H252634   6.016   2.054  17.263 -1.1200 -0.4249  0.1371
10407TIP3   OH252635   2.581   1.529  14.428  0.0044 -0.6991  0.1184
10407TIP3    H152636   2.673   1.505  14.420 -0.0067 -0.5251 -0.6037
10407TIP3    H252637   2.580   1.605  14.487  0.4957  0.3398 -1.1715
10408TIP3   OH252638   5.042   1.695   0.002  0.6993 -0.0193  0.1149
10408TIP3    H152639   5.136   1.684  -0.010  0.5804 -0.5428 -0.3567
10408TIP3    H252640   5.012   1.613   0.041  0.1767 -0.4994 -1.2681
10409TIP3   OH252641   2.977   1.758  16.827 -0.2111  0.7121 -0.0749
10409TIP3    H152642   3.015   1.841  16.853 -0.4666  0.4948  1.0473
10409TIP3    H252643   2.933   1.726  16.906  1.4877 -1.3914  0.1093
10410TIP3   OH252644   5.598   1.736  16.491 -0.1638 -0.5872 -0.3693
10410TIP3    H152645   5.644   1.750  16.408  1.0250  0.5899  0.4587
10410TIP3    H252646   5.525   1.798  16.489  0.1591 -0.2060 -0.3185
10411TIP3   OH252647   1.416   5.712  13.605  0.3918  0.3109  0.4118
10411TIP3    H152648   1.339   5.668  13.569  0.2711  0.8300  0.0208
10411TIP3    H252649   1.387   5.751  13.687 -0.2284  1.9108 -0.5218
10412TIP3   OH252650   1.517   4.947  16.265 -0.1695  0.1368  0.1598
10412TIP3    H152651   1.595   4.986  16.226  0.6889 -2.0049 -0.4218
10412TIP3    H252652   1.445   4.976  16.208  0.5934 -0.0347 -0.9316
10413TIP3   OH252653   3.935   6.623  14.637 -0.2853  0.1968  0.3908
10413TIP3    H152654   3.954   6.556  14.703  1.2020 -0.2758 -0.4735
10413TIP3    H252655   4.001   6.691  14.653 -2.0437  1.7189  1.5351
10414TIP3   OH252656   0.913   4.527   3.940 -0.0494 -0.0865  0.4213
10414TIP3    H152657   0.846   4.495   3.879  0.1664 -1.3972  0.8416
10414TIP3    H252658   0.946   4.607   3.899 -0.5227 -0.4656 -0.7517
10415TIP3   OH252659   0.071   2.760  11.306 -0.8326 -0.9790 -0.7420
10415TIP3    H152660  -0.002   2.700  11.323  0.1592 -1.8969  0.3547
10415TIP3    H252661   0.132   2.708  11.254  0.1279 -1.0131  0.3898
10416TIP3   OH252662   1.337   3.080   0.854  0.0210  0.5105  0.0821
10416TIP3    H152663   1.285   3.119   0.783  0.6433  0.1335 -0.5989
10416TIP3    H252664   1.345   2.988   0.830  0.5693  0.4596  0.4359
10417TIP3   OH252665   5.839   2.449  15.111  0.2133  0.5045  0.0620
10417TIP3    H152666   5.855   2.355  15.103 -0.4169  0.4884 -1.1556
10417TIP3    H252667   5.850   2.483  15.022 -1.4193  1.2837  0.1214
10418TIP3   OH252668   2.694   5.477  13.420 -0.2050 -0.0655  0.0055
10418TIP3    H152669   2.717   5.403  13.364  1.9079  0.9558 -0.5812
10418TIP3    H252670   2.744   5.463  13.500  0.5742  0.9378 -0.2886
10419TIP3   OH252671   3.334   3.811   4.672  0.3150 -0.2368  0.0746
10419TIP3    H152672   3.291   3.878   4.620  0.1598 -0.6271 -0.3065
10419TIP3    H252673   3.309   3.728   4.630 -0.6014 -0.6226  1.3295
10420TIP3   OH252674   6.448   0.928  15.375 -0.2120  0.4549 -0.1842
10420TIP3    H152675   6.374   0.981  15.346 -0.6229  0.3051  0.5682
10420TIP3    H252676   6.434   0.916  15.469 -0.3205 -1.2637 -0.3787
10421TIP3   OH252677   2.281   5.892   3.633  0.2586 -0.1245 -0.5009
10421TIP3    H152678   2.308   5.969   3.683 -0.6351 -0.8127  1.1332
10421TIP3    H252679   2.250   5.927   3.549  0.4134  1.2334 -0.0175
10422TIP3   OH252680   4.613   2.108  12.273  0.1874  0.1115  0.4709
10422TIP3    H152681   4.565   2.058  12.339  0.3572  0.3252  0.7583
10422TIP3    H252682   4.641   2.188  12.318  0.6930  0.0532  0.2707
10423TIP3   OH252683   0.785   4.182  16.517 -0.3333 -0.1223 -0.2438
10423TIP3    H152684   0.868   4.136  16.531  0.0408  0.2098 -1.2508
10423TIP3    H252685   0.746   4.139  16.441 -1.0485 -0.2162  0.1709
10424TIP3   OH252686   0.241   3.841   6.075 -0.3380 -0.3340  0.3104
10424TIP3    H152687   0.231   3.852   5.981 -0.2492  2.3545  0.5314
10424TIP3    H252688   0.154   3.814   6.105 -0.6426 -0.2049 -0.4301
10425TIP3   OH252689   2.488   4.547  16.845  0.0513 -0.0106  0.2788
10425TIP3    H152690   2.528   4.583  16.766 -1.2392  2.7892  0.7754
10425TIP3    H252691   2.394   4.555  16.830 -0.2214  0.0263  1.8394
10426TIP3   OH252692   3.165   0.148  12.782 -0.0584  0.3214 -1.0132
10426TIP3    H152693   3.183   0.205  12.856 -0.6809  1.0959 -1.4430
10426TIP3    H252694   3.126   0.070  12.821  0.8347  0.1588 -0.4182
10427TIP3   OH252695   6.760   5.790  16.094  0.5619 -0.3536  0.3461
10427TIP3    H152696   6.840   5.819  16.137  1.3631  0.6783 -1.7155
10427TIP3    H252697   6.714   5.871  16.071 -0.4450 -0.9026  0.3414
10428TIP3   OH252698   4.999   1.461  11.421  0.5180 -0.2011 -0.0260
10428TIP3    H152699   4.958   1.523  11.362 -0.0450  0.5483  1.1213
10428TIP3    H252700   5.077   1.506  11.455  0.4566 -0.3557  0.3319
10429TIP3   OH252701   3.782   1.643   3.180  0.8184  0.1594 -0.4368
10429TIP3    H152702   3.834   1.711   3.137 -2.2212  3.1394  0.1399
10429TIP3    H252703   3.785   1.666   3.273 -0.4327 -0.3294 -0.2559
10430TIP3   OH252704   1.717   0.540  13.779  0.0869  0.2017  0.0961
10430TIP3    H152705   1.737   0.629  13.806 -0.2927  0.3415 -0.0822
10430TIP3    H252706   1.654   0.549  13.708  0.9318 -0.1649 -0.7378
10431TIP3   OH252707   3.032   2.551  10.731  0.4820  0.2543 -0.4468
10431TIP3    H152708   2.975   2.623  10.758  0.3868 -0.6031  1.8930
10431TIP3    H252709   2.987   2.511  10.657 -1.5052  0.1664  0.7574
10432TIP3   OH252710   4.826   0.958  12.669  0.1740 -0.1559 -0.0169
10432TIP3    H152711   4.782   0.993  12.746 -3.6597  1.4654 -2.6124
10432TIP3    H252712   4.788   0.871  12.658 -1.3736  0.6177 -1.3531
10433TIP3   OH252713   4.192   0.753  14.858  0.2123 -0.0438 -0.4713
10433TIP3    H152714   4.227   0.732  14.945  0.2624 -2.0194 -0.9323
10433TIP3    H252715   4.124   0.687  14.843 -2.1729  2.2525 -0.5836
10434TIP3   OH252716   4.924   6.567   3.839 -0.1931  0.6161 -0.6504
10434TIP3    H152717   4.952   6.522   3.759 -1.4608  0.7011 -1.1571
10434TIP3    H252718   4.872   6.640   3.809 -0.5903  0.7214  0.2561
10435TIP3   OH252719   1.288   4.668  11.422 -0.1089  0.0178  0.4457
10435TIP3    H152720   1.224   4.735  11.446 -1.0523 -0.5566 -0.3788
10435TIP3    H252721   1.238   4.587  11.417  1.0091 -0.7640  1.3934
10436TIP3   OH252722   3.653   2.937   6.382  0.4677  0.1274 -0.2254
10436TIP3    H152723   3.690   3.008   6.435 -0.5296  0.3850  0.1402
10436TIP3    H252724   3.609   2.981   6.309 -0.0333 -0.1182 -0.0757
10437TIP3   OH252725   5.675   4.040  16.090  0.7444  0.4229 -0.4803
10437TIP3    H152726   5.655   3.971  16.152  1.3840 -0.4894 -1.2568
10437TIP3    H252727   5.596   4.095  16.089 -0.2671 -0.9751 -0.7419
10438TIP3   OH252728   3.477   4.762  12.814  0.2033  0.4861  0.0428
10438TIP3    H152729   3.434   4.709  12.747 -0.9754  1.0261  0.3500
10438TIP3    H252730   3.451   4.852  12.795 -0.4298  0.6228  1.3760
10439TIP3   OH252731   2.757   4.460   1.882 -0.3682  0.5235 -0.1259
10439TIP3    H152732   2.834   4.406   1.866 -1.2584 -0.7470 -0.2718
10439TIP3    H252733   2.779   4.510   1.961  1.4929  1.9730 -1.4530
10440TIP3   OH252734   1.551   2.252  15.946  0.3504  0.0041  0.6747
10440TIP3    H152735   1.511   2.339  15.956 -0.1026 -0.3743  2.6289
10440TIP3    H252736   1.641   2.269  15.918 -0.1714  1.0136 -0.4847
10441TIP3   OH252737   2.403   2.730  14.946  0.2029 -0.6945 -0.5773
10441TIP3    H152738   2.401   2.817  14.906  2.3921 -0.3887 -0.1602
10441TIP3    H252739   2.311   2.707  14.958 -0.4417  1.6866 -0.4095
10442TIP3   OH252740   5.249   2.624  13.106  0.0709  0.6374 -0.4789
10442TIP3    H152741   5.219   2.706  13.067  2.8185  1.3014 -1.4081
10442TIP3    H252742   5.310   2.588  13.042  3.3665  0.8362  2.2949
10443TIP3   OH252743   6.183   0.415   4.573 -0.2590 -1.0997 -0.1241
10443TIP3    H152744   6.252   0.479   4.586 -1.2198 -0.2336  0.8904
10443TIP3    H252745   6.225   0.331   4.592 -0.0476 -0.4084  3.0798
10444TIP3   OH252746   5.392   4.877  11.052 -0.8176  0.1085  0.0837
10444TIP3    H152747   5.448   4.906  10.980  0.5160 -1.7568  0.2769
10444TIP3    H252748   5.304   4.873  11.014  0.0686 -2.3480 -2.0242
10445TIP3   OH252749   0.893   4.010   4.042  0.8249 -0.3190 -0.0483
10445TIP3    H152750   0.951   3.969   3.978  1.7370 -1.1064  1.2393
10445TIP3    H252751   0.910   4.104   4.032 -0.5417 -0.2419 -2.3148
10446TIP3   OH252752   0.256   6.516  16.656  0.1392  0.2720 -0.0282
10446TIP3    H152753   0.304   6.501  16.737 -0.5642  0.1462  0.3719
10446TIP3    H252754   0.324   6.521  16.589  0.6398 -2.1444  0.1882
10447TIP3   OH252755   5.223   6.324  14.488  0.2404  0.1739 -0.6643
10447TIP3    H152756   5.183   6.389  14.429  0.4174 -0.2935 -1.3155
10447TIP3    H252757   5.301   6.367  14.521  1.5224 -0.4307 -2.7427
10448TIP3   OH252758   1.002   5.895   6.081  0.0801 -0.0265 -0.0294
10448TIP3    H152759   0.917   5.870   6.117  0.1448 -1.2733 -0.6940
10448TIP3    H252760   1.060   5.898   6.157  0.0115 -1.7379  0.1289
10449TIP3   OH252761   3.150   5.568   5.593  0.1695  0.0656 -0.1031
10449TIP3    H152762   3.227   5.578   5.537  0.0450 -0.9683 -0.4793
10449TIP3    H252763   3.080   5.611   5.544  0.6180  1.5601  0.5265
10450TIP3   OH252764   3.567   4.315  16.903 -0.0327  0.7551  0.6496
10450TIP3    H152765   3.557   4.400  16.859 -0.9982  0.6362  0.6151
10450TIP3    H252766   3.483   4.301  16.946 -0.0014 -0.3359  0.3756
10451TIP3   OH252767   2.286   1.009   4.974 -0.0089  0.2717 -0.2348
10451TIP3    H152768   2.335   1.004   4.892  0.0907  1.4412 -0.2639
10451TIP3    H252769   2.351   1.034   5.040 -0.2557  0.2140  0.0329
10452TIP3   OH252770   5.108   6.307   5.411 -0.1732  0.7485  0.2142
10452TIP3    H152771   5.144   6.289   5.498 -1.3209  1.8243  0.9561
10452TIP3    H252772   5.155   6.385   5.381  0.4160  0.2170 -0.2648
10453TIP3   OH252773   0.644   4.668  12.848  0.3714 -0.2741  0.7969
10453TIP3    H152774   0.638   4.749  12.797  0.2535 -1.2090 -0.7313
10453TIP3    H252775   0.640   4.598  12.783 -1.0067 -1.5617  2.1934
10454TIP3   OH252776   0.195   2.135  17.239  0.3490 -0.7600 -0.0579
10454TIP3    H152777   0.288   2.157  17.233  0.6991 -2.0602  0.2241
10454TIP3    H252778   0.193   2.040  17.230 -0.8793 -0.8365  0.8454
10455TIP3   OH252779   0.003   4.759  11.713  0.6632  0.8454 -0.3611
10455TIP3    H152780   0.033   4.703  11.642  2.1825 -1.0851  1.6636
10455TIP3    H252781   0.061   4.836  11.709  1.1515  0.4629 -0.8156
10456TIP3   OH252782   4.690   5.786   2.751 -0.2835 -0.3533  0.0209
10456TIP3    H152783   4.716   5.711   2.698  0.0863  0.2726 -0.6908
10456TIP3    H252784   4.678   5.858   2.688 -1.5093 -0.0325  0.5777
10457TIP3   OH252785   0.603   5.303   6.321  0.7128  0.0706 -0.0702
10457TIP3    H152786   0.615   5.236   6.389 -2.2096  0.5236  1.0217
10457TIP3    H252787   0.562   5.376   6.367 -2.2568  0.0436 -2.4297
10458TIP3   OH252788   1.175   6.151   2.531  0.0942 -0.2055  0.0323
10458TIP3    H152789   1.159   6.056   2.538 -0.1124 -0.1296  0.6631
10458TIP3    H252790   1.107   6.190   2.586 -0.3328  0.3526 -0.8777
10459TIP3   OH252791   2.278   3.830   4.805  0.5285  0.2191 -0.2657
10459TIP3    H152792   2.226   3.808   4.728 -2.9817  1.0380  1.6225
10459TIP3    H252793   2.262   3.923   4.818  1.4413  0.1997  1.1684
10460TIP3   OH252794   1.583   0.172   1.932 -0.3156 -0.3740  0.2499
10460TIP3    H152795   1.667   0.215   1.916 -0.5503  0.4221  1.0869
10460TIP3    H252796   1.599   0.117   2.009 -1.3518  2.3198  2.5911
10461TIP3   OH252797   4.520   5.130   3.938  0.2478  0.3180  0.1666
10461TIP3    H152798   4.562   5.052   3.901  0.2534 -0.0611  0.9426
10461TIP3    H252799   4.570   5.203   3.903 -0.7531  0.0958 -1.8747
10462TIP3   OH252800   0.663   3.916   3.949  0.2570  0.8091  0.0230
10462TIP3    H152801   0.727   3.971   3.994  0.0743 -0.6368  2.1648
10462TIP3    H252802   0.681   3.827   3.980 -1.4279  0.0794 -0.9580
10463TIP3   OH252803   0.706   5.007   5.482  0.5534  0.1886 -0.5629
10463TIP3    H152804   0.660   5.046   5.408 -0.7537  1.4603  0.8386
10463TIP3    H252805   0.718   4.915   5.458 -2.2391 -0.0763 -1.2803
10464TIP3   OH252806   4.745   3.437  12.962 -0.2242 -0.5454  0.3207
10464TIP3    H152807   4.739   3.435  13.057 -1.0158  0.1397  0.2938
10464TIP3    H252808   4.693   3.513  12.936  0.6776 -0.2147 -0.6075
10465TIP3   OH252809   5.953   2.475  13.396 -0.2542  0.0626 -0.5438
10465TIP3    H152810   5.880   2.414  13.382 -1.9493  0.8223  3.4899
10465TIP3    H252811   5.910   2.561  13.404  1.2621  0.7755  0.3248
10466TIP3   OH252812   1.502   5.592   0.894  0.3599 -0.3303  0.2053
10466TIP3    H152813   1.543   5.511   0.861  0.2752 -1.1951  2.1107
10466TIP3    H252814   1.483   5.574   0.986  0.2248  1.8449  0.6564
10467TIP3   OH252815   1.583   1.408   4.659  0.3072 -0.4103 -0.2150
10467TIP3    H152816   1.513   1.422   4.722  0.1981  1.7531 -0.7324
10467TIP3    H252817   1.659   1.383   4.711  0.1980  1.2537  0.8064
10468TIP3   OH252818   2.484   1.881   5.450 -0.4443  0.4902 -0.1746
10468TIP3    H152819   2.543   1.887   5.525 -1.9681 -0.8795  1.2080
10468TIP3    H252820   2.401   1.917   5.482 -0.9513  0.4686 -1.4122
10469TIP3   OH252821   5.704   1.095   5.955  0.4773 -0.4425  0.0050
10469TIP3    H152822   5.609   1.084   5.956  0.5230 -1.2212 -1.6932
10469TIP3    H252823   5.729   1.091   6.048 -1.0248 -1.2814  0.4092
10470TIP3   OH252824   0.721   4.212   3.325 -0.4300 -0.3803 -0.2948
10470TIP3    H152825   0.706   4.134   3.272 -1.1876 -1.5692  1.5987
10470TIP3    H252826   0.651   4.273   3.298 -1.0618 -1.1267 -0.3733
10471TIP3   OH252827   5.006   4.081  12.944 -0.1168 -0.4556 -0.4857
10471TIP3    H152828   4.911   4.074  12.955 -0.3836 -0.7125 -2.4576
10471TIP3    H252829   5.030   4.004  12.892  1.0250  0.0662 -0.7736
10472TIP3   OH252830   0.937   4.609   2.089 -0.2781 -0.2444 -0.2491
10472TIP3    H152831   0.874   4.676   2.063 -0.8407 -0.9713 -0.8375
10472TIP3    H252832   0.902   4.528   2.050  0.3005 -0.8985  0.5664
10473TIP3   OH252833   1.970   0.435   0.389  0.5580  0.0857 -0.2960
10473TIP3    H152834   1.899   0.421   0.325  0.4194  0.1127 -0.1502
10473TIP3    H252835   1.939   0.391   0.468 -0.1315  1.6546  0.3486
10474TIP3   OH252836   0.355   3.639   4.499 -0.2518 -0.1013 -0.7600
10474TIP3    H152837   0.311   3.612   4.418  3.1685  0.6240 -3.0559
10474TIP3    H252838   0.305   3.596   4.569 -1.6733 -3.1376 -3.3964
10475TIP3   OH252839   3.968   6.261  12.836  0.1113  0.2099  0.1660
10475TIP3    H152840   3.957   6.318  12.760 -0.7023  1.8449  1.4620
10475TIP3    H252841   3.917   6.183  12.814 -2.1881  1.6566 -0.0128
10476TIP3   OH252842   2.259   0.966   3.814 -0.5357 -0.3553  0.4616
10476TIP3    H152843   2.232   1.014   3.735  0.8147 -1.5326 -0.7856
10476TIP3    H252844   2.179   0.956   3.864 -1.6257 -0.3018 -1.1802
10477TIP3   OH252845   4.186   3.311   4.511  0.1228  0.0597 -0.3601
10477TIP3    H152846   4.186   3.220   4.481  0.8207 -0.4890  1.1910
10477TIP3    H252847   4.160   3.362   4.434  1.1537 -1.3104 -1.6717
10478TIP3   OH252848   2.919   3.321   0.232 -0.5373 -0.2525 -0.2056
10478TIP3    H152849   2.934   3.414   0.247 -1.2539 -0.2631  0.6339
10478TIP3    H252850   2.876   3.316   0.147 -1.2296  0.2547  0.1096
10479TIP3   OH252851   0.278   5.736   4.519  0.6523 -0.7527 -0.5223
10479TIP3    H152852   0.310   5.822   4.545  0.6963 -0.4575 -1.4997
10479TIP3    H252853   0.201   5.755   4.465 -0.7737 -1.4181  1.1862
10480TIP3   OH252854   1.539   6.048  16.462  0.1185 -0.0848 -0.2730
10480TIP3    H152855   1.559   5.995  16.385  0.1254 -2.3851  1.2106
10480TIP3    H252856   1.623   6.084  16.489  0.7073 -1.9037  0.4550
10481TIP3   OH252857   0.963   1.878  12.199 -0.1990  0.2633 -0.3381
10481TIP3    H152858   0.868   1.870  12.206 -0.2062  1.3008  1.2402
10481TIP3    H252859   0.977   1.939  12.127 -0.7919  0.8782  0.0517
10482TIP3   OH252860   3.812   4.056   0.012 -0.0726  0.2339 -0.5945
10482TIP3    H152861   3.881   3.989   0.006 -0.1527 -0.0004  0.7318
10482TIP3    H252862   3.860   4.137   0.029 -0.0919  0.1340 -0.0433
10483TIP3   OH252863   4.105   2.565   5.778 -0.2135 -0.0862 -0.6816
10483TIP3    H152864   4.181   2.529   5.824 -1.3131  0.0933  1.3848
10483TIP3    H252865   4.143   2.613   5.705  2.0003  2.6272  1.9612
10484TIP3   OH252866   0.289   1.878   4.380 -0.3174  0.4918  0.1251
10484TIP3    H152867   0.263   1.938   4.450 -0.4452  1.1771 -0.4992
10484TIP3    H252868   0.217   1.815   4.376  0.3556 -0.4302  1.5647
10485TIP3   OH252869   5.461   4.252  16.127  0.1251  0.2894 -0.3301
10485TIP3    H152870   5.431   4.267  16.038 -0.4124 -0.8359 -0.3609
10485TIP3    H252871   5.381   4.257  16.180  0.5088  1.4365  0.1710
10486TIP3   OH252872   0.427   2.407  14.103  0.1316  0.0431 -0.3318
10486TIP3    H152873   0.371   2.368  14.036 -0.1084 -0.5790  0.2218
10486TIP3    H252874   0.516   2.398  14.068 -0.0675  0.6459 -1.0179
10487TIP3   OH252875   1.638   6.346   5.089  0.1134 -0.6606 -0.6857
10487TIP3    H152876   1.722   6.300   5.096 -0.3811 -2.1393 -3.2281
10487TIP3    H252877   1.574   6.277   5.077 -1.3712  0.5145  0.1417
10488TIP3   OH252878   6.498   6.568   4.080  0.1568  0.4580 -0.0938
10488TIP3    H152879   6.456   6.599   4.000 -1.5163  1.4217  1.1003
10488TIP3    H252880   6.553   6.641   4.108  2.1932 -0.5314 -1.2567
10489TIP3   OH252881   4.697   5.463   0.766  0.8410 -0.7165  0.5925
10489TIP3    H152882   4.674   5.370   0.771  1.1129 -0.8954 -0.9958
10489TIP3    H252883   4.642   5.504   0.832 -2.5438 -1.4232 -1.5431
10490TIP3   OH252884   2.607   0.563  15.094  0.2676 -0.4240  0.3621
10490TIP3    H152885   2.561   0.587  15.013  0.6104 -1.5626 -0.1814
10490TIP3    H252886   2.538   0.526  15.150  0.1374 -0.1749  0.3687
10491TIP3   OH252887   2.624   5.609  16.767 -0.7858  0.2371 -0.7964
10491TIP3    H152888   2.640   5.688  16.716 -0.1549  0.4961 -0.2125
10491TIP3    H252889   2.600   5.640  16.854 -1.5240 -0.2067 -0.8276
10492TIP3   OH252890   1.532   1.179  13.693  0.1684 -0.3771 -0.5873
10492TIP3    H152891   1.519   1.157  13.601  2.1142 -0.1530 -0.9540
10492TIP3    H252892   1.510   1.272  13.699  1.0036 -0.1314 -1.0769
10493TIP3   OH252893   1.271   6.353  13.396 -0.2996 -0.2360  0.4959
10493TIP3    H152894   1.357   6.381  13.363 -0.8251  3.5037  1.7941
10493TIP3    H252895   1.281   6.352  13.491 -1.6271  0.0084  0.6509
10494TIP3   OH252896   1.127   3.531   6.058  0.0886  0.6523 -0.7994
10494TIP3    H152897   1.059   3.584   6.101  0.9227  0.3221  0.9979
10494TIP3    H252898   1.203   3.537   6.116  1.7784  1.3105 -2.9315
10495TIP3   OH252899   1.803   2.023  13.585  0.1047 -0.1654 -0.1469
10495TIP3    H152900   1.838   2.103  13.547 -0.9930  0.1036 -0.6387
10495TIP3    H252901   1.809   1.958  13.515  0.2995 -0.3173  0.0082
10496TIP3   OH252902   1.862   0.672  10.834 -0.4562  0.6438  0.0855
10496TIP3    H152903   1.852   0.635  10.746 -0.0960  2.0264 -0.5691
10496TIP3    H252904   1.906   0.604  10.884 -0.4727 -0.0888 -0.8671
10497TIP3   OH252905   0.002   0.266  14.285  0.1774  0.1430  0.0519
10497TIP3    H152906  -0.028   0.176  14.299  0.7035 -0.0368  0.0549
10497TIP3    H252907   0.045   0.264  14.199  1.0815  0.1492  0.4902
10498TIP3   OH252908   3.591   6.622   4.635 -0.4772  0.3210  0.3394
10498TIP3    H152909   3.654   6.654   4.700  0.8486 -1.9001  0.2339
10498TIP3    H252910   3.575   6.696   4.577  2.6222  0.7701 -0.0572
10499TIP3   OH252911   4.205   4.140  15.601 -0.5338 -0.3934 -0.0475
10499TIP3    H152912   4.192   4.081  15.527 -0.3410 -0.1177 -0.2975
10499TIP3    H252913   4.118   4.179  15.616 -1.0039 -1.7439  0.9779
10500TIP3   OH252914   0.800   5.788  12.727  0.0251 -0.1126  0.4927
10500TIP3    H152915   0.717   5.743  12.708 -0.5397  0.9487  0.3728
10500TIP3    H252916   0.777   5.881  12.726  1.2672  0.2016  0.2664
10501TIP3   OH252917   4.254   1.760   1.968  0.6781 -0.5314  0.1160
10501TIP3    H152918   4.310   1.796   1.899 -1.5185 -1.4366 -2.2811
10501TIP3    H252919   4.183   1.717   1.922 -1.5256 -0.2892  2.9844
10502TIP3   OH252920   4.600   4.028   3.783 -0.1491  0.0955  0.4953
10502TIP3    H152921   4.645   4.102   3.823  0.1457 -0.5885  1.4803
10502TIP3    H252922   4.538   3.999   3.850  0.7144 -1.4011  0.7054
10503TIP3   OH252923   4.808   0.861   2.691  0.2175  0.6527 -0.3297
10503TIP3    H152924   4.830   0.781   2.643 -0.0965  0.0584  0.4923
10503TIP3    H252925   4.790   0.926   2.623 -0.5434 -0.2549 -1.0192
10504TIP3   OH252926   0.467   1.478  14.245 -0.3723 -0.1878  0.6889
10504TIP3    H152927   0.490   1.386  14.260 -1.6017 -0.3508  1.7961
10504TIP3    H252928   0.406   1.476  14.171 -0.5853 -0.3088  0.8640
10505TIP3   OH252929   1.914   1.116   2.096 -0.3598 -0.0394  0.2024
10505TIP3    H152930   1.822   1.090   2.107 -0.4622  0.5019  0.7345
10505TIP3    H252931   1.955   1.043   2.050 -1.2228  0.0229 -0.7042
10506TIP3   OH252932   0.837   0.788   3.350 -0.4123  0.2099 -0.8533
10506TIP3    H152933   0.815   0.707   3.397  1.8336 -0.4388 -0.7598
10506TIP3    H252934   0.780   0.788   3.274 -0.8714 -1.1764 -0.5503
10507TIP3   OH252935   1.389   3.915   2.805  0.3676  0.5708 -0.2401
10507TIP3    H152936   1.409   3.858   2.879 -0.0893 -0.5458 -0.9577
10507TIP3    H252937   1.462   3.976   2.801  1.2146 -0.4012  0.1119
10508TIP3   OH252938   3.836   6.185   3.862 -0.5895  0.2718 -0.1677
10508TIP3    H152939   3.826   6.276   3.892 -0.7590  0.7083 -1.4857
10508TIP3    H252940   3.851   6.135   3.943 -0.3175  1.4894  0.5682
10509TIP3   OH252941   5.308   6.267   3.866  0.2607  0.4114 -0.0828
10509TIP3    H152942   5.285   6.352   3.903 -0.2342  0.3298 -0.2007
10509TIP3    H252943   5.395   6.281   3.828 -0.1667  1.0851 -0.8326
10510TIP3   OH252944   2.231   4.235  16.595  0.1897 -0.5413 -0.0149
10510TIP3    H152945   2.183   4.293  16.654  0.5314 -0.6316  0.3590
10510TIP3    H252946   2.234   4.282  16.512  2.9049  1.2906  0.9916
10511TIP3   OH252947   2.051   1.522   3.758  0.1071 -0.2381 -0.2719
10511TIP3    H152948   2.058   1.460   3.685 -0.4466  1.1237 -1.5428
10511TIP3    H252949   2.023   1.469   3.832  2.5960 -2.0368 -0.4956
10512TIP3   OH252950   1.994   3.664   3.300  0.3782  0.0533 -0.2253
10512TIP3    H152951   2.046   3.592   3.263  0.7993 -0.4676  1.3380
10512TIP3    H252952   2.002   3.734   3.235  1.9438 -0.4762 -0.6547
10513TIP3   OH252953   4.384   6.069   5.054  0.8966 -0.2747  0.3816
10513TIP3    H152954   4.436   6.096   5.129 -1.4342 -0.9322  2.3852
10513TIP3    H252955   4.335   5.992   5.085 -0.8698  0.0098 -1.4709
10514TIP3   OH252956   4.398   4.749   4.638  0.0767 -0.1537  0.6462
10514TIP3    H152957   4.426   4.764   4.728 -0.9503 -1.1090  1.1563
10514TIP3    H252958   4.333   4.679   4.645  0.4103 -0.6574 -0.9069
10515TIP3   OH252959   1.968   0.026  14.024 -0.0185  0.5315 -0.1404
10515TIP3    H152960   1.886   0.005  14.070  1.4499 -3.1356  1.1350
10515TIP3    H252961   1.944   0.023  13.931 -1.4002 -0.2435  0.2034
10516TIP3   OH252962   3.452   0.514  16.642  0.4090  0.6403 -0.2528
10516TIP3    H152963   3.423   0.454  16.710 -1.7488  0.3849 -1.3014
10516TIP3    H252964   3.546   0.527  16.658  0.3451 -0.8867  1.5788
10517TIP3   OH252965   2.616   5.297  15.790  0.3916  0.3646 -0.0452
10517TIP3    H152966   2.525   5.301  15.821  0.4005 -0.0121  0.0279
10517TIP3    H252967   2.667   5.335  15.861  0.4813 -1.0814  0.6954
10518TIP3   OH252968   1.609   5.714   2.039  0.6712 -0.1014 -0.0596
10518TIP3    H152969   1.647   5.799   2.018 -0.0982  0.0929 -0.6728
10518TIP3    H252970   1.516   5.723   2.019  0.1940 -0.4531  1.7978
10519TIP3   OH252971   2.212   5.347  12.134 -0.3472 -0.0601 -0.5533
10519TIP3    H152972   2.197   5.391  12.218 -1.0079 -1.7601  0.2729
10519TIP3    H252973   2.129   5.303  12.115  0.9705 -3.0067 -0.0267
10520TIP3   OH252974   1.629   0.674  16.011  0.2436 -0.1096 -0.6295
10520TIP3    H152975   1.658   0.609  16.074 -0.5976  0.1793  0.0789
10520TIP3    H252976   1.598   0.748  16.064 -0.2560  0.2365 -1.3760
10521TIP3   OH252977   1.129   3.084   2.803 -0.1740  0.0714  0.2475
10521TIP3    H152978   1.128   3.109   2.711 -0.8519 -1.1070 -0.0756
10521TIP3    H252979   1.216   3.111   2.834  0.7607 -1.1276 -1.2006
10522TIP3   OH252980   6.778   3.499   0.610 -0.1880 -0.2423 -0.0316
10522TIP3    H152981   6.716   3.532   0.545  2.5594  0.1005 -2.6824
10522TIP3    H252982   6.739   3.524   0.694 -2.7849  1.4086 -1.5719
10523TIP3   OH252983   0.117   0.319  14.036  0.0005  0.2563 -0.4261
10523TIP3    H152984   0.159   0.236  14.011 -1.6343 -0.3729 -1.2461
10523TIP3    H252985   0.115   0.369  13.954 -1.1397  0.1157 -0.5032
10524TIP3   OH252986   5.237   3.370  14.762  0.5257  0.4215 -0.5544
10524TIP3    H152987   5.203   3.319  14.688  0.9102  0.7293 -0.9435
10524TIP3    H252988   5.169   3.362  14.829  0.9369 -1.3347 -0.2770
10525TIP3   OH252989   2.623   4.176   5.893 -0.2699 -0.1763 -0.3848
10525TIP3    H152990   2.575   4.093   5.900  0.5344 -0.7517 -1.2992
10525TIP3    H252991   2.596   4.226   5.969 -0.7569 -1.2999  0.2120
10526TIP3   OH252992   5.407   5.395  13.417  0.5218 -0.3776 -0.6637
10526TIP3    H152993   5.363   5.385  13.333  0.9490 -2.4870 -0.6950
10526TIP3    H252994   5.397   5.310  13.460  1.8333  0.0847  0.6658
10527TIP3   OH252995   1.593   3.986  12.115 -0.3022 -0.3895  0.5273
10527TIP3    H152996   1.569   4.030  12.197  0.7318 -0.6765  1.0068
10527TIP3    H252997   1.587   3.893  12.136  1.7152 -0.4870  0.8565
10528TIP3   OH252998   1.077   0.716   5.911  0.3345  0.1099 -0.1928
10528TIP3    H152999   1.028   0.679   5.838 -0.3244  2.2603 -0.9322
10528TIP3    H253000   1.163   0.737   5.875  0.4693 -0.0669  0.0233
10529TIP3   OH253001   0.648   1.382   4.956 -0.0343 -0.7095  0.1818
10529TIP3    H153002   0.623   1.290   4.960  0.4560 -0.8227  0.8112
10529TIP3    H253003   0.689   1.400   5.041 -1.3795  0.4676  0.6228
10530TIP3   OH253004   6.088   4.337  11.914 -0.3372 -0.4057 -0.2497
10530TIP3    H153005   6.005   4.355  11.958 -0.6252  1.8054 -1.5284
10530TIP3    H253006   6.132   4.422  11.910  2.1909 -1.5660  0.6865
10531TIP3   OH253007   4.455   2.531  11.402 -0.0777  0.1871 -0.7195
10531TIP3    H153008   4.385   2.498  11.345  0.0892 -1.8923  0.1751
10531TIP3    H253009   4.532   2.538  11.344 -0.3303 -0.2664 -1.1190
10532TIP3   OH253010   2.459   0.253  16.755 -0.4717  0.1054  0.5241
10532TIP3    H153011   2.370   0.223  16.735  0.3671 -1.0548 -1.7439
10532TIP3    H253012   2.494   0.185  16.813 -0.3952 -0.5171 -0.2345
10533TIP3   OH253013   1.185   2.484   0.946  0.7439 -0.2949 -0.1182
10533TIP3    H153014   1.157   2.568   0.910 -0.4143 -0.5639  0.1343
10533TIP3    H253015   1.123   2.420   0.911  0.8352 -0.8607  0.7212
10534TIP3   OH253016   2.696   4.224  15.355  0.0238  0.7182 -0.0273
10534TIP3    H153017   2.713   4.142  15.400 -0.1526  0.6114 -0.1566
10534TIP3    H253018   2.699   4.202  15.262 -4.5256 -0.1472 -0.1946
10535TIP3   OH253019   6.783   2.260  13.747  0.1101  0.4535 -0.2450
10535TIP3    H153020   6.788   2.266  13.843 -0.8766  0.2837 -0.1736
10535TIP3    H253021   6.720   2.190  13.731  0.2705  0.4849 -1.0198
10536TIP3   OH253022   4.558   2.281  14.218  0.2035  0.4884  0.8804
10536TIP3    H153023   4.628   2.236  14.265  0.7076  0.1528 -0.1526
10536TIP3    H253024   4.603   2.332  14.150 -0.5835 -0.6092 -0.5325
10537TIP3   OH253025   0.530   4.736  12.322  0.0870  0.1687  0.4172
10537TIP3    H153026   0.465   4.796  12.359 -1.5590 -0.8683 -0.6898
10537TIP3    H253027   0.547   4.770  12.234 -0.5881 -0.7453 -0.0834
10538TIP3   OH253028   3.541   0.895  16.415  0.1990 -0.1191  0.0629
10538TIP3    H153029   3.523   0.802  16.398 -1.2142 -0.0500  1.0026
10538TIP3    H253030   3.548   0.934  16.328  1.2714 -1.1756 -0.3525
10539TIP3   OH253031   6.269   2.581   0.726  0.2483 -0.0066  0.4194
10539TIP3    H153032   6.176   2.577   0.707  0.5529 -0.3538 -1.1876
10539TIP3    H253033   6.278   2.653   0.788 -0.9725  0.6830 -0.1735
10540TIP3   OH253034   1.925   0.758  15.305  0.0408  0.0015  0.0604
10540TIP3    H153035   1.927   0.841  15.354 -1.0835 -0.3840  0.7908
10540TIP3    H253036   2.017   0.738  15.289  0.3136  2.2462 -1.6363
10541TIP3   OH253037   1.593   2.640  11.488 -0.6061 -0.4528  0.0567
10541TIP3    H153038   1.603   2.703  11.416  0.3946 -0.8132 -0.1294
10541TIP3    H253039   1.667   2.657  11.546 -0.4666 -1.2750  0.1351
10542TIP3   OH253040   4.746   3.035  10.561  0.5730  0.4841  0.0595
10542TIP3    H153041   4.741   3.118  10.607 -1.8450  0.1086  0.5990
10542TIP3    H253042   4.657   3.001  10.562  0.7436 -0.4725 -3.2173
10543TIP3   OH253043   0.567   2.301  15.620 -0.2094  0.4132  0.5342
10543TIP3    H153044   0.599   2.316  15.709 -0.4136  0.9425  0.5213
10543TIP3    H253045   0.492   2.359  15.611 -1.1906 -0.8015  0.5535
10544TIP3   OH253046   6.538   0.326   1.477  0.4936 -0.1981  1.0883
10544TIP3    H153047   6.607   0.392   1.481  0.9950 -0.7237  1.2285
10544TIP3    H253048   6.514   0.310   1.568  0.9992 -0.8504  1.1137
10545TIP3   OH253049   0.423   4.790  13.681  0.6316  0.1935 -0.2488
10545TIP3    H153050   0.344   4.746  13.651 -0.0647  0.2044  1.4567
10545TIP3    H253051   0.492   4.723  13.675  0.1066 -0.3740  0.0020
10546TIP3   OH253052   4.611   2.879  15.152  0.1426  0.0380  0.7564
10546TIP3    H153053   4.536   2.824  15.130  0.5302 -1.2694  2.4351
10546TIP3    H253054   4.622   2.867  15.247  2.9179 -0.4298  0.4537
10547TIP3   OH253055   0.615   1.367  10.820  0.2075  0.3078  0.1298
10547TIP3    H153056   0.527   1.331  10.826  0.9228 -1.4174  0.9660
10547TIP3    H253057   0.644   1.346  10.731  0.3646 -0.6166  0.3888
10548TIP3   OH253058   1.741   5.589  11.579 -0.7461 -0.3844  0.3288
10548TIP3    H153059   1.816   5.642  11.550 -1.5200  1.0408  0.8120
10548TIP3    H253060   1.675   5.602  11.512 -1.3441  0.1986  1.0168
10549TIP3   OH253061   4.734   4.752  17.011 -0.6253  0.0596  0.2506
10549TIP3    H153062   4.758   4.666  16.975 -0.0010  0.2109  0.2944
10549TIP3    H253063   4.722   4.736  17.105 -0.1942  0.0804  0.3106
10550TIP3   OH253064   1.791   6.688  14.895  0.0594 -0.2896  0.2634
10550TIP3    H153065   1.870   6.668  14.946  0.2327  1.0195  0.5407
10550TIP3    H253066   1.732   6.731  14.956 -0.5733 -0.5567 -0.1396
10551TIP3   OH253067   4.994   4.393   2.056  0.2713 -0.1285 -0.7408
10551TIP3    H153068   5.030   4.419   2.141 -0.2900  1.0440 -0.8444
10551TIP3    H253069   5.025   4.460   1.995 -1.8323  0.7922 -0.8753
10552TIP3   OH253070   1.005   5.822   3.005 -0.5041  0.5931 -0.3775
10552TIP3    H153071   1.028   5.866   3.087 -0.6973  0.7399 -0.4014
10552TIP3    H253072   0.939   5.758   3.030 -1.2505  1.2677 -0.5558
10553TIP3   OH253073   2.568   5.588   3.072  0.1771  0.0019  0.2419
10553TIP3    H153074   2.613   5.557   2.994  1.4080 -0.2828  1.0423
10553TIP3    H253075   2.502   5.649   3.039  2.1076  1.5860 -0.8652
10554TIP3   OH253076   6.517   2.258  12.101 -0.1989 -0.1365  0.4176
10554TIP3    H153077   6.607   2.241  12.072 -0.1193  1.5848 -0.4880
10554TIP3    H253078   6.527   2.290  12.190 -0.3025 -3.7781  1.8962
10555TIP3   OH253079   1.523   5.916   4.403 -0.4056  0.1397 -0.5552
10555TIP3    H153080   1.597   5.976   4.406  1.0972 -1.3873 -3.1483
10555TIP3    H253081   1.558   5.832   4.433 -1.8647 -0.0433  0.7987
10556TIP3   OH253082   6.385   5.278  12.876  0.2511 -0.5402  0.4979
10556TIP3    H153083   6.467   5.326  12.864 -0.2823  0.3986  0.5121
10556TIP3    H253084   6.330   5.306  12.803  0.1965 -1.7315  0.0745
10557TIP3   OH253085   3.845   4.579   3.981 -0.4595 -0.6854 -0.2635
10557TIP3    H153086   3.885   4.630   4.052 -1.1682 -1.1241  0.4604
10557TIP3    H253087   3.916   4.524   3.949  0.6446  1.4722 -1.8044
10558TIP3   OH253088   5.518   5.890  11.506 -0.7750 -0.3679 -0.2552
10558TIP3    H153089   5.605   5.929  11.500 -1.2942  0.7230 -0.9049
10558TIP3    H253090   5.525   5.827  11.578  0.2007  0.6423  0.5733
10559TIP3   OH253091   4.911   2.199  17.220 -0.6688 -1.0975  0.1425
10559TIP3    H153092   4.989   2.152  17.249  0.2223 -0.0764 -0.5294
10559TIP3    H253093   4.944   2.268  17.162 -2.1613 -1.4971 -1.2731
10560TIP3   OH253094   3.339   0.112   0.338  0.1145 -0.0516  0.0196
10560TIP3    H153095   3.399   0.104   0.413  0.2723  0.3953 -0.0587
10560TIP3    H253096   3.371   0.047   0.275  0.5277  0.1913 -0.0271
10561TIP3   OH253097   5.083   6.468  14.302 -0.0007 -0.1959  0.3893
10561TIP3    H153098   5.098   6.560  14.323 -0.6759 -0.0592  0.2760
10561TIP3    H253099   5.023   6.469  14.228  1.9849 -0.6808 -1.3273
10562TIP3   OH253100   2.362   4.964   4.829  0.4270 -0.0836  0.0266
10562TIP3    H153101   2.278   4.945   4.787  0.4422 -0.0767 -0.0071
10562TIP3    H253102   2.364   5.059   4.834  0.0417 -0.1093  0.8226
10563TIP3   OH253103   3.651   4.158  13.641  0.1908 -0.0766 -0.2985
10563TIP3    H153104   3.703   4.213  13.700  2.3134 -1.9880 -0.2491
10563TIP3    H253105   3.686   4.177  13.554  1.1399 -1.4666 -0.2510
10564TIP3   OH253106   1.569   4.258  13.542  0.3105 -0.2936  0.5220
10564TIP3    H153107   1.526   4.186  13.589  0.9113 -0.9611  0.0871
10564TIP3    H253108   1.621   4.214  13.475 -0.6564  0.6478 -0.8914
10565TIP3   OH253109   2.862   5.124  11.514  0.7062  0.0759  0.2928
10565TIP3    H153110   2.773   5.146  11.487  0.4280  0.9119  1.7926
10565TIP3    H253111   2.876   5.175  11.594  2.5568 -0.0039  0.0534
10566TIP3   OH253112   0.504   2.804  13.473 -0.5007  0.4318  0.3131
10566TIP3    H153113   0.547   2.739  13.417 -0.5261  0.5714  0.1309
10566TIP3    H253114   0.422   2.825  13.427 -0.8263  0.0783  0.7159
10567TIP3   OH253115   0.046   0.670   6.040 -0.3265  0.5524  0.2003
10567TIP3    H153116   0.082   0.593   6.085 -0.7718  0.9209  1.2217
10567TIP3    H253117  -0.031   0.693   6.091 -0.4412  1.4298 -0.3533
10568TIP3   OH253118   5.313   4.665   1.656 -0.5100  0.6015 -0.3221
10568TIP3    H153119   5.390   4.618   1.622 -0.9537 -0.5473  0.2261
10568TIP3    H253120   5.242   4.639   1.597 -0.3938  2.1056 -1.1739
10569TIP3   OH253121   5.579   5.379  12.133  0.0787  0.2568 -0.3854
10569TIP3    H153122   5.555   5.354  12.223 -2.1041  1.1767 -0.6397
10569TIP3    H253123   5.668   5.413  12.141 -0.0159  0.2126  1.4293
10570TIP3   OH253124   4.148   4.728  17.186 -0.3405  0.0958  0.2503
10570TIP3    H153125   4.057   4.751  17.170 -0.0988  1.4160  0.6628
10570TIP3    H253126   4.193   4.811  17.201  0.9572 -0.5149 -0.0211
10571TIP3   OH253127   1.222   4.467   5.677 -0.0674 -0.0858  0.3030
10571TIP3    H153128   1.164   4.391   5.679  1.5595 -1.5422 -2.1659
10571TIP3    H253129   1.299   4.439   5.726  1.2364 -0.7993 -1.9824
10572TIP3   OH253130   3.069   5.486   6.452  0.2811 -0.3055  0.7624
10572TIP3    H153131   3.158   5.503   6.421 -0.8633  1.6760 -1.7242
10572TIP3    H253132   3.059   5.541   6.529  1.0143 -0.1163  0.7267
10573TIP3   OH253133   1.405   5.632   1.510  0.3618  0.1427  0.4647
10573TIP3    H153134   1.450   5.639   1.426 -0.7090  2.0254 -0.0191
10573TIP3    H253135   1.448   5.697   1.565 -0.6778  0.8376  0.4862
10574TIP3   OH253136   2.824   3.201  15.451  0.4586 -0.6722 -0.5424
10574TIP3    H153137   2.740   3.246  15.445 -0.2783 -2.1731 -2.8097
10574TIP3    H253138   2.884   3.254  15.399  0.5825 -0.3161 -0.0424
10575TIP3   OH253139   3.424   3.885  10.329  0.1697  0.0981 -0.3124
10575TIP3    H153140   3.482   3.938  10.384  1.5316 -1.1854 -0.4606
10575TIP3    H253141   3.483   3.831  10.277 -1.1555 -0.5530 -1.1881
10576TIP3   OH253142   5.111   3.413  13.414  0.0022 -0.2276  0.3693
10576TIP3    H153143   5.205   3.413  13.399  0.0385 -1.6743  0.5444
10576TIP3    H253144   5.074   3.426  13.326  0.3448  2.1322  0.5065
10577TIP3   OH253145   1.109   1.515   0.529  0.1034  0.0346 -0.4499
10577TIP3    H153146   1.083   1.423   0.524 -1.2236  0.1633  1.9895
10577TIP3    H253147   1.067   1.546   0.609  2.3122  2.1964 -0.0093
10578TIP3   OH253148   0.478   1.456  11.089 -0.5236  0.1437 -0.3450
10578TIP3    H153149   0.411   1.453  11.157  2.6650 -0.3416  3.1236
10578TIP3    H253150   0.493   1.549  11.074 -0.5644  0.2912  0.4707
10579TIP3   OH253151   5.770   5.302   1.403 -0.0282 -0.1851 -0.5618
10579TIP3    H153152   5.694   5.261   1.361 -0.0596 -0.7498  0.0236
10579TIP3    H253153   5.737   5.383   1.439 -0.2166 -0.1500 -0.8092
10580TIP3   OH253154   3.904   1.951   4.693 -0.6336  0.7015  0.3778
10580TIP3    H153155   3.905   2.046   4.704 -0.2043  0.6300  1.0126
10580TIP3    H253156   3.956   1.917   4.766  0.8937  0.0645 -0.9338
10581TIP3   OH253157   1.877   2.282  12.686  0.5044 -0.1554  0.1096
10581TIP3    H153158   1.921   2.200  12.707 -0.1816 -0.3642  0.7502
10581TIP3    H253159   1.837   2.267  12.601  0.0337 -0.6334  0.4077
10582TIP3   OH253160   2.601   6.667   5.639  0.2581  0.0557 -0.3659
10582TIP3    H153161   2.563   6.730   5.579  1.8875 -0.2492 -1.7781
10582TIP3    H253162   2.627   6.719   5.715  1.1680  1.0310 -1.3198
10583TIP3   OH253163   5.526   3.207   6.197 -0.3299 -0.4678  0.0271
10583TIP3    H153164   5.527   3.266   6.273  5.1497  0.5986 -0.4317
10583TIP3    H253165   5.565   3.126   6.230  0.1887 -0.7209 -1.1615
10584TIP3   OH253166   3.181   1.274  16.082 -0.3994 -0.2600  0.2702
10584TIP3    H153167   3.152   1.189  16.116 -2.0711 -0.4192 -1.3861
10584TIP3    H253168   3.125   1.338  16.126 -0.2027 -0.1572  0.3719
10585TIP3   OH253169   3.021   4.372  13.863  0.6860  0.0622  0.7699
10585TIP3    H153170   3.045   4.407  13.948 -1.3804  0.5412  1.2095
10585TIP3    H253171   3.081   4.414  13.801  1.5085  0.5274  1.8667
10586TIP3   OH253172   2.681   5.527  15.156 -0.2796  0.2103 -0.3439
10586TIP3    H153173   2.629   5.472  15.214  1.7279 -2.6817 -1.0520
10586TIP3    H253174   2.637   5.522  15.071 -0.0194 -0.4442 -0.4412
10587TIP3   OH253175   6.317   0.640  14.283  0.2562 -0.1072 -0.4745
10587TIP3    H153176   6.341   0.647  14.375  0.1357  1.4174 -0.5419
10587TIP3    H253177   6.257   0.565  14.280 -1.1328  0.8965  0.9840
10588TIP3   OH253178   1.814   1.288  13.643  0.4573  0.4625  0.2455
10588TIP3    H153179   1.858   1.302  13.727 -0.9844  1.0564  0.9376
10588TIP3    H253180   1.721   1.294  13.664  0.0749  1.3401 -1.5357
10589TIP3   OH253181   2.664   5.246  11.146  0.5648 -0.0686 -0.3601
10589TIP3    H153182   2.737   5.184  11.144  1.9474  1.4081  0.5822
10589TIP3    H253183   2.637   5.256  11.055  1.7795 -0.4252 -0.7760
10590TIP3   OH253184   2.426   1.764  13.651 -0.4553  0.0424 -0.1642
10590TIP3    H153185   2.384   1.819  13.717 -0.7835  0.2243 -0.5242
10590TIP3    H253186   2.501   1.815  13.621  0.6834 -0.7260  1.2545
10591TIP3   OH253187   2.791   3.016  11.494  0.1364 -0.5683 -0.5192
10591TIP3    H153188   2.886   3.029  11.499  0.0824  0.4512 -1.6891
10591TIP3    H253189   2.757   3.064  11.569  0.5248 -0.7953 -0.1893
10592TIP3   OH253190   5.616   1.631  15.440  0.4354  0.4055  0.8005
10592TIP3    H153191   5.558   1.600  15.370  0.2638  0.0241  1.1042
10592TIP3    H253192   5.671   1.697  15.398 -0.7131  1.3219  0.6736
10593TIP3   OH253193   2.927   2.649  16.796 -0.1937 -0.3703  0.1248
10593TIP3    H153194   2.961   2.676  16.710  0.5559 -0.4241  0.3979
10593TIP3    H253195   2.889   2.730  16.832  2.0329  0.3879  0.9318
10594TIP3   OH253196   1.386   3.161   2.869  0.0303 -0.3974 -0.0256
10594TIP3    H153197   1.467   3.125   2.905  0.9834  1.4309 -0.2114
10594TIP3    H253198   1.412   3.246   2.833 -2.0075  0.3002  0.0419
10595TIP3   OH253199   4.252   1.267   3.738 -0.0633  0.0172  0.0632
10595TIP3    H153200   4.208   1.352   3.735 -0.9754 -0.4048  0.7543
10595TIP3    H253201   4.261   1.248   3.831  2.2063  0.3596 -0.0286
10596TIP3   OH253202   4.663   0.150   2.267 -0.2789 -0.1714 -0.5058
10596TIP3    H153203   4.656   0.071   2.213 -0.6591 -0.0996 -0.5616
10596TIP3    H253204   4.713   0.212   2.214  1.6205 -0.9790  0.2281
10597TIP3   OH253205   1.182   5.630   4.524 -0.1693 -0.5441  0.0514
10597TIP3    H153206   1.197   5.686   4.600  1.6301 -0.5262 -0.2769
10597TIP3    H253207   1.191   5.541   4.557 -1.3638 -0.6114  0.2349
10598TIP3   OH253208   5.220   0.884  16.070  0.1083 -0.1749 -0.3652
10598TIP3    H153209   5.205   0.793  16.046 -0.7540 -0.2995  0.6146
10598TIP3    H253210   5.293   0.882  16.131  0.6448 -0.1064 -0.9861
10599TIP3   OH253211   0.991   2.376   4.158  0.1748 -0.5665 -0.2197
10599TIP3    H153212   0.999   2.365   4.063 -2.5204  1.8613 -0.8960
10599TIP3    H253213   0.924   2.312   4.183 -2.0449  1.4010 -0.7934
10600TIP3   OH253214   3.832   5.338  11.886 -0.1896 -0.2374 -0.9548
10600TIP3    H153215   3.870   5.290  11.812 -0.8390  0.2323 -1.6081
10600TIP3    H253216   3.746   5.366  11.855  0.1358  1.2826 -0.5647
10601TIP3   OH253217   4.605   3.035   2.409  0.6724 -0.3726 -0.3754
10601TIP3    H153218   4.525   3.073   2.447  1.3237  0.1568  0.4991
10601TIP3    H253219   4.588   3.034   2.315 -0.5869 -0.7998 -0.1660
10602TIP3   OH253220   2.429   1.269  13.396 -0.4040  0.1383  0.0567
10602TIP3    H153221   2.413   1.255  13.302 -1.2224 -0.1429  0.2251
10602TIP3    H253222   2.471   1.355  13.401 -1.7441  0.8504 -0.4517
10603TIP3   OH253223   0.456   3.466  12.319  0.6373  0.0405  0.2632
10603TIP3    H153224   0.450   3.428  12.232  0.3584  0.9389 -0.1161
10603TIP3    H253225   0.386   3.531  12.322  2.4932  2.1723  0.0642
10604TIP3   OH253226   3.496   3.546   3.191 -0.4197 -0.1239 -0.0390
10604TIP3    H153227   3.533   3.610   3.252 -1.1925 -0.3817  0.7257
10604TIP3    H253228   3.410   3.582   3.167 -0.6119 -0.5847 -0.0636
10605TIP3   OH253229   0.741   5.359  14.622 -0.2561  0.2051  0.2147
10605TIP3    H153230   0.728   5.420  14.695 -2.2025 -0.7254  0.7112
10605TIP3    H253231   0.674   5.384  14.558  1.2415  0.8297 -1.1867
10606TIP3   OH253232   1.059   5.845   3.586  0.6164  0.1524  0.4458
10606TIP3    H153233   1.124   5.913   3.570 -0.2312  1.2679  1.5218
10606TIP3    H253234   0.977   5.893   3.602 -0.7224 -1.2287 -1.8184
10607TIP3   OH253235   2.859   4.527  12.611 -0.1339  0.0512  0.3453
10607TIP3    H153236   2.825   4.589  12.675 -1.2741 -0.1595 -0.0247
10607TIP3    H253237   2.809   4.447  12.627  0.3894 -0.3542 -0.0438
10608TIP3   OH253238   5.957   0.700  16.767  0.1734 -0.0349 -0.0524
10608TIP3    H153239   6.010   0.725  16.842 -0.9720  0.2418  0.6992
10608TIP3    H253240   5.922   0.614  16.790  1.7619 -1.0921 -1.3603
10609TIP3   OH253241   4.659   6.199   2.324 -0.7936  0.7627 -0.1074
10609TIP3    H153242   4.691   6.274   2.375  0.3843  1.3318 -1.6316
10609TIP3    H253243   4.634   6.236   2.240 -0.2383 -0.5519 -0.8757
10610TIP3   OH253244   2.969   1.665   0.258  0.1925 -0.3331  0.3611
10610TIP3    H153245   3.030   1.647   0.329  1.1224  1.0084 -0.0500
10610TIP3    H253246   3.026   1.679   0.182 -0.4719  2.4809  0.2812
10611TIP3   OH253247   2.222   5.845   2.567  0.2567  0.6488  0.3374
10611TIP3    H153248   2.252   5.842   2.658 -2.3771  0.9170  1.3135
10611TIP3    H253249   2.217   5.938   2.546  0.3137  0.6029  0.1172
10612TIP3   OH253250   5.454   0.697   4.851  0.4332  0.3630 -0.3726
10612TIP3    H153251   5.418   0.746   4.925 -1.6227 -0.0470 -1.0240
10612TIP3    H253252   5.543   0.730   4.841  1.0508 -0.0695  2.7097
10613TIP3   OH253253   5.572   1.850   6.013  0.0133 -0.5558 -0.1620
10613TIP3    H153254   5.606   1.940   6.011 -0.0276 -0.5389 -0.1116
10613TIP3    H253255   5.478   1.859   5.998  0.2536 -0.7355 -1.9621
10614TIP3   OH253256   4.304   5.608   1.168  0.5163  0.2697  0.3325
10614TIP3    H153257   4.394   5.639   1.177 -0.4050  2.8815  1.6366
10614TIP3    H253258   4.263   5.629   1.252 -0.8686 -2.6542  0.5039
10615TIP3   OH253259   4.354   0.011   2.984 -0.3805  0.1529  0.2577
10615TIP3    H153260   4.362   0.098   2.947 -1.7626  0.2378  0.1031
10615TIP3    H253261   4.331   0.025   3.076  1.2408 -0.0669  0.7354
10616TIP3   OH253262   6.260   3.573  12.155 -0.3448  0.0643 -0.0327
10616TIP3    H153263   6.234   3.504  12.094  1.4064 -1.2915  0.6774
10616TIP3    H253264   6.353   3.587  12.138 -0.2674  1.0144  1.0235
10617TIP3   OH253265   3.966   2.936   0.965 -0.3823  0.0548  0.3431
10617TIP3    H153266   3.957   2.925   1.060 -2.9977 -1.3829  0.0268
10617TIP3    H253267   3.891   2.889   0.928  0.7236  0.2916 -2.4791
10618TIP3   OH253268   2.366   3.138   4.019 -0.1646 -0.7455 -0.4022
10618TIP3    H153269   2.361   3.180   4.105  0.4538 -1.7176  0.1116
10618TIP3    H253270   2.458   3.114   4.008 -0.2506 -0.7146 -1.3045
10619TIP3   OH253271   0.317   6.771   5.522 -0.6807  0.3182  0.3904
10619TIP3    H153272   0.239   6.764   5.467  0.5748 -1.8813 -1.2609
10619TIP3    H253273   0.307   6.701   5.587 -1.1993  1.6207  1.7672
10620TIP3   OH253274   6.544   2.336  13.023 -0.5528  0.1798  0.0761
10620TIP3    H153275   6.557   2.399  12.952  0.5080  0.1756  0.2479
10620TIP3    H253276   6.627   2.337  13.071 -0.7370 -0.8995  0.4420
10621TIP3   OH253277   4.470   2.420  12.208 -0.0170  0.0186  0.1667
10621TIP3    H153278   4.532   2.414  12.135  0.1274  0.3228  0.2622
10621TIP3    H253279   4.486   2.507  12.246 -0.4981  0.0953  0.1958
10622TIP3   OH253280   0.595   1.688   5.829  0.1715  0.0929 -0.1703
10622TIP3    H153281   0.500   1.682   5.837  0.2122 -0.6948 -0.2485
10622TIP3    H253282   0.611   1.688   5.734  0.0592  3.5924 -0.3129
10623TIP3   OH253283   5.142   6.106  13.355 -0.3115  0.2717 -0.1104
10623TIP3    H153284   5.143   6.011  13.369 -1.6790  0.1084 -1.0397
10623TIP3    H253285   5.201   6.140  13.423  0.5255 -1.2600 -0.0251
10624TIP3   OH253286   2.420   1.313   0.774  0.3467  0.2780 -0.0510
10624TIP3    H153287   2.478   1.342   0.703  0.5499 -0.6734 -0.2887
10624TIP3    H253288   2.443   1.221   0.787 -0.1580  0.2664  0.7995
10625TIP3   OH253289   5.247   0.159  11.298 -0.7044  0.3478  0.0350
10625TIP3    H153290   5.177   0.100  11.327  0.5235  0.2251  3.0185
10625TIP3    H253291   5.202   0.240  11.274 -2.1146 -0.7268 -1.0839
10626TIP3   OH253292   5.367   4.967  14.379  0.6671  0.0229 -0.6377
10626TIP3    H153293   5.312   4.953  14.302 -1.8060 -0.5773  1.1313
10626TIP3    H253294   5.348   5.057  14.406 -0.2103 -0.4780  0.5033
10627TIP3   OH253295   2.094   0.212   6.280  0.0965  0.2678  0.0098
10627TIP3    H153296   2.095   0.229   6.374  0.0996 -0.3168  0.1200
10627TIP3    H253297   2.112   0.118   6.273 -1.2917  0.0213 -0.5119
10628TIP3   OH253298   1.928   1.612  13.461  0.0693  0.6182  0.6607
10628TIP3    H153299   1.934   1.525  13.422  0.5500  0.2401  1.5388
10628TIP3    H253300   1.953   1.672  13.391  0.7339 -0.0304  0.3345
10629TIP3   OH253301   0.383   2.834  13.949 -0.0020 -0.6135 -0.0140
10629TIP3    H153302   0.402   2.765  13.885 -0.1992 -0.1090 -0.6333
10629TIP3    H253303   0.291   2.823  13.970  0.3767 -1.6195  1.2293
10630TIP3   OH253304   1.004   3.969   3.229 -0.4641  0.3673 -0.3538
10630TIP3    H153305   0.927   3.913   3.231  0.8979 -1.6323  2.2376
10630TIP3    H253306   1.043   3.953   3.143 -1.9323  0.0241 -0.9900
10631TIP3   OH253307   3.766   3.147   3.117  0.6569 -0.0003 -0.7296
10631TIP3    H153308   3.758   3.238   3.143 -2.1007  0.0226 -1.4185
10631TIP3    H253309   3.786   3.100   3.198 -0.6994  0.9007  0.1568
10632TIP3   OH253310   5.171   3.639  16.677 -0.6632 -0.0721 -0.4274
10632TIP3    H153311   5.139   3.651  16.587  0.2659 -0.0138 -0.7600
10632TIP3    H253312   5.239   3.705  16.688 -0.7664 -0.0780  0.3257
10633TIP3   OH253313   5.065   4.180  14.352  0.3564  0.0185  0.2554
10633TIP3    H153314   5.118   4.146  14.280 -0.1754  1.2326 -0.7356
10633TIP3    H253315   5.122   4.241  14.398 -0.0039  0.9507 -0.5134
10634TIP3   OH253316   0.286   1.239   5.057  0.3152 -0.4648 -0.4698
10634TIP3    H153317   0.252   1.150   5.045 -1.0625 -0.0895  0.3688
10634TIP3    H253318   0.272   1.257   5.150  0.7374  0.5731 -0.6014
10635TIP3   OH253319   2.213   4.988  14.448  0.3461 -0.0022  0.2760
10635TIP3    H153320   2.174   4.977  14.536 -0.0241 -0.8978  0.0198
10635TIP3    H253321   2.213   5.082  14.433 -2.5991  0.0388 -0.0546
10636TIP3   OH253322   3.605   6.356   0.855  0.1409  0.0887  0.1765
10636TIP3    H153323   3.551   6.435   0.854 -0.3607 -0.2489  0.3698
10636TIP3    H253324   3.598   6.323   0.945 -2.8496 -2.3390 -0.7792
10637TIP3   OH253325   5.945   2.081  12.047 -0.2757 -0.4755 -0.1791
10637TIP3    H153326   5.887   2.129  12.107 -0.2160 -0.7523  0.1073
10637TIP3    H253327   6.009   2.145  12.019 -2.1542  0.5228 -2.4775
10638TIP3   OH253328   1.294   4.056   5.319 -0.1802 -0.1927  0.1261
10638TIP3    H153329   1.380   4.089   5.346 -0.1539 -0.4128  0.3102
10638TIP3    H253330   1.238   4.073   5.395 -1.1059  2.9668 -1.0933
10639TIP3   OH253331   3.968   5.318  17.241 -0.2310  0.1908  0.3928
10639TIP3    H153332   3.883   5.294  17.204 -0.3052 -0.3435  0.8913
10639TIP3    H253333   4.029   5.312  17.168 -0.2158 -1.7223  0.4957
10640TIP3   OH253334   4.161   3.127  11.793 -0.5379 -0.4669  0.0669
10640TIP3    H153335   4.214   3.057  11.755 -0.1528 -1.1607  1.7885
10640TIP3    H253336   4.196   3.139  11.882 -1.0225  1.4645  0.0551
10641TIP3   OH253337   5.224   5.910  11.112  0.1739  0.0007 -0.1812
10641TIP3    H153338   5.185   5.996  11.126  0.4741  0.2399 -0.8007
10641TIP3    H253339   5.214   5.894  11.018  1.0064 -0.2116 -0.2371
10642TIP3   OH253340   5.794   0.644   2.561  0.3000  0.1003  0.0064
10642TIP3    H153341   5.805   0.550   2.573 -0.3016  0.2289  1.8576
10642TIP3    H253342   5.851   0.666   2.487  2.0661 -1.3606  0.8737
10643TIP3   OH253343   6.164   4.019  16.043  0.1597  0.1114 -0.3197
10643TIP3    H153344   6.145   4.075  16.119 -0.0128 -0.0716 -0.2267
10643TIP3    H253345   6.230   3.957  16.075 -0.6019 -0.5717 -0.0413
10644TIP3   OH253346   0.318   4.651  15.919  0.1066  0.2566  0.1448
10644TIP3    H153347   0.281   4.603  15.844 -1.5412 -0.5062  1.3895
10644TIP3    H253348   0.365   4.724  15.879  1.2968 -1.4146 -1.7438
10645TIP3   OH253349   3.123   4.728   4.340  0.2204  0.5242  0.8598
10645TIP3    H153350   3.184   4.663   4.306 -0.4882  0.6834 -0.8269
10645TIP3    H253351   3.176   4.782   4.400  1.7289  0.6136 -0.4847
10646TIP3   OH253352   0.415   2.973   2.110  0.8174  0.3271  0.0537
10646TIP3    H153353   0.376   2.979   2.023  2.0003 -0.8939 -0.6054
10646TIP3    H253354   0.409   3.061   2.146 -0.6678  0.6069 -0.8272
10647TIP3   OH253355   2.374   3.343   4.894 -0.3045 -0.2838  0.2226
10647TIP3    H153356   2.281   3.339   4.874 -0.2132 -0.2802 -0.2064
10647TIP3    H253357   2.379   3.327   4.989 -0.6532 -1.3449  0.0728
10648TIP3   OH253358   0.575   6.089  15.525  0.2143 -0.3892  0.0174
10648TIP3    H153359   0.630   6.161  15.495 -1.6035  0.5397 -1.3213
10648TIP3    H253360   0.589   6.086  15.620 -0.0146  2.0969  0.2003
10649TIP3   OH253361   1.205   6.023   1.721 -0.1131 -0.2726  0.2531
10649TIP3    H153362   1.221   5.940   1.766 -0.2237 -0.3717  0.1099
10649TIP3    H253363   1.257   6.087   1.769  0.5474 -0.5527 -0.0700
10650TIP3   OH253364   6.653   6.403  12.339 -0.4925  0.5565 -0.2812
10650TIP3    H153365   6.589   6.335  12.320 -0.6693  0.8363 -0.7233
10650TIP3    H253366   6.728   6.382  12.283  0.1961 -0.2969  0.9056
10651TIP3   OH253367   0.527   2.613  13.823  0.5903 -0.1573  0.6476
10651TIP3    H153368   0.594   2.666  13.866  1.0497 -0.3459  0.1751
10651TIP3    H253369   0.544   2.523  13.853  0.3977 -0.1705  0.7185
10652TIP3   OH253370   2.440   6.637   1.997 -0.0857  0.3074 -0.3007
10652TIP3    H153371   2.349   6.611   2.011 -0.4616 -0.0678 -2.8906
10652TIP3    H253372   2.436   6.702   1.927  1.5850  0.7933  0.0211
10653TIP3   OH253373   0.044   3.437  12.116  0.2252 -0.6536  0.3013
10653TIP3    H153374   0.101   3.510  12.141 -1.8085  1.8476 -1.8425
10653TIP3    H253375   0.070   3.416  12.026 -3.8797  2.6815 -2.0098
10654TIP3   OH253376   3.932   5.210  15.280 -0.3166  0.1254 -0.1156
10654TIP3    H153377   3.875   5.172  15.346  0.1685  1.3175  1.0452
10654TIP3    H253378   3.984   5.136  15.248 -0.3264 -0.4265  1.0885
10655TIP3   OH253379   1.697   4.355   5.980 -0.0873  0.2148  0.1130
10655TIP3    H153380   1.776   4.405   5.958  0.8842 -0.6819  1.3491
10655TIP3    H253381   1.714   4.322   6.069 -1.7009 -0.3272  0.2577
10656TIP3   OH253382   0.725   3.033  11.239  0.2485 -0.0287 -0.5167
10656TIP3    H153383   0.654   3.095  11.221 -0.6763 -0.9550 -0.1297
10656TIP3    H253384   0.682   2.948  11.246  1.3415 -0.5442  0.1889
10657TIP3   OH253385   1.924   3.386  12.776  0.1693  0.1672  0.7660
10657TIP3    H153386   1.883   3.459  12.729 -0.3291 -0.6371 -0.0744
10657TIP3    H253387   2.008   3.374  12.731 -0.0424 -0.2026  0.4579
10658TIP3   OH253388   5.778   3.608   1.935  0.0611  0.2453 -0.0376
10658TIP3    H153389   5.837   3.599   2.010  1.9607 -2.5272 -1.6300
10658TIP3    H253390   5.831   3.577   1.861 -0.4571  5.8447 -3.3137
10659TIP3   OH253391   2.904   1.704  12.895 -0.1390 -0.1581  0.2717
10659TIP3    H153392   2.903   1.608  12.891  0.4369 -0.2134  1.1374
10659TIP3    H253393   2.841   1.726  12.964 -1.1180  0.1517 -0.7052
10660TIP3   OH253394   5.985   3.611   1.025  0.0993 -0.2786  0.2463
10660TIP3    H153395   5.972   3.533   0.971 -0.5220 -1.3976  1.9515
10660TIP3    H253396   6.079   3.626   1.023  0.1138 -0.4335 -0.9319
10661TIP3   OH253397   6.388   5.511  12.292  0.4944  0.1372  0.0501
10661TIP3    H153398   6.412   5.603  12.281  1.6800 -0.2402 -0.6646
10661TIP3    H253399   6.398   5.495  12.386 -1.0161  1.0664  0.3987
10662TIP3   OH253400   4.140   0.347   6.840  0.2768  0.2783 -0.1799
10662TIP3    H153401   4.166   0.254   6.836  1.5117  0.4359  2.2698
10662TIP3    H253402   4.165   0.382   6.754  1.2867 -1.2951 -0.5753
10663TIP3   OH253403   2.686   3.776  16.510  0.0884 -0.2788  0.6061
10663TIP3    H153404   2.705   3.790  16.602 -0.4939  1.4995  0.4957
10663TIP3    H253405   2.750   3.710  16.482  0.2410 -0.8805  2.2656
10664TIP3   OH253406   4.807   1.772   0.846  0.3599  0.1558 -0.2166
10664TIP3    H153407   4.762   1.758   0.762  0.8538 -0.7944 -0.3354
10664TIP3    H253408   4.900   1.764   0.825  0.4723 -0.4837  0.4888
10665TIP3   OH253409   5.532   5.025  17.029  0.2904  0.1461 -0.5351
10665TIP3    H153410   5.514   5.091  16.961  1.7267 -1.5707 -2.7502
10665TIP3    H253411   5.446   5.001  17.063 -0.2991  2.8109  0.0525
10666TIP3   OH253412   1.285   5.015   2.744  0.6238  0.0048  0.3246
10666TIP3    H153413   1.309   4.977   2.828 -1.4310 -0.7543  0.6180
10666TIP3    H253414   1.254   4.941   2.692 -3.3554  1.0940  0.8586
10667TIP3   OH253415   5.250   6.545   5.393  0.7961 -0.0096  0.3154
10667TIP3    H153416   5.259   6.624   5.447  2.3139 -0.1070  0.2388
10667TIP3    H253417   5.229   6.578   5.305 -1.3174  0.1621  0.8244
10668TIP3   OH253418   6.349   2.816  14.658 -0.2268  0.0056 -0.2722
10668TIP3    H153419   6.322   2.743  14.714 -1.8756  0.4931 -0.3862
10668TIP3    H253420   6.382   2.775  14.579 -1.6671 -0.6363 -0.5655
10669TIP3   OH253421   6.432   3.100   2.639 -0.6834  0.3702 -0.5508
10669TIP3    H153422   6.513   3.064   2.603  0.2988  0.5504  1.3511
10669TIP3    H253423   6.460   3.176   2.690 -2.0687  0.5126  0.0366
10670TIP3   OH253424   5.402   5.323   4.235 -0.6482 -0.6753 -0.3641
10670TIP3    H153425   5.427   5.376   4.311  0.0176 -0.2808 -0.8373
10670TIP3    H253426   5.482   5.275   4.212 -0.7563 -0.5743 -0.9764
10671TIP3   OH253427   4.591   5.454  13.144 -0.2883  0.2285 -0.2448
10671TIP3    H153428   4.673   5.422  13.182 -1.6523 -0.4928  2.3447
10671TIP3    H253429   4.569   5.391  13.076  0.6969 -0.2510 -0.1337
10672TIP3   OH253430   0.570   0.486  12.679 -0.3755  0.2718  0.2963
10672TIP3    H153431   0.650   0.539  12.686  0.1403 -0.5246  0.6201
10672TIP3    H253432   0.581   0.419  12.747 -0.0978 -1.4303 -1.3685
10673TIP3   OH253433   0.774   0.982  11.866  0.3090  0.1446  0.1699
10673TIP3    H153434   0.809   0.914  11.923 -0.1027 -1.0519 -0.9533
10673TIP3    H253435   0.680   0.980  11.881  0.0877 -0.8271 -1.1880
10674TIP3   OH253436   3.147   6.632   5.527  0.0004 -0.6334  0.3869
10674TIP3    H153437   3.209   6.561   5.508 -0.9643 -1.0664 -1.4325
10674TIP3    H253438   3.101   6.603   5.606 -1.6455 -3.0297 -1.3071
10675TIP3   OH253439   4.565   3.894  17.097  0.0077 -0.6949 -0.3764
10675TIP3    H153440   4.554   3.842  17.177 -1.1812 -0.4869 -0.3900
10675TIP3    H253441   4.652   3.869  17.064  0.0374 -1.6266  0.3610
10676TIP3   OH253442   4.182   6.493  16.247  0.0817  0.1795 -0.0809
10676TIP3    H153443   4.218   6.557  16.186  1.6921  0.2890  0.9230
10676TIP3    H253444   4.207   6.525  16.334 -0.9176 -0.7145  0.5705
10677TIP3   OH253445   3.253   4.297   1.451  0.2319 -0.6752 -0.7352
10677TIP3    H153446   3.231   4.263   1.538  0.1896 -1.1847 -0.9394
10677TIP3    H253447   3.219   4.386   1.451 -1.9255 -1.4217 -1.0497
10678TIP3   OH253448   0.281   6.024   5.018  0.3152 -0.1100  0.5015
10678TIP3    H153449   0.298   6.103   5.069  0.5857  1.0547 -1.2817
10678TIP3    H253450   0.268   5.955   5.083  2.1765  0.9530  2.1053
10679TIP3   OH253451   0.889   6.307  13.556  0.5057 -0.4897  1.1490
10679TIP3    H153452   0.845   6.228  13.525  0.1935  0.1293 -0.0409
10679TIP3    H253453   0.980   6.296  13.529  0.0071  0.5948 -1.2359
10680TIP3   OH253454   4.469   4.360   4.061 -0.7151 -0.2815  0.3171
10680TIP3    H153455   4.533   4.294   4.034 -0.0556  0.4739  0.0059
10680TIP3    H253456   4.417   4.316   4.128  0.0586 -0.9472  0.5008
10681TIP3   OH253457   1.557   2.637   4.142  0.2732 -0.3859  0.8488
10681TIP3    H153458   1.504   2.697   4.089  0.6925 -0.3878  0.4227
10681TIP3    H253459   1.493   2.593   4.198 -0.0783  0.2086  0.9247
10682TIP3   OH253460   3.582   3.633  17.159  0.3752  0.1663  0.3293
10682TIP3    H153461   3.602   3.673  17.074 -1.1250 -0.3553 -0.2972
10682TIP3    H253462   3.593   3.539  17.144  1.5642  0.1552  1.1484
10683TIP3   OH253463   6.046   2.974   4.417 -0.0602  0.5386  0.0761
10683TIP3    H153464   6.010   2.933   4.496  1.1434 -0.2569  0.2300
10683TIP3    H253465   5.973   2.976   4.356 -0.5779 -0.3228  0.6514
10684TIP3   OH253466   5.594   3.309  14.150 -0.1449 -0.4323 -0.7903
10684TIP3    H153467   5.501   3.292  14.140 -0.6231  2.0293 -1.3087
10684TIP3    H253468   5.599   3.399  14.183  2.0573 -0.3654 -1.0994
10685TIP3   OH253469   2.114   1.713   0.311 -0.4810 -0.0794  0.5312
10685TIP3    H153470   2.133   1.797   0.269  0.0660  0.3912  1.6923
10685TIP3    H253471   2.075   1.660   0.241  1.3673  0.3116 -0.8749
10686TIP3   OH253472   2.625   1.018   3.067  0.1546  0.1911 -0.7347
10686TIP3    H153473   2.576   0.947   3.025 -0.6980 -0.0215  0.5584
10686TIP3    H253474   2.682   0.974   3.129  1.3208  0.5094 -1.5488
10687TIP3   OH253475   5.121   3.135  14.575 -0.1615 -0.1174 -0.5344
10687TIP3    H153476   5.098   3.058  14.627 -2.1730  2.1105  2.2054
10687TIP3    H253477   5.081   3.120  14.490 -0.8897 -1.9102  0.0800
10688TIP3   OH253478   5.855   5.410   2.098  0.1929 -0.7159 -0.2363
10688TIP3    H153479   5.796   5.356   2.045  0.8185 -0.3918 -1.2917
10688TIP3    H253480   5.801   5.484   2.126 -1.3206 -2.8496  3.0571
10689TIP3   OH253481   4.372   6.191   5.801 -0.4019  0.4578  0.0397
10689TIP3    H153482   4.449   6.188   5.858 -0.5318 -1.5342  0.1734
10689TIP3    H253483   4.300   6.159   5.855 -1.2538  1.8399 -0.2299
10690TIP3   OH253484   4.064   2.420  14.328 -0.2911  0.4938  0.1556
10690TIP3    H153485   4.090   2.402  14.419 -1.6465  0.5291  0.5662
10690TIP3    H253486   4.136   2.384  14.275  0.9788  1.3187  1.2559
10691TIP3   OH253487   3.410   0.933  12.526 -0.5967  0.0031 -0.3466
10691TIP3    H153488   3.409   1.023  12.494 -1.7184  0.7192  1.5064
10691TIP3    H253489   3.328   0.895  12.495  0.2695 -0.7211 -1.8748
10692TIP3   OH253490   0.283   2.178  16.330  0.1488  0.6963  0.2010
10692TIP3    H153491   0.231   2.108  16.289 -0.0774  1.2305 -0.4492
10692TIP3    H253492   0.271   2.165  16.424  0.6621 -0.5562  0.1138
10693TIP3   OH253493   5.289   5.512   6.158  0.5203  0.7700  0.3914
10693TIP3    H153494   5.248   5.448   6.099 -2.3379  2.1360  0.7065
10693TIP3    H253495   5.314   5.585   6.102  2.1136  0.1944  0.2937
10694TIP3   OH253496   5.260   5.814   0.161 -0.5913  0.3326 -0.3206
10694TIP3    H153497   5.264   5.868   0.082 -0.8798 -0.6888 -1.0464
10694TIP3    H253498   5.286   5.874   0.232  0.5229  1.0293 -1.2827
10695TIP3   OH253499   4.681   6.510  12.670  0.4384  0.0311  0.3453
10695TIP3    H153500   4.680   6.456  12.591 -0.2216 -1.3892  1.2654
10695TIP3    H253501   4.659   6.449  12.740  1.5130  1.1444  1.7097
10696TIP3   OH253502   3.892   2.025   1.591 -0.3947  0.0069 -0.5842
10696TIP3    H153503   3.984   2.000   1.604 -0.6501 -0.8169 -0.3292
10696TIP3    H253504   3.891   2.119   1.611  0.3867  0.0234 -0.5584
10697TIP3   OH253505   0.607   3.336   1.732  0.3028 -0.4290 -0.0687
10697TIP3    H153506   0.557   3.316   1.653  1.8524 -0.1658 -1.1600
10697TIP3    H253507   0.698   3.341   1.702  0.6279  3.0711  1.0348
10698TIP3   OH253508   6.500   3.605  15.787  0.2487 -0.1859 -0.3023
10698TIP3    H153509   6.480   3.693  15.821 -0.7553 -1.4479  2.6597
10698TIP3    H253510   6.587   3.586  15.821  1.0602  0.1179 -2.0911
10699TIP3   OH253511   5.373   4.589   4.974  0.2325 -0.4707  0.0045
10699TIP3    H153512   5.372   4.574   4.879 -0.4630 -1.4438  0.1574
10699TIP3    H253513   5.463   4.572   5.000  0.4635 -0.0638 -0.4938
10700TIP3   OH253514   1.340   6.761  12.073  0.0802 -0.0989  0.9200
10700TIP3    H153515   1.422   6.782  12.030  0.3144 -0.1919  1.3151
10700TIP3    H253516   1.306   6.847  12.101  0.7162 -0.1662  1.9560
10701TIP3   OH253517   0.345   4.745  16.165  0.1375 -0.0230  0.0177
10701TIP3    H153518   0.345   4.718  16.074 -2.5811 -1.9764  0.4776
10701TIP3    H253519   0.426   4.708  16.201  0.9281  0.2334 -1.4237
10702TIP3   OH253520   4.763   4.440  17.238 -0.3161 -0.1929 -0.5516
10702TIP3    H153521   4.756   4.519  17.185 -0.3046 -0.1917 -0.5511
10702TIP3    H253522   4.779   4.472  17.327 -2.0182 -0.1355 -0.2347
10703TIP3   OH253523   5.770   5.187   5.622 -0.5189 -0.1218  0.0835
10703TIP3    H153524   5.800   5.235   5.699  1.3763  0.2587 -0.8347
10703TIP3    H253525   5.760   5.253   5.554 -0.7114 -0.6420 -0.4085
10704TIP3   OH253526   4.405   4.627   3.802  0.3438 -0.1406  0.3177
10704TIP3    H153527   4.392   4.567   3.728 -0.6004  0.3230  0.0799
10704TIP3    H253528   4.485   4.596   3.845  0.0942 -1.3217 -0.0243
10705TIP3   OH253529   1.247   0.016  16.727 -0.1752 -0.0481  0.2864
10705TIP3    H153530   1.325   0.071  16.732 -0.9009  0.9213  1.6797
10705TIP3    H253531   1.174   0.079  16.721 -1.0248 -0.8389  1.8141
10706TIP3   OH253532   0.093   1.024  12.688  0.0405  0.0584  0.5949
10706TIP3    H153533   0.143   0.947  12.659 -0.4057  0.5111 -1.5413
10706TIP3    H253534   0.159   1.093  12.697  0.1481 -0.0213  0.4183
10707TIP3   OH253535   5.205   5.572  11.149 -0.0594 -0.2836 -0.2278
10707TIP3    H153536   5.217   5.599  11.058  2.4632 -1.2912 -0.2631
10707TIP3    H253537   5.224   5.650  11.200 -2.2820  0.5227 -0.4866
10708TIP3   OH253538   3.455   3.569   0.313  0.0481 -0.2132  0.1007
10708TIP3    H153539   3.373   3.521   0.300  0.7295 -1.3091 -0.2589
10708TIP3    H253540   3.518   3.502   0.339  0.7753  0.6602  0.6291
10709TIP3   OH253541   6.558   6.093  15.261  0.1145 -0.6396  0.2262
10709TIP3    H153542   6.563   6.009  15.306  1.1889 -0.7282 -0.0135
10709TIP3    H253543   6.631   6.144  15.297 -0.9307  0.4457  0.8551
10710TIP3   OH253544   5.749   0.682  17.117  0.4808 -0.6580  0.1056
10710TIP3    H153545   5.825   0.739  17.130  1.7801 -2.3102 -0.0043
10710TIP3    H253546   5.712   0.709  17.033  1.5285 -0.4720 -0.3045
10711TIP3   OH253547   2.528   1.278  16.320  0.3037 -0.1705  0.5721
10711TIP3    H153548   2.494   1.189  16.312 -0.2352  0.1478 -1.0847
10711TIP3    H253549   2.471   1.330  16.263 -0.3156  1.5192  2.6045
10712TIP3   OH253550   6.311   4.094  17.114 -0.5067 -0.2722  0.1457
10712TIP3    H153551   6.359   4.126  17.038  1.7104 -0.4203  1.3821
10712TIP3    H253552   6.370   4.028  17.153 -2.2058 -1.2527  1.1691
10713TIP3   OH253553   2.570   2.331   4.107 -0.3800  0.0914 -0.6191
10713TIP3    H153554   2.483   2.336   4.148  1.4822  1.1355  3.7719
10713TIP3    H253555   2.593   2.421   4.088  0.4155  0.0043 -0.0926
10714TIP3   OH253556   1.628   5.115   1.860 -0.0889 -1.0055 -0.0085
10714TIP3    H153557   1.621   5.020   1.864 -1.9115 -0.8638  1.9106
10714TIP3    H253558   1.710   5.135   1.904  1.1861 -1.6906 -1.9086
10715TIP3   OH253559   6.091   2.546   5.342  0.2397  0.4458 -0.5346
10715TIP3    H153560   6.046   2.494   5.275  2.3617 -1.6501 -0.4796
10715TIP3    H253561   6.035   2.538   5.419  0.4691 -1.9207 -0.5162
10716TIP3   OH253562   2.964   0.624   5.497 -0.0076 -0.6566 -0.3559
10716TIP3    H153563   2.953   0.685   5.570 -2.3733  0.1142 -1.2600
10716TIP3    H253564   2.975   0.539   5.538  1.2578  0.0765  0.9050
10717TIP3   OH253565   1.530   6.536  16.280  0.0386  0.1563  0.0813
10717TIP3    H153566   1.571   6.465  16.329 -1.6922  1.3269  3.5958
10717TIP3    H253567   1.440   6.509  16.268  0.1034  0.4904 -1.3799
10718TIP3   OH253568   0.940   2.262  17.042  0.2793 -0.4537  0.3836
10718TIP3    H153569   1.014   2.320  17.027  0.8115 -0.5783  2.2711
10718TIP3    H253570   0.954   2.227  17.130 -2.9203  0.9464  1.6120
10719TIP3   OH253571   1.909   5.688   0.897 -0.2162 -0.1890 -0.7416
10719TIP3    H153572   1.837   5.693   0.835 -0.8075  1.5115  0.0415
10719TIP3    H253573   1.870   5.652   0.976 -0.7604  2.6561  0.3714
10720TIP3   OH253574   6.230   1.410  15.241  0.5885 -0.1600  0.6888
10720TIP3    H153575   6.165   1.382  15.177 -0.0242  2.0497  0.2575
10720TIP3    H253576   6.314   1.404  15.195  0.3199  0.0469  0.1718
10721TIP3   OH253577   4.689   6.722  15.178 -0.3274  0.1383 -0.4368
10721TIP3    H153578   4.614   6.720  15.237  0.2833  2.9880  0.6237
10721TIP3    H253579   4.765   6.715  15.236  0.2640 -0.5061 -1.2706
10722TIP3   OH253580   4.089   5.731   5.081  0.2185 -0.0403 -0.2089
10722TIP3    H153581   4.161   5.777   5.125 -0.8184  0.6610  0.8271
10722TIP3    H253582   4.082   5.647   5.125  0.6330 -0.2608 -0.5598
10723TIP3   OH253583   6.666   2.962  13.688 -0.2865 -0.4889  0.0198
10723TIP3    H153584   6.710   3.033  13.734 -1.4202 -0.8618  1.7468
10723TIP3    H253585   6.721   2.885  13.703  0.8088 -0.0804 -1.6432
10724TIP3   OH253586   5.079   0.454   0.338  0.0312  0.0966  0.1078
10724TIP3    H153587   5.015   0.389   0.310 -0.3664  0.4426  0.2058
10724TIP3    H253588   5.096   0.433   0.430  0.1008 -0.0257  0.0678
10725TIP3   OH253589   3.861   3.410  14.833 -0.3275 -0.6091  1.1069
10725TIP3    H153590   3.808   3.406  14.753  2.2817 -0.9972 -0.7435
10725TIP3    H253591   3.814   3.470  14.890 -1.0472  1.7561 -1.7407
10726TIP3   OH253592   0.032   0.247   0.251 -0.1330  0.5883 -0.7199
10726TIP3    H153593   0.092   0.212   0.185 -1.6889  0.7847 -2.2941
10726TIP3    H253594  -0.041   0.284   0.201 -0.5933  2.2582  1.0532
10727TIP3   OH253595   1.922   2.546   4.454  0.5547  0.5296  0.6460
10727TIP3    H153596   1.992   2.554   4.519 -0.3037 -0.7006  1.7895
10727TIP3    H253597   1.857   2.611   4.481  0.9190  1.1626  0.0217
10728TIP3   OH253598   0.407   0.258   3.225  0.5908 -0.0445  0.0168
10728TIP3    H153599   0.429   0.333   3.279  3.5230 -0.5460 -0.3561
10728TIP3    H253600   0.397   0.185   3.287  1.4668 -0.1054  0.0909
10729TIP3   OH253601   4.590   2.446  11.051 -0.5129 -0.5522 -0.3854
10729TIP3    H153602   4.500   2.445  11.082  0.2268  0.6877  2.1215
10729TIP3    H253603   4.590   2.507  10.977 -1.5174  0.4984  0.4494
10730TIP3   OH253604   2.091   3.381  16.346  1.0139  0.0941  0.3774
10730TIP3    H153605   2.023   3.329  16.304  0.8373  0.1115  0.6436
10730TIP3    H253606   2.173   3.349  16.308  0.9361 -0.6226  0.8002
10731TIP3   OH253607   3.146   6.531   5.113  0.6063  0.1204  0.1743
10731TIP3    H153608   3.217   6.554   5.054 -1.0080  1.3726 -1.3582
10731TIP3    H253609   3.190   6.514   5.197  2.7820 -0.0932 -0.9319
10732TIP3   OH253610   4.699   2.968   5.566 -0.0148  0.1221  0.6814
10732TIP3    H153611   4.709   2.972   5.471  0.1602 -0.2952  0.6807
10732TIP3    H253612   4.701   2.874   5.587  1.0757  0.2567  1.2223
10733TIP3   OH253613   3.120   5.470  15.384  0.0661  0.0990  0.0683
10733TIP3    H153614   3.173   5.391  15.370 -1.0601 -0.8638  1.0253
10733TIP3    H253615   3.062   5.473  15.308 -0.2719 -0.3215  0.3060
10734TIP3   OH253616   4.034   1.124   2.317  0.1978 -0.2849 -0.1888
10734TIP3    H153617   4.092   1.149   2.245  1.8017 -0.2763  1.0503
10734TIP3    H253618   4.055   1.186   2.387 -0.8513 -0.7006  0.5112
10735TIP3   OH253619   0.674   5.667  13.831  0.0148  0.2094  0.2959
10735TIP3    H153620   0.613   5.653  13.758  2.3809 -1.4457 -1.5084
10735TIP3    H253621   0.629   5.731  13.887 -3.7999 -1.6570 -0.2942
10736TIP3   OH253622   6.378   1.180   2.680  0.2169  0.0315  0.7827
10736TIP3    H153623   6.367   1.103   2.736  1.1108 -3.4608 -3.2936
10736TIP3    H253624   6.468   1.174   2.648 -0.3412  1.5022 -1.2733
10737TIP3   OH253625   4.961   0.811  15.215 -0.4844 -0.4542  0.3112
10737TIP3    H153626   4.881   0.820  15.266 -0.3853 -0.2104  0.4231
10737TIP3    H253627   4.996   0.899  15.209  0.8026 -0.8199  1.9085
10738TIP3   OH253628   6.620   2.427  14.921  0.1239  0.1922  0.5457
10738TIP3    H153629   6.570   2.397  14.845 -1.8737 -1.4045  2.3848
10738TIP3    H253630   6.591   2.517  14.936  2.2581  1.4288 -1.8408
10739TIP3   OH253631   0.337   4.508   3.271  0.0476 -0.6365 -1.1376
10739TIP3    H153632   0.286   4.427   3.257 -0.3117 -0.2608 -2.0966
10739TIP3    H253633   0.323   4.529   3.363 -2.4176  0.0176 -1.5892
10740TIP3   OH253634   4.469   1.943  12.486  0.0893 -0.4940  0.0349
10740TIP3    H153635   4.440   1.959  12.576 -0.3791  1.1190 -0.3740
10740TIP3    H253636   4.517   1.860  12.491  2.3246  0.7830  2.2763
10741TIP3   OH253637   0.042   0.074  12.497  0.1964  0.3410  0.5189
10741TIP3    H153638  -0.020   0.015  12.452  0.7658  0.1259 -0.0021
10741TIP3    H253639   0.012   0.162  12.473  0.0205  0.2425  0.3703
10742TIP3   OH253640   1.557   2.476   2.440 -0.5390  0.1150 -0.1100
10742TIP3    H153641   1.546   2.571   2.442  0.3771  0.2360 -0.2305
10742TIP3    H253642   1.567   2.455   2.347  0.6073  0.0831  0.0048
10743TIP3   OH253643   2.378   2.478   4.715  0.4975  0.0182  0.8250
10743TIP3    H153644   2.431   2.477   4.795 -0.2450 -1.5516  1.3228
10743TIP3    H253645   2.440   2.456   4.645  1.2199  1.7207  0.8691
10744TIP3   OH253646   2.462   4.433  14.998  0.2358 -0.2917  0.4840
10744TIP3    H153647   2.404   4.446  14.924  0.3099 -0.3053  0.4229
10744TIP3    H253648   2.404   4.426  15.074  0.1411 -0.6803  0.3750
10745TIP3   OH253649   1.991   0.424  11.174  1.0943 -0.0172 -0.6877
10745TIP3    H153650   2.050   0.441  11.100  2.8032 -0.7748  0.4251
10745TIP3    H253651   1.959   0.510  11.199  0.5660  0.2660 -2.2106
10746TIP3   OH253652   1.573   4.149  16.088 -0.0622 -0.0491 -0.4219
10746TIP3    H153653   1.623   4.132  16.168  0.8117  1.5625 -0.5796
10746TIP3    H253654   1.482   4.129  16.112  0.2409  0.0003  0.8442
10747TIP3   OH253655   2.026   1.865   1.925  0.3047  0.1843 -0.0431
10747TIP3    H153656   2.087   1.860   1.852  0.6947 -0.2863  0.3014
10747TIP3    H253657   2.081   1.855   2.003 -0.2751 -1.0536  0.2465
10748TIP3   OH253658   2.316   2.035  11.439 -0.2801 -0.5278 -0.0402
10748TIP3    H153659   2.347   2.032  11.529  0.2078 -0.6531 -0.2076
10748TIP3    H253660   2.350   1.955  11.399  0.8250  0.2580 -0.7412
10749TIP3   OH253661   0.909   2.841  13.616  0.3637  0.1221 -0.2037
10749TIP3    H153662   0.947   2.901  13.680 -1.4378 -0.5548  1.6122
10749TIP3    H253663   0.829   2.886  13.587  0.5227 -0.1373 -1.0790
10750TIP3   OH253664   4.538   6.564  13.059 -0.2445  0.2935  0.5487
10750TIP3    H153665   4.452   6.522  13.067  0.0915 -0.2341  1.7298
10750TIP3    H253666   4.548   6.611  13.142  0.9976 -0.4627  0.8515
10751TIP3   OH253667   2.034   6.197  13.231 -0.2823  0.0576  0.0878
10751TIP3    H153668   1.939   6.201  13.222 -0.4350 -1.8985  0.3475
10751TIP3    H253669   2.063   6.149  13.154  0.4698  0.3157  0.2048
10752TIP3   OH253670   6.165   5.019   0.758 -0.3928  0.1740 -0.2423
10752TIP3    H153671   6.089   4.972   0.726 -1.2597  1.0014  0.5419
10752TIP3    H253672   6.240   4.972   0.721 -1.1905 -1.8951  0.5979
10753TIP3   OH253673   0.304   0.103   4.030 -0.5749 -0.1648  0.5825
10753TIP3    H153674   0.325   0.068   4.116 -0.1477  3.1220  1.9724
10753TIP3    H253675   0.389   0.121   3.990 -0.7785 -0.8744 -0.2050
10754TIP3   OH253676   4.304   0.842   1.691 -0.7111  0.3410  0.2842
10754TIP3    H153677   4.208   0.848   1.690 -1.1578 -3.9442 -0.3471
10754TIP3    H253678   4.326   0.822   1.782 -0.5259  0.2826  0.2272
10755TIP3   OH253679   0.703   4.478   3.752 -0.0468 -0.1809 -0.5718
10755TIP3    H153680   0.752   4.509   3.677  0.8212 -2.2685 -0.9387
10755TIP3    H253681   0.631   4.541   3.762 -1.0824 -0.6073 -4.0755
10756TIP3   OH253682   4.461   5.598   0.435 -0.2773  0.3965  0.1967
10756TIP3    H153683   4.432   5.561   0.518  1.3149  0.6971  0.9260
10756TIP3    H253684   4.481   5.522   0.381 -3.5188  0.1174 -0.8495
10757TIP3   OH253685   1.408   2.926   3.319 -0.0424 -0.1406 -0.1024
10757TIP3    H153686   1.450   2.903   3.402  1.6490  0.1316 -0.8263
10757TIP3    H253687   1.480   2.957   3.264 -1.1349 -0.2017 -1.6368
10758TIP3   OH253688   2.740   2.881  11.800  0.7118  0.2453  0.7198
10758TIP3    H153689   2.678   2.832  11.747  1.4732 -0.3983  0.4035
10758TIP3    H253690   2.686   2.932  11.860 -0.2411  1.9424 -1.4480
10759TIP3   OH253691   1.071   3.604  11.490  0.2878  0.3946  0.3612
10759TIP3    H153692   1.062   3.511  11.507 -0.8163  0.6850  1.4567
10759TIP3    H253693   1.037   3.616  11.401  3.4268 -0.6922 -1.1159
10760TIP3   OH253694   3.781   2.911  15.934 -0.4758  0.0339 -0.6306
10760TIP3    H153695   3.744   2.927  16.021  2.7723  0.5931  0.7840
10760TIP3    H253696   3.857   2.856  15.950  1.2470  1.6073 -2.8668
10761TIP3   OH253697   1.467   3.367   0.684  0.1753  0.4741 -0.1800
10761TIP3    H153698   1.513   3.366   0.768  0.7976  0.0236 -0.5159
10761TIP3    H253699   1.536   3.354   0.619 -0.6550 -2.3665 -0.5887
10762TIP3   OH253700   4.134   5.806  15.437  0.5131  0.2076  0.1751
10762TIP3    H153701   4.077   5.734  15.465  1.1618 -0.7796 -0.9182
10762TIP3    H253702   4.127   5.871  15.507 -0.3892 -0.7587  1.0248
10763TIP3   OH253703   1.724   1.724   0.659  0.2665 -0.2566  0.0659
10763TIP3    H153704   1.630   1.716   0.639  0.3335  0.9618 -0.9114
10763TIP3    H253705   1.744   1.815   0.638  1.8396 -0.6964 -0.4464
10764TIP3   OH253706   4.835   2.378  12.820 -0.2319  0.2006 -0.0318
10764TIP3    H153707   4.812   2.295  12.862  0.0139  0.1769  0.0556
10764TIP3    H253708   4.924   2.396  12.849 -0.1242  0.2732 -0.4076
10765TIP3   OH253709   6.441   2.799   1.409  0.7162  0.0750  0.8707
10765TIP3    H153710   6.351   2.829   1.421  0.2966 -0.7401 -0.1076
10765TIP3    H253711   6.483   2.815   1.494 -0.3127  0.5777  1.3001
10766TIP3   OH253712   3.403   4.803  16.779 -0.5210 -0.2188 -0.1022
10766TIP3    H153713   3.327   4.780  16.726  0.7498  1.2214 -2.7491
10766TIP3    H253714   3.378   4.885  16.822 -1.3366 -1.0842  1.1555
10767TIP3   OH253715   1.460   2.753  13.372  0.3009 -0.0050 -0.3260
10767TIP3    H153716   1.384   2.710  13.410  0.5387 -0.1111  0.0427
10767TIP3    H253717   1.467   2.716  13.284  0.2448 -0.3987 -0.1673
10768TIP3   OH253718   1.197   2.257  16.882  0.3289  0.0641  0.4917
10768TIP3    H153719   1.144   2.178  16.891  1.1828 -0.7207 -0.9175
10768TIP3    H253720   1.281   2.235  16.922  0.9556 -0.1765 -0.9008
10769TIP3   OH253721   6.024   6.112  15.162  0.0121 -0.2743 -0.4118
10769TIP3    H153722   6.077   6.139  15.087 -0.6710  0.6496 -0.5734
10769TIP3    H253723   6.049   6.021  15.177  0.4143 -0.3654 -1.5432
10770TIP3   OH253724   3.903   3.586   4.376  0.4659  0.6424  0.4692
10770TIP3    H153725   3.911   3.504   4.426  2.7102  2.2045  3.0053
10770TIP3    H253726   3.843   3.639   4.428 -1.5720  0.4416 -1.5545
10771TIP3   OH253727   5.651   1.071  14.257  0.6263 -0.0497 -0.2304
10771TIP3    H153728   5.600   1.047  14.334  0.9143  0.3484  0.0910
10771TIP3    H253729   5.645   1.166  14.253  0.2005 -0.1038 -0.9923
10772TIP3   OH253730   4.733   5.059  11.972  0.7513  0.2311 -0.0163
10772TIP3    H153731   4.665   5.017  11.919 -2.1536  2.7034  1.4272
10772TIP3    H253732   4.769   5.127  11.916  2.1283 -1.0534 -0.7686
10773TIP3   OH253733   5.576   0.530  15.566  0.5953  0.0833  0.0109
10773TIP3    H153734   5.621   0.614  15.574  1.5550 -0.5047  1.1397
10773TIP3    H253735   5.599   0.483  15.646 -0.6697 -0.9100 -0.1741
10774TIP3   OH253736   5.777   2.960  12.919 -0.0659 -0.2960  0.0456
10774TIP3    H153737   5.712   2.890  12.927 -0.6643  0.2993  0.4637
10774TIP3    H253738   5.768   3.011  12.999  0.9471 -0.2201  0.1285
10775TIP3   OH253739   6.319   2.809  12.213 -0.2276 -0.0690 -0.0014
10775TIP3    H153740   6.413   2.824  12.203  0.0285 -1.2977  0.4164
10775TIP3    H253741   6.284   2.892  12.246  0.7944  0.2215  0.3605
10776TIP3   OH253742   1.022   6.636  11.621 -0.4494  0.3962  0.4130
10776TIP3    H153743   1.055   6.711  11.571  1.0661 -0.3901  0.1961
10776TIP3    H253744   1.071   6.637  11.703  0.9910 -1.4346 -0.3720
10777TIP3   OH253745   3.621   4.972   4.941 -0.3434  0.1822 -0.1826
10777TIP3    H153746   3.655   5.003   5.025  0.2615 -0.4567 -0.1828
10777TIP3    H253747   3.624   4.877   4.947 -0.4970  0.1264 -0.8453
10778TIP3   OH253748   6.048   1.789   5.219  0.1414  0.0191 -0.0454
10778TIP3    H153749   6.032   1.760   5.309 -1.7136 -1.2354 -0.7208
10778TIP3    H253750   5.973   1.846   5.199  0.8785  0.8241 -0.6024
10779TIP3   OH253751   5.325   1.372   6.134  0.1148 -0.6917 -0.0581
10779TIP3    H153752   5.265   1.440   6.165 -0.7902 -1.7812  0.6672
10779TIP3    H253753   5.390   1.364   6.203  0.7078 -0.0123 -0.5193
10780TIP3   OH253754   5.525   4.707   3.681 -0.2356  0.2028  0.0847
10780TIP3    H153755   5.470   4.635   3.711 -1.3446  0.4717 -1.1803
10780TIP3    H253756   5.469   4.784   3.685 -0.4954  0.2463 -2.5833
10781TIP3   OH253757   4.476   1.123   3.616  0.0232 -0.5193 -0.3322
10781TIP3    H153758   4.401   1.131   3.674  0.9053  0.5166  0.7036
10781TIP3    H253759   4.546   1.090   3.672  1.0536  1.0632 -0.6332
10782TIP3   OH253760   2.385   0.826   3.233  0.1337  0.4812 -0.1010
10782TIP3    H153761   2.394   0.739   3.194  0.6148 -0.1191  1.2738
10782TIP3    H253762   2.447   0.880   3.184  0.8261 -0.2803 -0.1012
10783TIP3   OH253763   2.181   4.023  12.622 -0.0043 -0.1300 -0.2107
10783TIP3    H153764   2.087   4.034  12.631 -0.0546 -0.6140 -0.0866
10783TIP3    H253765   2.191   3.937  12.580  0.3755 -0.0223 -0.3453
10784TIP3   OH253766   3.914   4.209   0.560 -0.2544 -0.3096  0.3649
10784TIP3    H153767   3.879   4.207   0.471  2.0255  1.7971 -0.6920
10784TIP3    H253768   3.983   4.276   0.557  1.6043 -1.9242  3.0908
10785TIP3   OH253769   2.275   0.316   4.808 -0.2850  0.0989  0.1836
10785TIP3    H153770   2.194   0.335   4.761 -1.0792 -0.5727  1.2219
10785TIP3    H253771   2.287   0.221   4.797  0.3247  0.1811  0.1063
10786TIP3   OH253772   4.568   5.264  12.760  0.4432 -0.3689 -0.1157
10786TIP3    H153773   4.616   5.185  12.786 -0.3608 -0.2074  2.0766
10786TIP3    H253774   4.478   5.249  12.788 -0.1721  0.5417 -1.4820
10787TIP3   OH253775   6.740   4.562   1.558 -0.6081  0.0924 -0.4771
10787TIP3    H153776   6.824   4.535   1.521  0.1734 -0.3420  1.4775
10787TIP3    H253777   6.688   4.588   1.483  0.6349 -1.3722 -1.9182
10788TIP3   OH253778   6.453   1.621  15.106 -0.0066  0.3888  0.0752
10788TIP3    H153779   6.476   1.528  15.099 -3.1094 -0.4663 -0.1548
10788TIP3    H253780   6.429   1.633  15.198  0.6314  1.0614  0.1674
10789TIP3   OH253781   1.056   2.347   2.918  0.4563 -0.3440  0.2775
10789TIP3    H153782   0.963   2.341   2.941  0.3202  0.8900  0.0966
10789TIP3    H253783   1.068   2.438   2.891  1.4672 -0.7718 -0.8113
10790TIP3   OH253784   5.853   0.568  11.605 -0.6504 -1.2160  0.1684
10790TIP3    H153785   5.821   0.593  11.519  1.3879 -1.3663 -0.6878
10790TIP3    H253786   5.882   0.651  11.645 -2.7126 -0.9505  1.2854
10791TIP3   OH253787   2.854   0.039  12.340  0.4344 -0.1609 -0.1937
10791TIP3    H153788   2.796  -0.031  12.311  1.0947 -0.6126 -0.4601
10791TIP3    H253789   2.926  -0.006  12.385  1.2092  0.2820 -0.9524
10792TIP3   OH253790   3.438   3.110   1.851 -0.3427 -0.0711 -0.2257
10792TIP3    H153791   3.346   3.136   1.847  0.3793  2.7756 -0.8917
10792TIP3    H253792   3.450   3.074   1.939 -1.9590  0.0235  0.0536
10793TIP3   OH253793   5.646   6.498  13.463  0.1733  0.4888  0.3855
10793TIP3    H153794   5.653   6.427  13.527  0.6669  0.8804  0.7795
10793TIP3    H253795   5.688   6.573  13.506  1.6899  0.4282 -0.8958
10794TIP3   OH253796   1.816   1.316   0.678 -0.1797  0.2179 -0.0160
10794TIP3    H153797   1.784   1.378   0.744  0.6460  0.0752  0.5402
10794TIP3    H253798   1.877   1.260   0.726  0.3947  0.0785 -0.8948
10795TIP3   OH253799   2.571   1.544  13.786 -0.4872 -0.2665 -0.8144
10795TIP3    H153800   2.560   1.508  13.698  0.2204 -1.4622 -0.4369
10795TIP3    H253801   2.484   1.578  13.809 -0.5775  0.4540 -2.1264
10796TIP3   OH253802   5.880   5.771  15.324 -0.3455 -0.1124 -0.3557
10796TIP3    H153803   5.793   5.749  15.289 -0.0643 -2.1127  0.1130
10796TIP3    H253804   5.864   5.846  15.381 -1.9803 -1.0900  0.5534
10797TIP3   OH253805   1.919   2.197  16.277 -0.1472  0.1596 -0.0067
10797TIP3    H153806   2.003   2.221  16.315 -0.9421  1.6469  0.9226
10797TIP3    H253807   1.904   2.264  16.210  0.0152 -0.8933 -1.1219
10798TIP3   OH253808   5.525   5.454  13.982  0.0457 -0.1603  0.3068
10798TIP3    H153809   5.516   5.423  13.891  0.7425 -0.4690  0.3347
10798TIP3    H253810   5.457   5.520  13.991 -1.6903 -1.8525  0.3110
10799TIP3   OH253811   3.012   5.750  11.164  0.6748 -0.1636  0.1602
10799TIP3    H153812   3.083   5.781  11.108 -0.8864  1.0623 -1.2248
10799TIP3    H253813   2.932   5.774  11.118 -0.7060  0.3294  2.6124
10800TIP3   OH253814   1.548   6.556   5.740  0.4961 -0.5719 -0.2692
10800TIP3    H153815   1.563   6.461   5.732 -1.3260 -0.8829 -0.4913
10800TIP3    H253816   1.455   6.563   5.763  0.5582  1.1779 -0.4709
10801TIP3   OH253817   2.969   1.610   2.661  0.6341  0.2460  0.1742
10801TIP3    H153818   2.966   1.569   2.748 -2.5959 -0.7461 -0.2712
10801TIP3    H253819   3.034   1.559   2.614  0.1145 -1.3629  1.0884
10802TIP3   OH253820   5.184   1.131   1.293 -0.6729  0.1541 -0.5988
10802TIP3    H153821   5.237   1.114   1.216  0.2906 -1.2282  0.3165
10802TIP3    H253822   5.216   1.069   1.359 -3.0369 -0.3830  0.1799
10803TIP3   OH253823   1.767   6.357   1.840 -0.4440  0.6238  0.0779
10803TIP3    H153824   1.821   6.329   1.767 -0.8799  0.7532 -0.3014
10803TIP3    H253825   1.792   6.299   1.912 -0.3091  0.2198 -0.2874
10804TIP3   OH253826   1.293   0.123   4.651  0.2443 -0.1955 -0.0437
10804TIP3    H153827   1.314   0.037   4.614 -0.9988 -0.7435  0.4886
10804TIP3    H253828   1.320   0.117   4.742  0.0638 -0.0410  0.0194
10805TIP3   OH253829   3.990   4.168   3.338 -0.2224 -0.2345 -0.0593
10805TIP3    H153830   3.971   4.212   3.255  1.1568  2.0366  0.7147
10805TIP3    H253831   4.079   4.135   3.326  0.1425  0.4693  0.6069
10806TIP3   OH253832   5.340   0.627   0.767  0.5314 -0.5568  0.1432
10806TIP3    H153833   5.436   0.628   0.758  0.4652 -1.6274 -1.1724
10806TIP3    H253834   5.311   0.710   0.729  0.8774 -0.8867 -0.8897
10807TIP3   OH253835   1.556   1.394  10.831 -0.3440  0.0664  0.3854
10807TIP3    H153836   1.643   1.419  10.863  0.4405 -0.3619 -1.3354
10807TIP3    H253837   1.536   1.457  10.762 -1.0745 -0.3057  0.2427
10808TIP3   OH253838   6.440   4.295   4.449  0.3502  0.1604 -0.3941
10808TIP3    H153839   6.511   4.303   4.513 -1.5977  0.9849  1.7889
10808TIP3    H253840   6.396   4.379   4.450 -1.7031 -0.8519 -0.3763
10809TIP3   OH253841   1.312   6.426  13.665 -0.1877 -0.1106 -0.3196
10809TIP3    H153842   1.393   6.377  13.677 -0.0113  0.3079  0.2764
10809TIP3    H253843   1.243   6.369  13.698 -0.0119 -0.0601  0.1414
10810TIP3   OH253844   4.595   2.459   5.852  0.0193  0.7452  0.2705
10810TIP3    H153845   4.638   2.543   5.862  3.1400 -0.7588  0.7773
10810TIP3    H253846   4.666   2.394   5.861 -2.3065 -1.9685  0.6056
10811TIP3   OH253847   6.179   1.380   0.309 -0.5082 -0.3991  0.9183
10811TIP3    H153848   6.170   1.445   0.238  0.8383 -1.4253 -0.2576
10811TIP3    H253849   6.099   1.390   0.361 -2.5885 -0.9802 -1.9181
10812TIP3   OH253850   3.085   4.225  12.858 -0.0916 -0.3203 -0.1325
10812TIP3    H153851   3.018   4.293  12.859 -0.2031 -0.3971 -1.3148
10812TIP3    H253852   3.045   4.152  12.810  1.0799 -0.0782 -1.5538
10813TIP3   OH253853   5.562   1.069   0.526 -0.1114 -0.4553 -0.5908
10813TIP3    H153854   5.657   1.072   0.513 -0.1853  0.5863 -1.0422
10813TIP3    H253855   5.526   1.051   0.439 -0.3253 -1.3183 -0.3400
10814TIP3   OH253856   1.043   4.470  10.851  0.2131 -0.2182 -0.1133
10814TIP3    H153857   0.996   4.417  10.787  0.1621 -2.6025  1.7457
10814TIP3    H253858   0.975   4.513  10.902  0.1864 -0.1331 -0.2210
10815TIP3   OH253859   2.879   1.813   3.158 -0.5529 -0.5648 -0.0154
10815TIP3    H153860   2.928   1.802   3.240 -0.2461 -3.0225 -0.4660
10815TIP3    H253861   2.946   1.831   3.092 -0.7156  0.4246  0.0624
10816TIP3   OH253862   1.022   2.795   4.508 -0.1225 -0.7645  0.2786
10816TIP3    H153863   1.034   2.727   4.442 -0.6345  0.7417 -1.4380
10816TIP3    H253864   0.927   2.804   4.517 -0.0671  0.0292  0.1494
10817TIP3   OH253865   5.649   4.922   2.594  1.1577 -0.5746  0.6375
10817TIP3    H153866   5.722   4.978   2.568  1.9873 -1.9675 -0.1705
10817TIP3    H253867   5.617   4.961   2.676 -0.7432  3.2501 -1.6209
10818TIP3   OH253868   6.254   2.858  11.583 -0.1088 -0.9481  0.3971
10818TIP3    H153869   6.332   2.892  11.540 -1.2397 -0.4319 -1.3345
10818TIP3    H253870   6.255   2.900  11.669  0.7733  0.1678 -0.1191
10819TIP3   OH253871   2.298   4.385  15.228 -0.3169 -0.1901 -0.0986
10819TIP3    H153872   2.363   4.403  15.295 -1.0610 -0.5646  0.7356
10819TIP3    H253873   2.244   4.464  15.224  0.8816  0.6268 -1.6600
10820TIP3   OH253874   4.434   2.927  13.441 -0.3205  0.5824 -0.1921
10820TIP3    H153875   4.414   2.962  13.528 -0.1113 -1.0485  0.5535
10820TIP3    H253876   4.513   2.973  13.414 -0.8868  1.7472  0.0675
10821TIP3   OH253877   3.024   6.634  16.251 -0.0096 -0.8582 -0.0858
10821TIP3    H153878   3.051   6.721  16.222  0.0042 -0.7904  0.1214
10821TIP3    H253879   2.996   6.648  16.342 -0.9425 -0.8873 -0.3641
10822TIP3   OH253880   5.594   1.839  13.917 -0.5728 -0.8556 -0.1522
10822TIP3    H153881   5.652   1.891  13.860 -0.4014 -1.6804 -0.7480
10822TIP3    H253882   5.526   1.901  13.945  0.0847 -0.1025 -0.1750
10823TIP3   OH253883   1.658   6.079   3.264  0.0925  0.1461 -0.9633
10823TIP3    H153884   1.610   5.996   3.263 -0.8015  0.6473 -1.2520
10823TIP3    H253885   1.712   6.077   3.185 -0.3181  0.0478 -1.2467
10824TIP3   OH253886   3.017   2.053   1.091  0.5581 -0.2158 -1.1119
10824TIP3    H153887   3.019   2.147   1.073  3.3751 -0.1907 -1.0865
10824TIP3    H253888   3.060   2.044   1.176  2.2021 -1.6402 -2.0300
10825TIP3   OH253889   6.037   1.575  15.511  0.1435  0.3873 -0.5511
10825TIP3    H153890   6.115   1.521  15.517 -0.1133 -0.1133 -1.5526
10825TIP3    H253891   5.967   1.515  15.484 -0.6860  0.7455  0.6887
10826TIP3   OH253892   5.449   0.267  11.999 -0.3603  0.4450 -0.5268
10826TIP3    H153893   5.516   0.200  12.012  0.3234  1.3445  0.7253
10826TIP3    H253894   5.455   0.290  11.906 -0.9660 -1.5638 -1.1270
10827TIP3   OH253895   0.858   2.646  17.199 -0.0780  0.5508  0.0334
10827TIP3    H153896   0.933   2.632  17.141  1.7491  2.7418  1.6394
10827TIP3    H253897   0.860   2.572  17.259  0.1514  0.0506 -0.5890
10828TIP3   OH253898   0.761   2.656   2.293 -0.4432 -0.0353 -0.3113
10828TIP3    H153899   0.830   2.605   2.251  1.5307  0.8422  1.6117
10828TIP3    H253900   0.680   2.630   2.249  0.9405 -2.0885 -1.8032
10829TIP3   OH253901   1.012   5.836   1.205  0.0232  0.2549 -0.0233
10829TIP3    H153902   0.962   5.880   1.136 -0.4139 -0.5423 -0.2336
10829TIP3    H253903   0.959   5.845   1.283 -0.1018  0.0537 -0.0826
10830TIP3   OH253904   3.994   3.176   3.886 -0.2718  0.2718 -0.1684
10830TIP3    H153905   4.089   3.190   3.896 -0.1698 -0.7195  0.2935
10830TIP3    H253906   3.957   3.204   3.970 -0.1233 -1.5815  0.5580
10831TIP3   OH253907   5.330   4.705   3.076  0.3252 -0.3246 -0.0858
10831TIP3    H153908   5.319   4.790   3.036 -0.8006 -0.7774 -0.7831
10831TIP3    H253909   5.381   4.722   3.156  0.4611  0.9194 -0.4244
10832TIP3   OH253910   1.084   1.320  16.674  0.2043 -0.4009 -0.0848
10832TIP3    H153911   0.993   1.309  16.703 -0.1921  0.2001 -1.0564
10832TIP3    H253912   1.135   1.273  16.739 -0.7900 -0.6018  0.5827
10833TIP3   OH253913   5.718   2.641   1.291 -0.1047 -0.0961  0.6941
10833TIP3    H153914   5.653   2.669   1.227 -0.7105 -0.0234  1.3360
10833TIP3    H253915   5.782   2.713   1.293  0.1324 -0.2774 -0.1127
10834TIP3   OH253916   0.729   0.207  15.476 -0.2764 -0.4906 -0.2184
10834TIP3    H153917   0.719   0.177  15.566 -0.1330 -2.0283 -0.6979
10834TIP3    H253918   0.801   0.155  15.441  1.1739  1.6433 -0.5872
10835TIP3   OH253919   4.670   6.074   3.792 -0.6503  0.3439 -0.2599
10835TIP3    H153920   4.639   6.164   3.798 -1.8167 -0.0890  0.5800
10835TIP3    H253921   4.591   6.022   3.775  0.2118 -0.3809 -2.4388
10836TIP3   OH253922   5.543   4.887  14.613  0.2273  0.0596  0.4043
10836TIP3    H153923   5.496   4.911  14.532 -1.0951 -1.0744  0.8053
10836TIP3    H253924   5.635   4.906  14.593 -0.2880  1.7464 -0.6392
10837TIP3   OH253925   3.320   5.608  16.699  0.1020  0.9010  0.0082
10837TIP3    H153926   3.400   5.568  16.667  1.2114  1.2323  2.1897
10837TIP3    H253927   3.250   5.559  16.655  1.4448  0.7589 -2.1224
10838TIP3   OH253928   4.762   6.702   3.432  0.0910 -0.2206 -0.3303
10838TIP3    H153929   4.707   6.777   3.456  0.8049 -0.4679  2.4442
10838TIP3    H253930   4.716   6.627   3.470  1.2139 -0.6968  0.1113
10839TIP3   OH253931   4.363   0.748   5.320 -0.3589 -0.6467 -0.1122
10839TIP3    H153932   4.289   0.743   5.381  0.6059 -0.7606  1.1004
10839TIP3    H253933   4.348   0.829   5.271  0.0002  0.7697  1.9395
10840TIP3   OH253934   5.798   1.407  11.674  0.5834  0.2567 -0.0118
10840TIP3    H153935   5.713   1.362  11.678  1.2228 -1.0939 -0.7763
10840TIP3    H253936   5.851   1.351  11.617  2.0592  0.9665  0.6377
10841TIP3   OH253937   2.856   2.108  12.055 -0.5768  0.2098  0.0631
10841TIP3    H153938   2.780   2.159  12.026 -0.5402 -0.8777 -2.2447
10841TIP3    H253939   2.910   2.101  11.976  2.4007  1.6607  1.8318
10842TIP3   OH253940   6.119   3.002   5.279 -0.7058 -0.4495 -0.0344
10842TIP3    H153941   6.150   3.091   5.295  0.6131 -1.1326  1.5402
10842TIP3    H253942   6.028   3.002   5.310 -0.3226  0.0423  1.1432
10843TIP3   OH253943   0.685   1.643   3.235  0.3760  0.1441  0.5176
10843TIP3    H153944   0.692   1.555   3.272  0.4258  0.2520  0.7660
10843TIP3    H253945   0.629   1.691   3.296 -0.3518  0.0442 -0.0631
10844TIP3   OH253946   1.448   5.623   3.462  0.3920  0.2107  0.7117
10844TIP3    H153947   1.524   5.572   3.489  1.1364  1.1656  0.5007
10844TIP3    H253948   1.377   5.593   3.518  1.4221  0.7369  2.3491
10845TIP3   OH253949   1.205   0.463   1.389  0.0014  0.0549  0.0110
10845TIP3    H153950   1.226   0.371   1.405 -1.7254 -0.2333  0.9377
10845TIP3    H253951   1.266   0.512   1.444 -1.6720 -0.7354  2.8040
10846TIP3   OH253952   6.065   6.270  14.763 -0.1864  0.5029  0.4578
10846TIP3    H153953   6.124   6.261  14.838  2.5887 -0.3902 -1.6632
10846TIP3    H253954   6.075   6.187  14.716 -2.4888  0.7287 -0.5006
10847TIP3   OH253955   0.371   1.945   1.286  0.3645 -0.5786 -0.3525
10847TIP3    H153956   0.365   1.993   1.203 -3.1413 -0.9237 -0.4590
10847TIP3    H253957   0.389   2.013   1.352  1.1588 -0.0021 -1.1416
10848TIP3   OH253958   4.452   3.865  10.451 -0.0252 -0.2384 -0.6388
10848TIP3    H153959   4.520   3.802  10.475 -0.2848 -0.5922 -0.8212
10848TIP3    H253960   4.372   3.813  10.444 -0.0569 -0.0746 -1.7877
10849TIP3   OH253961   6.225   6.784  16.975 -0.0460  0.2707  0.1059
10849TIP3    H153962   6.210   6.809  16.884  0.0665  1.2450  0.3378
10849TIP3    H253963   6.164   6.712  16.991 -0.3528  0.3604 -0.6273
10850TIP3   OH253964   0.047   4.443  17.082  0.3751 -0.4293  0.7436
10850TIP3    H153965   0.001   4.366  17.050  0.6645 -1.1213  1.9320
10850TIP3    H253966   0.018   4.453  17.172  1.6372 -0.1828  1.1460
10851TIP3   OH253967   5.140   5.122   1.066  0.2690 -0.2735 -0.6493
10851TIP3    H153968   5.190   5.117   1.148  0.3366 -0.7306 -0.7192
10851TIP3    H253969   5.053   5.151   1.094 -0.1051 -1.7138 -0.2465
10852TIP3   OH253970   0.499   5.956   4.542 -0.1430  0.0963 -0.1456
10852TIP3    H153971   0.525   6.044   4.514  0.9015 -0.8938 -2.6178
10852TIP3    H253972   0.552   5.897   4.488 -0.5484 -2.0765  1.6794
10853TIP3   OH253973   4.415   4.789   2.348  0.4413 -0.5395  0.1124
10853TIP3    H153974   4.475   4.848   2.393  0.9031 -0.9909  0.1041
10853TIP3    H253975   4.453   4.702   2.362  1.0851 -0.6283 -1.8840
10854TIP3   OH253976   3.551   2.824  15.820  0.1256  0.1634  0.9001
10854TIP3    H153977   3.467   2.867  15.837  0.7246  2.0020 -0.4362
10854TIP3    H253978   3.616   2.885  15.855  0.9438 -1.2492  1.9333
10855TIP3   OH253979   0.140   2.450   1.715 -0.0543  0.2303 -0.1797
10855TIP3    H153980   0.096   2.397   1.781 -1.4364  0.6206 -0.7506
10855TIP3    H253981   0.153   2.391   1.641  1.1798 -0.1118  0.2847
10856TIP3   OH253982   0.725   6.363  12.386  0.1488  0.0968 -0.0532
10856TIP3    H153983   0.742   6.406  12.470 -2.7789 -1.7008  1.6334
10856TIP3    H253984   0.752   6.272  12.400 -1.4638 -0.4990 -0.5789
10857TIP3   OH253985   6.099   4.916  12.761  0.7545  0.1167 -0.2740
10857TIP3    H153986   6.006   4.927  12.740  0.7195 -0.3819 -0.3905
10857TIP3    H253987   6.130   5.005  12.777  0.5289  0.4080 -1.3814
10858TIP3   OH253988   0.305   0.241   0.669 -0.4309 -0.2809  0.1137
10858TIP3    H153989   0.318   0.231   0.763 -1.0749  1.4764  0.4115
10858TIP3    H253990   0.392   0.228   0.631  0.2577  1.1622  1.1541
10859TIP3   OH253991   6.691   0.553   3.369  0.7530 -0.5254  0.8167
10859TIP3    H153992   6.772   0.559   3.318  0.0016  0.3337 -0.3074
10859TIP3    H253993   6.715   0.587   3.455  1.4182  0.4134  0.2756
10860TIP3   OH253994   2.107   0.629   4.070 -0.1178 -0.1746 -0.8153
10860TIP3    H153995   2.041   0.577   4.116 -0.6230  0.5406 -0.7222
10860TIP3    H253996   2.062   0.660   3.991  0.3392 -0.2896 -1.1252
10861TIP3   OH253997   5.529   5.374  12.695 -0.0447 -0.2125 -0.5226
10861TIP3    H153998   5.487   5.441  12.749 -2.1531 -2.3327  0.6807
10861TIP3    H253999   5.606   5.347  12.746  0.9280  1.3008 -1.1012
10862TIP3   OH254000   1.810   0.974   4.977  0.1583 -0.0066 -0.7519
10862TIP3    H154001   1.749   1.046   4.963  0.0671  0.1413  0.3650
10862TIP3    H254002   1.830   0.977   5.070  1.3609 -0.4644 -0.9824
10863TIP3   OH254003   3.104   2.669   4.392  1.0484 -0.2448 -0.0448
10863TIP3    H154004   3.045   2.596   4.409 -2.3046  2.4927  1.2580
10863TIP3    H254005   3.124   2.704   4.479  2.7532  0.3145 -0.6240
10864TIP3   OH254006   3.117   2.472  15.594  0.3311 -0.1558 -0.0258
10864TIP3    H154007   3.097   2.378  15.590  0.6100 -0.2158 -0.0296
10864TIP3    H254008   3.212   2.476  15.593  0.4359  0.2967 -4.3665
10865TIP3   OH254009   4.118   6.178  14.733  0.0138 -0.0177 -0.2654
10865TIP3    H154010   4.048   6.180  14.667  0.4238  0.5843 -0.6962
10865TIP3    H254011   4.190   6.132  14.691 -0.1460 -0.7319  0.2171
10866TIP3   OH254012   6.735   2.312  10.492  0.0087 -0.2280 -0.1512
10866TIP3    H154013   6.728   2.400  10.528 -1.6490 -0.3416 -0.0788
10866TIP3    H254014   6.825   2.285  10.510  0.6224  1.5354 -0.4224
10867TIP3   OH254015   3.257   3.775   6.452 -0.2912 -0.2188 -0.4524
10867TIP3    H154016   3.197   3.725   6.505 -1.0819  0.0866 -1.0434
10867TIP3    H254017   3.202   3.834   6.401  0.3755 -0.8793 -2.0303
10868TIP3   OH254018   6.172   1.769  11.455  0.4828  0.2855 -0.0086
10868TIP3    H154019   6.186   1.808  11.541  0.7564 -0.2612  0.2040
10868TIP3    H254020   6.081   1.789  11.434  0.0928 -0.4549  0.8813
10869TIP3   OH254021   1.397   6.453  12.587 -0.3406 -0.4020  0.5213
10869TIP3    H154022   1.384   6.547  12.597  3.1925  0.2754  0.0450
10869TIP3    H254023   1.478   6.445  12.537  0.2990 -3.7001  1.8006
10870TIP3   OH254024   0.691   2.329  15.328 -0.2006  0.0331 -0.9788
10870TIP3    H154025   0.752   2.256  15.327  1.9445  1.6783 -0.0613
10870TIP3    H254026   0.643   2.318  15.410  3.2800  1.8754  1.5925
10871TIP3   OH254027   2.220   4.617   0.069  0.3712 -0.6953 -0.3428
10871TIP3    H154028   2.139   4.666   0.084  0.5586 -0.6682  0.6782
10871TIP3    H254029   2.256   4.604   0.157  2.1317  0.3898 -0.8612
10872TIP3   OH254030   0.116   5.655  12.866 -0.5605  0.6780 -0.1878
10872TIP3    H154031   0.137   5.563  12.882 -1.0475  0.8094  1.3697
10872TIP3    H254032   0.200   5.695  12.845 -0.2523 -0.0001 -0.2847
10873TIP3   OH254033   3.892   1.763   4.357 -0.3160  0.3484 -0.1617
10873TIP3    H154034   3.891   1.718   4.273  0.8691  3.2768 -1.8562
10873TIP3    H254035   3.845   1.845   4.342 -0.5548  0.7323  2.2022
10874TIP3   OH254036   4.116   1.199  13.798 -0.3193 -0.1445 -0.5291
10874TIP3    H154037   4.060   1.182  13.874 -2.2478 -1.0780 -2.0324
10874TIP3    H254038   4.108   1.119  13.745 -0.3362  1.0562 -2.4415
10875TIP3   OH254039   4.892   5.052   4.827 -0.0328 -0.3019 -0.5455
10875TIP3    H154040   4.889   5.076   4.919 -0.4418  2.9651 -1.2798
10875TIP3    H254041   4.816   4.995   4.814  0.3717 -1.3096  1.1899
10876TIP3   OH254042   4.843   0.582  14.948  0.0055  0.0773  0.2839
10876TIP3    H154043   4.802   0.520  14.887  0.3011  0.2124 -0.0569
10876TIP3    H254044   4.827   0.544  15.035 -1.1535  0.3213  0.1865
10877TIP3   OH254045   4.934   2.708  12.958 -0.8043 -0.9431 -0.3430
10877TIP3    H154046   4.879   2.664  13.023 -1.0709 -0.5528 -0.3038
10877TIP3    H254047   5.000   2.642  12.934 -0.5925 -1.0233  0.4573
10878TIP3   OH254048   0.535   5.776   4.059 -0.4488 -0.0121  0.3973
10878TIP3    H154049   0.568   5.850   4.008 -1.2447  0.0227 -0.0787
10878TIP3    H254050   0.614   5.734   4.094  0.3385 -1.2209 -2.4912
10879TIP3   OH254051   3.883   0.811   2.331  0.5173  0.2215 -0.0971
10879TIP3    H154052   3.922   0.845   2.412  1.2278  0.4299 -0.5221
10879TIP3    H254053   3.933   0.852   2.261 -0.6437  0.6856 -0.6660
10880TIP3   OH254054   0.213   5.278  12.271  0.8334 -0.5182  0.0378
10880TIP3    H154055   0.193   5.309  12.183 -0.6556 -1.4692  0.0060
10880TIP3    H254056   0.129   5.245  12.304  1.3283 -0.0682  1.8580
10881TIP3   OH254057   2.647   0.962  15.126  0.2086  0.2021 -0.1165
10881TIP3    H154058   2.650   1.057  15.110  1.5498  0.8035  2.9825
10881TIP3    H254059   2.730   0.930  15.093 -0.4313 -0.0601 -1.5869
10882TIP3   OH254060   5.128   2.408   5.928  0.6467  0.1840 -0.2858
10882TIP3    H154061   5.039   2.375   5.941  1.7213 -2.3942  1.3523
10882TIP3    H254062   5.126   2.447   5.841 -1.6221 -1.4333 -1.0677
10883TIP3   OH254063   4.535   5.045  12.510  0.2407 -0.9114 -0.3661
10883TIP3    H154064   4.567   5.063  12.598  1.8813  0.0045 -1.0981
10883TIP3    H254065   4.574   4.961  12.486 -0.3684 -1.2577 -0.1469
10884TIP3   OH254066   3.004   5.371   2.710  0.1941 -0.3902 -0.2074
10884TIP3    H154067   2.987   5.438   2.644  1.2267 -1.0157 -1.1382
10884TIP3    H254068   3.082   5.401   2.756  0.2586 -0.6122 -0.1692
10885TIP3   OH254069   2.735   2.128  10.941 -0.6785 -0.0468 -0.0672
10885TIP3    H154070   2.672   2.200  10.932 -0.3934  0.0894 -1.1126
10885TIP3    H254071   2.816   2.163  10.903 -0.0197 -0.2881  1.0811
10886TIP3   OH254072   6.603   2.363   6.259  0.5797 -0.2393 -0.3511
10886TIP3    H154073   6.624   2.272   6.280 -0.5426 -0.3440  0.4094
10886TIP3    H254074   6.518   2.358   6.215  0.5320  0.4349 -0.3389
10887TIP3   OH254075   5.566   6.110  12.947  0.0718  0.4298  0.0403
10887TIP3    H154076   5.504   6.157  13.003  1.8041  1.4215  1.2275
10887TIP3    H254077   5.640   6.170  12.939  0.9463 -0.7832 -1.1910
10888TIP3   OH254078   0.310   2.329  11.080  0.2734 -0.3504 -0.1799
10888TIP3    H154079   0.296   2.249  11.129  2.6428 -1.0202 -0.4546
10888TIP3    H254080   0.314   2.302  10.988  0.2819  0.1991 -0.3502
10889TIP3   OH254081   1.214   4.833   5.994  0.2518 -0.0221  0.3839
10889TIP3    H154082   1.169   4.761   6.038 -2.1063  2.4229  2.2570
10889TIP3    H254083   1.190   4.823   5.902 -0.1239 -1.5013  0.6117
10890TIP3   OH254084   4.204   2.957  14.952 -0.2804  0.2730 -0.2537
10890TIP3    H154085   4.296   2.929  14.955 -0.2491  0.1557 -1.6683
10890TIP3    H254086   4.189   2.980  14.861 -1.9469 -0.6729 -0.2638
10891TIP3   OH254087   5.326   0.631  12.987  0.4496  0.0859 -0.0105
10891TIP3    H154088   5.326   0.546  12.943  0.4350  1.1827 -2.2503
10891TIP3    H254089   5.234   0.657  12.990  0.1635 -0.9632  2.8286
10892TIP3   OH254090   2.937   0.815   1.148 -0.1428  0.2682  0.3065
10892TIP3    H154091   2.901   0.824   1.236 -0.8169  0.4835  0.0160
10892TIP3    H254092   2.879   0.868   1.093 -0.2162 -0.5388 -0.4023
10893TIP3   OH254093   3.121   2.587  12.838  0.1238  0.0300 -0.4065
10893TIP3    H154094   3.079   2.602  12.923 -0.7327 -1.5484 -0.5120
10893TIP3    H254095   3.190   2.653  12.834  0.5025 -0.1304  1.7349
10894TIP3   OH254096   5.223   3.903   4.933 -0.0112 -0.2467  0.1489
10894TIP3    H154097   5.205   3.985   4.980  2.6165  0.6931 -0.3197
10894TIP3    H254098   5.178   3.836   4.984 -0.8915  1.2814  1.4744
10895TIP3   OH254099   1.089   6.364  13.838 -0.3539 -0.5236 -1.1496
10895TIP3    H154100   1.022   6.296  13.826 -0.4307 -0.4185 -1.3146
10895TIP3    H254101   1.151   6.325  13.900 -2.4969  0.7483  2.0254
10896TIP3   OH254102   0.764   3.462   4.968  0.3567 -1.0687  0.0285
10896TIP3    H154103   0.709   3.404   4.915  1.7960 -2.2856 -0.2189
10896TIP3    H254104   0.822   3.504   4.905  1.2981 -1.6354  0.4865
10897TIP3   OH254105   0.291   0.452  16.145  0.0348  0.2679 -0.3276
10897TIP3    H154106   0.362   0.474  16.206 -0.6245 -1.2664  1.0620
10897TIP3    H254107   0.323   0.374  16.100 -0.5809 -0.1565 -0.0282
10898TIP3   OH254108   1.710   4.678  17.071 -0.5036  0.1699  0.0101
10898TIP3    H154109   1.729   4.771  17.059 -1.2602  0.2440 -0.7073
10898TIP3    H254110   1.765   4.633  17.007  0.3320  0.0674  0.7869
10899TIP3   OH254111   5.012   6.081  16.323 -0.2881  0.2096  0.0582
10899TIP3    H154112   4.971   6.082  16.236 -0.3812  0.3956  0.1032
10899TIP3    H254113   4.994   6.168  16.359  1.0400  0.6641 -0.3366
10900TIP3   OH254114   4.309   5.843  16.090 -0.0559  0.0796 -0.5172
10900TIP3    H154115   4.255   5.764  16.101  0.0534  0.2403  1.4481
10900TIP3    H254116   4.281   5.879  16.006 -1.2509 -1.1737 -0.7003
10901TIP3   OH254117   2.692   5.688  13.620 -0.2554 -0.5929  0.6545
10901TIP3    H154118   2.718   5.677  13.529 -2.4494  0.0003 -0.1071
10901TIP3    H254119   2.754   5.752  13.656 -0.1851  0.1985 -0.8081
10902TIP3   OH254120   3.432   3.916  14.208 -0.4326  0.2559 -0.4350
10902TIP3    H154121   3.497   3.984  14.229  0.3272  0.1411 -2.1835
10902TIP3    H254122   3.457   3.887  14.120 -3.4689  0.8916 -1.5991
10903TIP3   OH254123   0.166   3.565   6.562 -0.1640 -0.4896  0.7459
10903TIP3    H154124   0.260   3.567   6.581 -0.0830  0.0563  0.3019
10903TIP3    H254125   0.159   3.598   6.472 -0.9235  0.9831  1.3192
10904TIP3   OH254126   1.408   1.371  14.005  0.1897 -0.2832 -0.1408
10904TIP3    H154127   1.334   1.431  14.006 -0.4998 -1.0855 -0.8009
10904TIP3    H254128   1.376   1.295  13.955  1.5603 -0.5148 -0.6982
10905TIP3   OH254129   4.836   0.711  16.015  0.9962  0.1712  0.3254
10905TIP3    H154130   4.894   0.753  16.078  0.2250  1.1249  0.4355
10905TIP3    H254131   4.851   0.618  16.026  1.9020  0.3789  0.9157
10906TIP3   OH254132   2.497   0.984   4.460 -0.3303 -0.0542  0.6210
10906TIP3    H154133   2.592   0.987   4.449 -0.3998  1.1509  0.2035
10906TIP3    H254134   2.483   1.007   4.552 -0.1200 -2.9262  1.4712
10907TIP3   OH254135   0.064   6.747   0.654  0.0278 -0.1661 -0.2998
10907TIP3    H154136   0.025   6.795   0.581  0.6350  1.6873  0.5202
10907TIP3    H254137  -0.010   6.722   0.708 -0.2240  1.7703  0.3373
10908TIP3   OH254138   2.540   6.519   1.623  0.1531  0.7326  0.5485
10908TIP3    H154139   2.503   6.555   1.703  0.0424  1.8292  0.0121
10908TIP3    H254140   2.470   6.524   1.559  0.3777  0.2715  0.2616
10909TIP3   OH254141   5.008   2.017   5.687  0.0161 -0.0529  0.1304
10909TIP3    H154142   5.015   1.945   5.624  0.2431 -0.3613  0.5034
10909TIP3    H254143   5.041   1.981   5.769 -1.5523 -0.0773  0.7834
10910TIP3   OH254144   2.151   0.635  13.287  0.1750 -0.0926  0.0687
10910TIP3    H154145   2.237   0.661  13.253 -0.1328  0.6745 -0.1510
10910TIP3    H254146   2.113   0.583  13.217 -0.5066  1.5829 -0.8746
10911TIP3   OH254147   2.191   4.651   4.323 -0.1081 -0.2347  0.0292
10911TIP3    H154148   2.136   4.604   4.386 -0.8403  1.0735  0.3968
10911TIP3    H254149   2.156   4.627   4.237  0.1881 -1.1489  0.1485
10912TIP3   OH254150   1.202   3.815  16.249 -0.0444  0.5035  1.0060
10912TIP3    H154151   1.107   3.826  16.251 -0.1281 -0.1313  0.6265
10912TIP3    H254152   1.219   3.737  16.302  0.1720  0.0221  0.2440
10913TIP3   OH254153   1.699   5.658   0.563  0.2435  0.2721 -0.1901
10913TIP3    H154154   1.641   5.704   0.624  1.2502 -0.0587  1.0427
10913TIP3    H254155   1.781   5.707   0.565 -0.0003  0.8735 -2.1060
10914TIP3   OH254156   4.663   2.080   2.531  0.0809  0.0954 -0.2003
10914TIP3    H154157   4.710   2.001   2.558 -0.7653 -0.4039 -0.1623
10914TIP3    H254158   4.681   2.087   2.437 -1.9070 -1.6275 -0.7925
10915TIP3   OH254159   5.229   1.006  14.240  0.1808  0.5337  0.0815
10915TIP3    H154160   5.264   1.013  14.151 -0.7564  1.4358 -0.2355
10915TIP3    H254161   5.306   1.008  14.296  0.7602  0.4157 -0.6878
10916TIP3   OH254162   1.488   5.836  16.243  0.5937 -0.2595 -0.0885
10916TIP3    H154163   1.410   5.836  16.186 -0.3664 -0.1112  1.1768
10916TIP3    H254164   1.506   5.743  16.259 -1.3106 -0.3249  2.1648
10917TIP3   OH254165   0.623   0.789  15.463  0.0640  0.3257 -0.1990
10917TIP3    H154166   0.628   0.745  15.378 -0.8301 -0.0252 -0.0770
10917TIP3    H254167   0.534   0.773  15.493  0.9568 -1.3467  1.7861
10918TIP3   OH254168   3.650   2.621   4.708 -0.1755 -0.0463 -0.0063
10918TIP3    H154169   3.654   2.575   4.624 -1.5876 -2.7931  1.3117
10918TIP3    H254170   3.618   2.708   4.686  0.9551 -0.1549 -2.4491
10919TIP3   OH254171   1.928   5.335  15.531 -0.5010 -0.1506  0.2655
10919TIP3    H154172   1.935   5.308  15.440 -0.8783  1.9144 -0.4193
10919TIP3    H254173   1.850   5.391  15.534  0.6017  1.3901  1.4369
10920TIP3   OH254174   4.249   6.643  11.386  0.1841  0.2409 -0.4829
10920TIP3    H154175   4.272   6.551  11.371 -1.9054 -0.5641  0.7530
10920TIP3    H254176   4.268   6.658  11.478  1.5932  1.4313 -0.9481
10921TIP3   OH254177   0.662   1.073  13.711  0.0929 -0.3772 -0.4271
10921TIP3    H154178   0.729   1.128  13.669 -0.4241 -0.3358 -1.2124
10921TIP3    H254179   0.679   0.985  13.678 -1.8340  0.0276 -2.7612
10922TIP3   OH254180   0.675   5.199  13.382  0.2346 -0.1663  0.1945
10922TIP3    H154181   0.594   5.241  13.353 -0.5008 -0.8302  1.2273
10922TIP3    H254182   0.646   5.118  13.423  1.5023 -0.8440 -0.2185
10923TIP3   OH254183   3.413   5.749   2.991  0.1175  0.4731  0.7815
10923TIP3    H154184   3.354   5.679   2.962  0.6027  0.1468  0.5659
10923TIP3    H254185   3.467   5.709   3.058  3.6184 -0.8792 -2.4756
10924TIP3   OH254186   5.897   2.348   5.256 -0.2553 -0.0437  0.4801
10924TIP3    H154187   5.845   2.362   5.335 -1.4984  1.9345 -0.6270
10924TIP3    H254188   5.979   2.311   5.289 -0.9226  0.2234  2.6444
10925TIP3   OH254189   5.677   3.413  12.730 -0.1429 -0.2856  0.3970
10925TIP3    H154190   5.710   3.372  12.810  0.6902  1.3835  0.9594
10925TIP3    H254191   5.722   3.498  12.726 -2.3668  0.9317 -0.2729
10926TIP3   OH254192   6.620   5.554  16.463 -0.0037 -0.0875  0.2578
10926TIP3    H154193   6.713   5.531  16.460  0.2853  1.1238 -0.9437
10926TIP3    H254194   6.575   5.475  16.432  0.7645 -0.0554 -0.9883
10927TIP3   OH254195   1.337   0.817  15.141  0.2033  0.7669  0.2661
10927TIP3    H154196   1.272   0.772  15.195  0.3569  1.0180  0.6610
10927TIP3    H254197   1.306   0.804  15.051 -0.4613  0.9921  0.4550
10928TIP3   OH254198   0.581   2.551   5.256 -0.5700 -0.4650  0.3178
10928TIP3    H154199   0.664   2.595   5.237 -0.5251 -0.5487  0.3192
10928TIP3    H254200   0.532   2.614   5.309  0.3370 -1.2021  2.1288
10929TIP3   OH254201   0.181   0.563   1.261 -0.0889 -0.3625  0.3155
10929TIP3    H154202   0.236   0.513   1.321 -0.9519 -1.4632  0.2388
10929TIP3    H254203   0.234   0.573   1.182  0.2090 -0.9403  0.4376
10930TIP3   OH254204   1.035   0.206  16.661  0.1719  0.4921  0.0128
10930TIP3    H154205   1.045   0.296  16.628 -0.6409  0.6868  0.2507
10930TIP3    H254206   0.979   0.216  16.738 -0.5419 -0.3014 -0.3860
10931TIP3   OH254207   5.323   0.507  10.945  0.1964  0.1363 -0.5087
10931TIP3    H154208   5.333   0.445  11.017  0.0159  0.6450 -0.0370
10931TIP3    H254209   5.229   0.529  10.944  0.2651  0.4384 -0.6367
10932TIP3   OH254210   1.266   0.397   6.138 -0.0923 -0.1817 -0.7377
10932TIP3    H154211   1.322   0.467   6.170  1.3461 -1.7079  0.2808
10932TIP3    H254212   1.177   0.431   6.145  0.5142  1.2680  0.3671
10933TIP3   OH254213   4.866   4.779   3.617  0.5835 -0.2133 -0.3516
10933TIP3    H154214   4.957   4.757   3.635  0.1844 -1.9246 -0.1826
10933TIP3    H254215   4.868   4.870   3.586  2.3299 -0.2254 -0.3669
10934TIP3   OH254216   0.236   2.834   2.546  0.5195  0.2970  0.0273
10934TIP3    H154217   0.216   2.921   2.582  0.4648 -0.2982  1.4881
10934TIP3    H254218   0.201   2.837   2.457 -0.0742  1.5490  0.2785
10935TIP3   OH254219   0.914   3.300   0.079 -0.2603  0.0371 -0.0199
10935TIP3    H154220   0.983   3.340   0.027 -0.1115 -1.4585 -1.0334
10935TIP3    H254221   0.901   3.361   0.152 -0.3257  2.1128 -1.6479
10936TIP3   OH254222   2.584   5.440  16.289  0.3415  0.0731  0.2200
10936TIP3    H154223   2.678   5.435  16.270  0.1541 -1.3958 -0.5057
10936TIP3    H254224   2.579   5.467  16.380  1.4643  0.4558  0.1865
10937TIP3   OH254225   0.267   0.835  15.281 -0.2978  0.0119 -0.3668
10937TIP3    H154226   0.252   0.747  15.248 -0.1960 -0.8091  1.6017
10937TIP3    H254227   0.184   0.860  15.322  0.2030  0.0510  0.6776
10938TIP3   OH254228   1.203   6.041   5.868 -0.1706  0.1911 -0.2119
10938TIP3    H154229   1.172   6.122   5.826  2.0813  0.1857 -2.0857
10938TIP3    H254230   1.251   6.072   5.945 -0.5198  0.5523 -0.1357
10939TIP3   OH254231   5.501   1.157  13.243  0.6501 -0.0205 -0.1245
10939TIP3    H154232   5.550   1.145  13.324  2.5733  1.7344 -0.9286
10939TIP3    H254233   5.567   1.176  13.177 -1.0088  0.9426 -1.6166
10940TIP3   OH254234   2.769   1.209   6.059  0.1398  0.3764 -0.3404
10940TIP3    H154235   2.752   1.170   5.973  0.2897 -0.2857 -0.0765
10940TIP3    H254236   2.721   1.292   6.057 -0.1889  0.1840 -0.9161
10941TIP3   OH254237   1.099   1.137   4.232  0.1835 -0.0062  0.3659
10941TIP3    H154238   1.194   1.144   4.224  0.2287 -0.9574 -0.0616
10941TIP3    H254239   1.083   1.140   4.327  0.7135 -0.6833  0.4813
10942TIP3   OH254240   5.075   5.003   3.776 -0.1528  0.1499 -0.3772
10942TIP3    H154241   4.990   4.996   3.820 -0.4896  2.2559 -0.5801
10942TIP3    H254242   5.129   5.053   3.837  0.8810 -0.9228 -0.3791
10943TIP3   OH254243   2.777   2.833   3.240  0.1421  0.0879  0.1091
10943TIP3    H154244   2.730   2.791   3.167 -0.2968  0.3691  0.2282
10943TIP3    H254245   2.869   2.809   3.226  0.0361 -0.0123 -0.4322
10944TIP3   OH254246   2.671   2.085  14.176  0.2932 -0.4655  0.7337
10944TIP3    H154247   2.762   2.098  14.151 -0.1966  0.6628 -0.6627
10944TIP3    H254248   2.663   2.127  14.262  0.6352  1.4853 -0.1185
10945TIP3   OH254249   5.834   6.394   3.008  0.3586 -0.0035 -0.1673
10945TIP3    H154250   5.807   6.335   3.078  0.4414 -0.1053 -0.2204
10945TIP3    H254251   5.902   6.449   3.048 -1.7996  2.1167  0.7945
10946TIP3   OH254252   2.544   0.522  13.434  0.3424 -0.1046 -0.2147
10946TIP3    H154253   2.569   0.485  13.349  0.2951  0.6919 -0.5784
10946TIP3    H254254   2.598   0.600  13.444  0.6650 -0.4201  0.6983
10947TIP3   OH254255   4.673   4.372   2.187 -0.4331 -0.2443  1.1643
10947TIP3    H154256   4.586   4.406   2.212 -1.5450 -1.1379 -1.1970
10947TIP3    H254257   4.717   4.447   2.148 -0.2051  0.1428  2.1211
10948TIP3   OH254258   2.529   6.258   3.652 -0.1694 -0.3266  0.0592
10948TIP3    H154259   2.597   6.323   3.669 -0.4652 -0.1324  0.5146
10948TIP3    H254260   2.561   6.208   3.577  0.8615 -0.7762  0.7760
10949TIP3   OH254261   2.658   2.011   5.035  0.2071 -0.3313 -0.4676
10949TIP3    H154262   2.747   2.000   5.068 -0.4347 -0.5722  1.3138
10949TIP3    H254263   2.647   1.940   4.972  1.0133 -0.7923 -0.1047
10950TIP3   OH254264   5.958   1.650  12.712  0.3445 -0.1343 -0.4161
10950TIP3    H154265   6.019   1.612  12.775  0.7177  1.5485  0.2973
10950TIP3    H254266   6.004   1.726  12.677 -1.2191  1.0479 -0.0239
10951TIP3   OH254267   6.139   2.904  12.917 -0.1317  0.3131  0.1894
10951TIP3    H154268   6.064   2.853  12.889  0.8455 -0.7347 -0.6077
10951TIP3    H254269   6.132   2.986  12.868  0.1873 -0.4941 -1.2596
10952TIP3   OH254270   0.166   3.279  14.343 -0.1476 -0.4096 -0.3555
10952TIP3    H154271   0.152   3.318  14.430  0.2620 -0.8496 -0.0939
10952TIP3    H254272   0.083   3.295  14.297 -0.5436 -0.6019  0.2758
10953TIP3   OH254273   5.115   0.379  15.320 -0.9443  0.2675 -0.1351
10953TIP3    H154274   5.194   0.325  15.324 -1.2231 -0.0657  1.8395
10953TIP3    H254275   5.063   0.340  15.250  0.3343  0.1092 -1.0456
10954TIP3   OH254276   3.412   3.830  15.188 -0.0989 -0.3079  0.1686
10954TIP3    H154277   3.351   3.776  15.238 -1.1217 -0.7352 -1.4926
10954TIP3    H254278   3.368   3.847  15.105  1.0989  1.3025 -0.1960
10955TIP3   OH254279   1.341   0.994  12.172 -0.0030  0.0160 -0.8153
10955TIP3    H154280   1.321   1.068  12.114 -0.3223 -0.1110 -0.8685
10955TIP3    H254281   1.381   1.034  12.249 -0.9331  0.3222 -0.4877
10956TIP3   OH254282   4.004   1.715  11.325 -0.0805 -0.0486  0.4199
10956TIP3    H154283   4.080   1.773  11.331 -1.0437  1.1837  1.1004
10956TIP3    H254284   4.040   1.628  11.340  1.3142  0.4177 -0.0314
10957TIP3   OH254285   2.552   5.690  14.848 -0.1772 -0.1979  0.5478
10957TIP3    H154286   2.510   5.768  14.811  1.4023  0.9235  1.0216
10957TIP3    H254287   2.497   5.667  14.923 -1.5597 -0.5430 -0.5228
10958TIP3   OH254288   0.533   0.158  11.175 -0.3932  0.2108 -0.2412
10958TIP3    H154289   0.552   0.068  11.203  1.2448  0.6151  0.0727
10958TIP3    H254290   0.511   0.204  11.256 -0.8690  0.1826 -0.3529
10959TIP3   OH254291   6.084   3.338   4.906  0.3700  0.6100 -0.2285
10959TIP3    H154292   6.107   3.253   4.943  0.1571  0.1682 -1.0675
10959TIP3    H254293   6.134   3.401   4.957  1.0318 -0.0770 -0.0123
10960TIP3   OH254294   5.633   6.550  13.845  0.1557  0.2742 -0.1017
10960TIP3    H154295   5.553   6.599  13.828 -0.6146 -0.3406  1.5166
10960TIP3    H254296   5.618   6.464  13.806 -0.0886  0.0808  0.4072
10961TIP3   OH254297   1.689   0.310  13.946  0.2399 -0.2800 -0.5657
10961TIP3    H154298   1.698   0.375  13.877 -0.3274  1.2638  0.7473
10961TIP3    H254299   1.743   0.236  13.917  2.5699  1.5372 -1.2241
10962TIP3   OH254300   3.457   3.047   2.143 -0.3815 -0.4712 -0.1459
10962TIP3    H154301   3.435   3.051   2.236 -1.7896  0.4309 -0.4841
10962TIP3    H254302   3.550   3.024   2.141 -0.4909 -1.1488  1.4588
10963TIP3   OH254303   1.287   6.344   6.436 -0.0679 -0.5723  0.0720
10963TIP3    H154304   1.262   6.325   6.527 -0.9754 -0.1657 -0.0825
10963TIP3    H254305   1.383   6.344   6.437 -0.0649 -0.1446  1.1243
10964TIP3   OH254306   3.629   0.897  11.825  0.6598 -0.2743  0.0607
10964TIP3    H154307   3.706   0.936  11.867  0.9130 -0.9061  0.1878
10964TIP3    H254308   3.568   0.883  11.896  0.2338  0.6418 -0.1028
10965TIP3   OH254309   5.355   5.983   2.079  0.3387 -0.2118 -0.3840
10965TIP3    H154310   5.422   5.970   2.012  1.4298  1.6631  0.2544
10965TIP3    H254311   5.377   5.922   2.149  1.5905  0.5902 -0.0543
10966TIP3   OH254312   4.642   2.761   1.374 -0.1275  0.3488  0.6571
10966TIP3    H154313   4.726   2.775   1.329  0.7656  1.1665  2.4839
10966TIP3    H254314   4.576   2.788   1.310  1.1243  2.4243  0.1312
10967TIP3   OH254315   2.955   5.269  16.490 -0.4715 -0.0372  0.5006
10967TIP3    H154316   2.880   5.275  16.549  0.4298 -0.3367  1.7102
10967TIP3    H254317   2.963   5.176  16.471  0.2884 -0.1506  1.3215
10968TIP3   OH254318   4.684   4.725  13.427 -0.4571  0.2415 -0.0179
10968TIP3    H154319   4.672   4.740  13.333 -1.0742  0.6999  0.1295
10968TIP3    H254320   4.770   4.684  13.434  0.3767  1.8128 -0.6262
10969TIP3   OH254321   5.683   1.381  16.301 -0.1137 -0.1813 -0.3175
10969TIP3    H154322   5.688   1.438  16.224 -0.1283  0.5879  0.2304
10969TIP3    H254323   5.755   1.319  16.289 -0.5181 -0.4891 -1.2620
10970TIP3   OH254324   4.159   0.431   6.566  0.2955  0.5593 -0.1142
10970TIP3    H154325   4.232   0.370   6.577  0.3594  0.6099 -0.2504
10970TIP3    H254326   4.106   0.391   6.496 -1.0128 -0.6412  1.4822
10971TIP3   OH254327   4.609   4.136   5.918  0.1686 -0.0234 -0.0163
10971TIP3    H154328   4.516   4.121   5.938 -0.3441  2.3561 -0.2861
10971TIP3    H254329   4.655   4.100   5.994 -1.1574  0.9585  1.3280
10972TIP3   OH254330   1.349   3.461   5.252  0.1073  0.5547  0.4492
10972TIP3    H154331   1.297   3.494   5.325 -1.3633  2.2786 -1.2917
10972TIP3    H254332   1.287   3.413   5.198  1.0559 -0.2148  0.0114
10973TIP3   OH254333   5.470   1.885  16.912 -0.0391  0.1554  0.2004
10973TIP3    H154334   5.417   1.884  16.992 -1.1665 -3.1920 -0.4334
10973TIP3    H254335   5.491   1.977  16.899 -1.9273  1.1195  2.9563
10974TIP3   OH254336   6.611   5.692   0.163 -0.0201  0.1608 -0.0997
10974TIP3    H154337   6.681   5.673   0.226 -0.7966 -0.2424  0.6480
10974TIP3    H254338   6.649   5.667   0.078  0.8722  0.2874  0.2441
10975TIP3   OH254339   4.345   4.537  15.476  0.5900 -0.8024  0.4992
10975TIP3    H154340   4.358   4.570  15.387  1.2740 -0.5803  0.6724
10975TIP3    H254341   4.376   4.446  15.473 -2.2189 -1.8314 -0.2227
10976TIP3   OH254342   0.984   1.236   1.616  0.4352 -0.3552 -0.3348
10976TIP3    H154343   0.912   1.252   1.554  1.0886 -0.1175 -1.0431
10976TIP3    H254344   1.013   1.323   1.641  0.1333 -0.4521  0.3628
10977TIP3   OH254345   4.983   3.335   1.351  0.1307  0.0634 -0.2454
10977TIP3    H154346   4.995   3.283   1.431  0.4119  0.4112 -0.0562
10977TIP3    H254347   4.916   3.288   1.302  0.8711 -0.8646 -0.4070
10978TIP3   OH254348   0.473   6.524  12.395  0.0370  0.4682 -0.0823
10978TIP3    H154349   0.451   6.494  12.483  2.1754 -0.3066  0.2439
10978TIP3    H254350   0.556   6.481  12.375 -0.5314  0.3821 -2.6184
10979TIP3   OH254351   3.699   4.870  12.994 -0.1038 -0.3021 -0.0234
10979TIP3    H154352   3.698   4.883  13.089 -0.0123 -1.5643  0.1686
10979TIP3    H254353   3.622   4.919  12.963  0.3008  0.7587  0.5901
10980TIP3   OH254354   2.516   4.027   3.270 -0.3467  0.1766 -0.4250
10980TIP3    H154355   2.588   4.012   3.209 -0.5926  0.4136 -0.7750
10980TIP3    H254356   2.483   4.114   3.248  1.1848  1.3942  1.7072
10981TIP3   OH254357   0.567   1.813  16.191  0.1662  0.0510 -0.7167
10981TIP3    H154358   0.474   1.832  16.182 -0.1691 -0.4738  1.2190
10981TIP3    H254359   0.605   1.894  16.225  0.1190 -0.2279  0.0174
10982TIP3   OH254360   3.763   6.099   4.557 -0.1863  0.6440  0.1564
10982TIP3    H154361   3.727   6.122   4.471 -1.1949 -0.6973  0.1823
10982TIP3    H254362   3.846   6.056   4.537 -0.7539 -0.3173 -0.2246
10983TIP3   OH254363   0.007   3.918  15.220  0.0552 -0.2474 -0.3350
10983TIP3    H154364   0.085   3.958  15.183 -0.2977 -0.2972 -1.1515
10983TIP3    H254365   0.026   3.909  15.313  1.1796 -0.6252 -0.5908
10984TIP3   OH254366   3.195   1.753  12.406 -0.0456  0.9988  0.0807
10984TIP3    H154367   3.224   1.664  12.423  1.1480  1.2089 -0.7118
10984TIP3    H254368   3.107   1.758  12.442 -1.0881 -1.2191 -1.9213
10985TIP3   OH254369   2.043   1.581   0.986 -0.5415  0.4240 -0.4748
10985TIP3    H154370   1.999   1.664   1.007 -0.2040  0.6185 -0.5307
10985TIP3    H254371   2.121   1.607   0.938 -0.0496  0.1124  0.1483
10986TIP3   OH254372   3.095   2.768   1.392 -0.2102 -0.0153  0.2860
10986TIP3    H154373   3.082   2.856   1.429  0.5542  0.3541 -0.2994
10986TIP3    H254374   3.123   2.783   1.302 -0.6892 -0.8835 -0.0213
10987TIP3   OH254375   4.746   3.922   0.599 -0.3825 -0.1360 -0.3009
10987TIP3    H154376   4.724   3.911   0.506 -0.8818 -1.1228 -0.0867
10987TIP3    H254377   4.827   3.973   0.599  0.2905 -1.1589 -1.3324
10988TIP3   OH254378   5.633   3.220  16.123  0.3531  0.3242  0.0970
10988TIP3    H154379   5.706   3.249  16.177 -1.0218  0.3700  2.0442
10988TIP3    H254380   5.627   3.126  16.138  1.8091 -0.2737 -2.4377
10989TIP3   OH254381   5.848   5.461  12.538 -0.1406 -0.1894 -0.3004
10989TIP3    H154382   5.796   5.519  12.482 -1.3313  0.2564  1.2032
10989TIP3    H254383   5.926   5.441  12.486 -0.0174  2.2007 -1.1556
10990TIP3   OH254384   5.602   5.855  11.893 -0.2550 -0.3966  0.1685
10990TIP3    H154385   5.586   5.768  11.929 -0.6822  0.3161  1.8050
10990TIP3    H254386   5.531   5.909  11.929 -0.3683  0.4949 -1.3318
10991TIP3   OH254387   1.030   3.843  15.649 -0.5652  0.0142 -0.0068
10991TIP3    H154388   0.990   3.854  15.562 -3.0382 -1.8511  0.7611
10991TIP3    H254389   1.092   3.772  15.638 -1.7299 -1.0300 -0.0564
10992TIP3   OH254390   0.730   6.229   5.501 -0.4016  0.5093 -0.1613
10992TIP3    H154391   0.661   6.163   5.500  1.5380 -1.6960  0.7327
10992TIP3    H254392   0.733   6.259   5.592  0.4509 -0.1866  0.0575
10993TIP3   OH254393   3.542   3.149  15.956 -0.7935  0.0184 -0.3447
10993TIP3    H154394   3.548   3.240  15.985 -0.2753 -0.6269  1.6926
10993TIP3    H254395   3.480   3.108  16.016 -0.5907 -1.1149 -0.8727
10994TIP3   OH254396   5.772   1.106  12.015  0.4306  0.4685  0.1291
10994TIP3    H154397   5.802   1.018  11.990  0.2548  0.4056  0.1405
10994TIP3    H254398   5.837   1.165  11.975 -1.0985  0.5118 -2.5473
10995TIP3   OH254399   4.243   6.285   5.276 -0.3524 -0.0106 -0.5732
10995TIP3    H154400   4.265   6.238   5.356  0.3941  1.7658  0.3184
10995TIP3    H254401   4.154   6.316   5.290 -0.1933  0.3676 -0.3841
10996TIP3   OH254402   1.222   0.772  12.033  0.7881  0.0568  0.1327
10996TIP3    H154403   1.296   0.717  12.057  0.4024  0.2605  1.8988
10996TIP3    H254404   1.247   0.860  12.061 -0.1285  0.1159  0.8249
10997TIP3   OH254405   5.072   1.305   4.689 -0.6046  0.0937 -0.3825
10997TIP3    H154406   5.153   1.355   4.691 -1.3166  1.2826 -0.4974
10997TIP3    H254407   5.101   1.214   4.681  0.7220  0.4361  0.2252
10998TIP3   OH254408   6.733   3.745  16.351 -0.8288 -0.3746  0.3123
10998TIP3    H154409   6.803   3.711  16.295  0.7503  1.8322  0.8529
10998TIP3    H254410   6.762   3.728  16.440 -0.9710  0.5241  0.5401
10999TIP3   OH254411   0.448   4.718   3.055 -0.1513 -0.1126 -0.0493
10999TIP3    H154412   0.458   4.768   2.973 -3.6809 -0.1767 -0.6727
10999TIP3    H254413   0.476   4.630   3.033 -0.3243  0.0579 -0.9974
11000TIP3   OH254414   3.297   5.902   3.803 -0.3010  0.2516 -0.0610
11000TIP3    H154415   3.355   5.827   3.818  0.9281  1.3178  0.7587
11000TIP3    H254416   3.229   5.894   3.870 -1.6003 -1.4173 -1.4923
11001TIP3   OH254417   4.646   2.529  14.514  0.0357 -0.0936 -0.1619
11001TIP3    H154418   4.674   2.487  14.433 -0.8545  0.2914 -0.6782
11001TIP3    H254419   4.676   2.619  14.506 -0.7180  0.1417 -0.4089
11002TIP3   OH254420   2.248   4.925  12.378  0.3226 -0.0078 -0.0337
11002TIP3    H154421   2.242   4.974  12.460  1.6435 -1.0654  0.7322
11002TIP3    H254422   2.157   4.907  12.354 -0.1967  2.4092 -0.1393
11003TIP3   OH254423   4.301   2.200   1.938  0.0226  0.3625  0.1164
11003TIP3    H154424   4.296   2.230   1.847  0.3859  2.5329  0.7352
11003TIP3    H254425   4.376   2.141   1.940 -0.8136 -0.8083 -1.2276
11004TIP3   OH254426   3.832   4.022  14.739 -0.5839 -0.0254 -0.4162
11004TIP3    H154427   3.811   4.088  14.805  0.4115  1.1640 -1.2418
11004TIP3    H254428   3.800   4.059  14.657 -0.0183 -0.5684 -0.8945
11005TIP3   OH254429   3.020   5.125   2.528  0.2801 -0.5500  0.1588
11005TIP3    H154430   2.994   5.159   2.614 -1.9049  0.4153 -0.8208
11005TIP3    H254431   3.022   5.202   2.472 -1.2239 -1.5351 -1.3095
11006TIP3   OH254432   4.747   2.280  12.046 -0.2538 -0.5368 -0.4156
11006TIP3    H154433   4.772   2.372  12.032  0.5145 -0.5666  0.6311
11006TIP3    H254434   4.830   2.235  12.062 -0.7961 -0.8938  1.7856
11007TIP3   OH254435   6.343   2.480   0.408  0.1843 -0.3873  0.2781
11007TIP3    H154436   6.271   2.522   0.360 -0.0433 -1.5478 -0.4315
11007TIP3    H254437   6.316   2.483   0.500 -0.5636 -0.4248  0.0619
11008TIP3   OH254438   5.335   5.570  14.250  0.0005  0.5411  0.6249
11008TIP3    H154439   5.324   5.519  14.170  2.6796 -0.0068  0.4979
11008TIP3    H254440   5.268   5.638  14.246  0.2155  0.6738 -2.2076
11009TIP3   OH254441   6.398   3.532   0.095 -0.5236 -0.3321  0.3110
11009TIP3    H154442   6.303   3.533   0.111 -0.5690  2.1081  0.3370
11009TIP3    H254443   6.410   3.468   0.025 -2.7605  1.7641 -2.2404
11010TIP3   OH254444   5.089   2.099  13.403  0.2170  0.0646  0.0707
11010TIP3    H154445   4.999   2.094  13.437  0.4172  0.1902  0.6241
11010TIP3    H254446   5.143   2.059  13.472  0.4272 -1.4777 -0.9362
11011TIP3   OH254447   5.374   4.523   3.462 -0.5803  0.2275 -0.0965
11011TIP3    H154448   5.346   4.448   3.513  0.3284  0.5954  0.9647
11011TIP3    H254449   5.451   4.492   3.413 -1.1536  0.0193 -0.8848
11012TIP3   OH254450   6.168   0.076  12.289 -0.6109  0.4681 -0.6534
11012TIP3    H154451   6.113   0.151  12.311  0.5056  1.7021 -1.8353
11012TIP3    H254452   6.237   0.075  12.356  0.3282  1.5768 -1.5532
11013TIP3   OH254453   1.920   4.078  12.591 -0.5771 -0.8045  0.6964
11013TIP3    H154454   1.857   4.103  12.524  0.8493 -0.6762 -0.6464
11013TIP3    H254455   1.968   4.159  12.611 -1.5698 -0.6343  2.5553
11014TIP3   OH254456   4.931   6.075   1.802  1.3087 -0.3305  0.4229
11014TIP3    H154457   4.869   6.069   1.874  2.5414 -3.0124  1.4095
11014TIP3    H254458   5.016   6.092   1.844  2.0813 -2.1492 -0.2846
11015TIP3   OH254459   0.445   3.277  16.168  0.4010  0.3358 -0.3304
11015TIP3    H154460   0.373   3.293  16.107 -0.4942  4.2622  1.4596
11015TIP3    H254461   0.522   3.271  16.112 -0.6632  1.4664 -2.0339
11016TIP3   OH254462   0.063   1.894   4.746  0.4883  0.2143 -0.0556
11016TIP3    H154463   0.102   1.939   4.821  0.0616 -1.2097  1.0520
11016TIP3    H254464  -0.031   1.894   4.765  0.3972 -0.3366 -0.5037
11017TIP3   OH254465   6.461   5.751   3.253 -0.0325 -0.9458 -0.0746
11017TIP3    H154466   6.387   5.802   3.284  0.6602 -0.2951  0.5336
11017TIP3    H254467   6.483   5.693   3.326  1.4944  0.4698  0.6433
11018TIP3   OH254468   4.664   2.666   3.024 -0.0545  0.0434 -0.0559
11018TIP3    H154469   4.760   2.671   3.019 -0.0573 -0.6580 -1.3461
11018TIP3    H254470   4.646   2.624   3.108  0.8043 -0.2404 -0.0063
11019TIP3   OH254471   1.066   3.491  15.243  0.4717  0.3083 -0.3393
11019TIP3    H154472   1.090   3.579  15.214 -0.2378  0.7469  0.3616
11019TIP3    H254473   0.997   3.465  15.183  0.1343  0.5561 -0.0636
11020TIP3   OH254474   1.616   3.652   2.561  0.8101 -0.0692  0.4883
11020TIP3    H154475   1.686   3.685   2.505  0.2684  1.7365  0.8146
11020TIP3    H254476   1.623   3.556   2.554  0.6210  0.0329 -2.8288
11021TIP3   OH254477   4.045   3.871   6.264 -1.0693 -0.3332 -0.3830
11021TIP3    H154478   3.999   3.954   6.253 -1.2113 -0.3721 -0.0859
11021TIP3    H254479   4.042   3.830   6.177 -1.5419 -0.3100 -0.3780
11022TIP3   OH254480   4.141   3.191   1.764 -0.0221 -0.6579  0.0434
11022TIP3    H154481   4.082   3.231   1.828 -0.6254  0.2786 -1.0614
11022TIP3    H254482   4.085   3.132   1.714 -0.1981  0.6733 -1.3956
11023TIP3   OH254483   5.742   4.314  12.666 -0.0723 -0.2508  0.0425
11023TIP3    H154484   5.686   4.321  12.589  0.8072  0.7260 -0.5334
11023TIP3    H254485   5.816   4.260  12.637  0.6335  0.7316 -0.0554
11024TIP3   OH254486   3.288   5.652   4.942  0.0849 -0.0995 -0.2840
11024TIP3    H154487   3.382   5.668   4.952  0.0128 -0.1388  0.4780
11024TIP3    H254488   3.282   5.589   4.870  0.6949 -0.7539  0.2231
11025TIP3   OH254489   5.737   3.544  14.127  0.4987 -0.0425  0.4423
11025TIP3    H154490   5.814   3.579  14.082  1.4436 -0.1481  1.9320
11025TIP3    H254491   5.678   3.619  14.137  0.9741  0.3249  0.4742
11026TIP3   OH254492   0.208   0.218  12.971  0.3714  0.4567  0.0999
11026TIP3    H154493   0.199   0.171  12.889  1.6304  0.6165 -0.1467
11026TIP3    H254494   0.156   0.168  13.034  0.1368 -0.1728 -0.5921
11027TIP3   OH254495   3.959   6.760   5.252  0.8440 -0.5164  0.3179
11027TIP3    H154496   3.887   6.817   5.226  1.1593 -0.9849 -1.7376
11027TIP3    H254497   4.029   6.780   5.190  2.0020 -1.0619  1.3999
11028TIP3   OH254498   5.402   5.812   0.655  0.2165  0.5636  0.3220
11028TIP3    H154499   5.498   5.817   0.646  0.0719  0.8848 -1.2833
11028TIP3    H254500   5.383   5.718   0.656  0.5612  0.4938  0.9171
11029TIP3   OH254501   4.352   0.428  14.971 -0.6397 -0.0574 -0.6711
11029TIP3    H154502   4.256   0.428  14.972 -0.6943 -1.4625 -2.0183
11029TIP3    H254503   4.376   0.359  15.033 -0.5317 -0.2857 -0.9650
11030TIP3   OH254504   5.599   0.953  13.724 -0.0809 -0.1094 -0.1659
11030TIP3    H154505   5.591   1.039  13.681  0.7780 -0.5408 -1.2318
11030TIP3    H254506   5.692   0.931  13.717 -0.1260 -0.7145  0.9341
11031TIP3   OH254507   6.210   4.849  12.486 -0.4489  0.2694 -0.2110
11031TIP3    H154508   6.208   4.898  12.568 -0.2325 -1.0254  0.5911
11031TIP3    H254509   6.125   4.806  12.481 -0.0296 -0.5911 -0.0736
11032TIP3   OH254510   3.823   6.540   5.990  0.0458  0.4682 -0.7992
11032TIP3    H154511   3.873   6.458   5.989 -0.3239  0.2204  0.0943
11032TIP3    H254512   3.752   6.524   6.052  0.5686  1.8236  0.1985
11033TIP3   OH254513   3.423   5.419   0.832 -0.2150  0.1389 -0.3219
11033TIP3    H154514   3.383   5.380   0.754 -0.8915 -1.7018  0.8827
11033TIP3    H254515   3.352   5.464   0.876 -0.5799 -1.4408  0.7842
11034TIP3   OH254516   5.423   3.961   1.363  0.3948 -0.1158 -0.0979
11034TIP3    H154517   5.395   4.003   1.282  0.6015 -0.3153 -0.2731
11034TIP3    H254518   5.483   3.892   1.335  0.3188 -0.3105  0.2116
11035TIP3   OH254519   4.320   4.524   3.016 -0.5191  0.1969 -0.0368
11035TIP3    H154520   4.393   4.585   3.020 -0.9786  0.7137  0.9055
11035TIP3    H254521   4.271   4.549   2.938 -1.2856  1.7435  0.9073
11036TIP3   OH254522   6.001   6.784  13.389  0.5084  0.3994  0.1199
11036TIP3    H154523   6.030   6.697  13.362  1.0127  0.6396 -0.1183
11036TIP3    H254524   5.968   6.772  13.478 -0.2958 -0.2205 -0.2463
11037TIP3   OH254525   4.866   2.063   3.997 -0.1444  0.1964 -0.0600
11037TIP3    H154526   4.928   1.994   3.972 -1.7191 -1.2510 -0.0989
11037TIP3    H254527   4.842   2.042   4.087 -0.9225  0.4786 -0.1972
11038TIP3   OH254528   4.779   1.608  16.912 -0.4996 -0.5323  0.0466
11038TIP3    H154529   4.782   1.536  16.976  1.8542 -0.4507  0.0863
11038TIP3    H254530   4.819   1.682  16.957  1.9533 -0.6792 -1.6911
11039TIP3   OH254531   2.946   1.222   6.584  0.1738  0.5810  0.3767
11039TIP3    H154532   2.911   1.302   6.622  1.6925  2.0444 -1.0831
11039TIP3    H254533   3.040   1.237   6.580  0.1726  0.6012 -3.7639
11040TIP3   OH254534   5.967   2.311  10.379  0.1985  0.9187  0.3137
11040TIP3    H154535   5.951   2.352  10.464  1.4635 -0.5137  1.3110
11040TIP3    H254536   5.931   2.222  10.389  0.1679  0.8092 -0.7239
11041TIP3   OH254537   5.669   4.226  14.104  0.2275 -0.4800  0.0140
11041TIP3    H154538   5.632   4.195  14.187  0.9449 -1.2508  0.0560
11041TIP3    H254539   5.715   4.307  14.127  0.6539 -0.8359  0.4160
11042TIP3   OH254540   2.271   6.011  12.781  0.0726 -0.0615  0.3842
11042TIP3    H154541   2.318   5.960  12.847  0.6916  1.8679  1.5187
11042TIP3    H254542   2.208   6.064  12.831  0.6332  1.5330 -0.5011
11043TIP3   OH254543   3.078   3.672   2.127  0.3691  0.1857 -0.4082
11043TIP3    H154544   3.065   3.717   2.044  0.2070 -0.8120 -0.9401
11043TIP3    H254545   3.039   3.730   2.192  0.5641  1.0139 -1.0130
11044TIP3   OH254546   0.868   2.026  13.307 -0.1166 -0.3712 -0.2033
11044TIP3    H154547   0.917   1.946  13.290 -0.2326 -0.9835  2.0098
11044TIP3    H254548   0.812   2.037  13.231  0.1301 -2.2322 -0.6898
11045TIP3   OH254549   6.410   6.551  14.967  0.0053 -0.3229 -1.0531
11045TIP3    H154550   6.372   6.622  14.915  0.9802 -0.7152 -2.3392
11045TIP3    H254551   6.334   6.512  15.011 -0.6735  0.8675 -1.1030
11046TIP3   OH254552   3.896   3.047   4.607 -0.0673  0.2533  0.4093
11046TIP3    H154553   3.851   3.065   4.690  1.5199 -0.3145  1.4428
11046TIP3    H254554   3.836   2.989   4.560 -0.6581 -0.0847  1.5299
11047TIP3   OH254555   2.791   3.770   2.851 -0.0283  0.1183  0.1554
11047TIP3    H154556   2.776   3.806   2.938  0.4824  0.5684  0.0593
11047TIP3    H254557   2.859   3.703   2.865  2.7911  2.6281 -0.3897
11048TIP3   OH254558   5.195   6.309   4.571 -0.2676  0.0321 -0.2729
11048TIP3    H154559   5.188   6.230   4.625 -0.7910  0.2711  0.0154
11048TIP3    H254560   5.271   6.293   4.516 -0.6244 -0.8639 -0.5251
11049TIP3   OH254561   2.036   1.893  11.457  0.0359 -0.1339 -0.1053
11049TIP3    H154562   2.041   1.943  11.376  1.2636 -0.2829 -0.1377
11049TIP3    H254563   2.055   1.803  11.432 -1.5251 -0.5341  0.0559
11050TIP3   OH254564   5.298   2.956   4.083 -0.8190 -0.2873 -0.1103
11050TIP3    H154565   5.278   2.863   4.078 -0.6751 -0.2647 -2.7177
11050TIP3    H254566   5.251   2.994   4.008 -2.1635  2.0306  1.7691
11051TIP3   OH254567   2.855   1.482  12.461  0.5520 -0.1073 -0.6854
11051TIP3    H154568   2.776   1.446  12.420  0.9387 -0.3505 -1.2312
11051TIP3    H254569   2.870   1.428  12.538 -0.5801  0.7825  0.1968
11052TIP3   OH254570   0.631   2.366   5.896 -0.1181  0.3549  0.2340
11052TIP3    H154571   0.710   2.316   5.914 -0.4653 -0.4132 -0.3236
11052TIP3    H254572   0.562   2.322   5.946 -0.2855  0.7374  0.3439
11053TIP3   OH254573   0.393   2.662   3.472 -0.3019  0.3416 -0.0358
11053TIP3    H154574   0.343   2.597   3.424 -0.6437  1.0599 -0.6880
11053TIP3    H254575   0.418   2.726   3.405  0.2152  0.7584  0.5463
11054TIP3   OH254576   3.733   3.886  16.627 -0.2335 -0.2036 -0.3259
11054TIP3    H154577   3.690   3.940  16.693  0.2733 -1.4444  1.0952
11054TIP3    H254578   3.803   3.941  16.592 -1.2744  0.8929 -0.7238
11055TIP3   OH254579   4.335   2.479   6.136 -0.0443 -0.0135 -0.0983
11055TIP3    H154580   4.372   2.515   6.055  0.8839  0.3496  0.4787
11055TIP3    H254581   4.343   2.549   6.200  0.6076 -0.7882  0.7003
11056TIP3   OH254582   4.358   0.839  15.172 -0.3262  0.4354 -0.0865
11056TIP3    H154583   4.446   0.834  15.135 -1.1699  0.4218 -2.2159
11056TIP3    H254584   4.319   0.917  15.132 -2.6569 -1.7972 -2.5955
11057TIP3   OH254585   6.692   2.013   2.337 -1.0737 -0.5169 -0.5949
11057TIP3    H154586   6.673   2.027   2.244  0.7352  0.8007 -0.8207
11057TIP3    H254587   6.775   1.965   2.337 -1.3753 -1.0528  0.3511
11058TIP3   OH254588   1.953   4.592   0.409  0.0847  0.0389 -0.6478
11058TIP3    H154589   1.934   4.686   0.407  0.0757  0.0525  0.0863
11058TIP3    H254590   1.920   4.559   0.325 -0.5059  0.5762 -0.6314
11059TIP3   OH254591   4.304   0.920   3.508 -0.1228 -0.6873 -0.3394
11059TIP3    H154592   4.336   1.010   3.515 -0.5151 -0.6403  1.3320
11059TIP3    H254593   4.238   0.923   3.439 -2.0669  0.9560  1.4417
11060TIP3   OH254594   4.423   0.912   0.327 -0.5355  0.5660  0.1828
11060TIP3    H154595   4.443   0.967   0.402  0.9102  1.8601 -1.0882
11060TIP3    H254596   4.476   0.947   0.256 -1.0486 -1.2686 -1.1986
11061TIP3   OH254597   6.616   6.611   5.607 -0.3029  0.2158  0.1412
11061TIP3    H154598   6.532   6.627   5.651 -0.1162 -0.1460  0.6336
11061TIP3    H254599   6.637   6.520   5.627  0.9629  0.7444  1.3149
11062TIP3   OH254600   1.239   1.547   2.745 -0.2857 -0.0570 -0.1987
11062TIP3    H154601   1.168   1.609   2.731 -0.0586 -0.1768 -2.1835
11062TIP3    H254602   1.315   1.585   2.700  0.1899 -1.1623 -0.3884
11063TIP3   OH254603   4.596   1.788  12.835 -0.4416 -0.3546  0.3481
11063TIP3    H154604   4.502   1.802  12.820 -0.3201 -1.5229 -1.9040
11063TIP3    H254605   4.640   1.850  12.777  0.1530 -0.9029  0.1977
11064TIP3   OH254606   0.496   0.019   4.969 -0.6877 -0.2568 -0.1759
11064TIP3    H154607   0.442  -0.039   4.915  2.5072 -3.0249 -0.7399
11064TIP3    H254608   0.457   0.014   5.056 -3.5838  1.1123 -1.2723
11065TIP3   OH254609   4.376   2.583  10.684 -0.0773 -0.3734  0.6173
11065TIP3    H154610   4.438   2.545  10.746  0.6731 -1.6531 -0.8596
11065TIP3    H254611   4.406   2.673  10.671  1.3325 -0.8921  0.1375
11066TIP3   OH254612   4.726   6.011   6.892  0.5490  0.4712  0.5935
11066TIP3    H154613   4.773   6.088   6.861  1.7652 -0.1455  0.8404
11066TIP3    H254614   4.780   5.936   6.865 -1.5081 -0.4439 -1.2625
11067TIP3   OH254615   3.733   2.762   5.472  0.7397  0.4058 -0.4551
11067TIP3    H154616   3.754   2.680   5.427  1.7828  0.5326 -0.2270
11067TIP3    H254617   3.663   2.739   5.532 -0.2553  0.1007 -1.7031
11068TIP3   OH254618   5.161   2.299   2.384 -0.0998 -0.5507 -0.1121
11068TIP3    H154619   5.163   2.375   2.441 -0.1257 -1.0121  0.5109
11068TIP3    H254620   5.187   2.333   2.298 -1.2241  0.3896 -0.1189
11069TIP3   OH254621   0.205   1.989  10.764 -0.0406  0.0432 -0.0548
11069TIP3    H154622   0.111   1.985  10.746 -0.0081 -0.6877 -0.0949
11069TIP3    H254623   0.224   2.083  10.770 -0.7197  0.2063 -0.3088
11070TIP3   OH254624   1.367   0.426  12.313  0.6026 -0.4966  0.1199
11070TIP3    H154625   1.388   0.373  12.236 -0.8081  0.5898 -1.0589
11070TIP3    H254626   1.416   0.507  12.301 -0.7067  0.2501 -0.3934
11071TIP3   OH254627   5.046   1.357  17.027 -0.2740  0.7821 -0.6278
11071TIP3    H154628   5.088   1.343  16.942 -0.6461  1.5958 -0.9557
11071TIP3    H254629   5.117   1.343  17.090 -0.3042 -1.1570 -0.9733
11072TIP3   OH254630   1.310   0.830  15.933  0.2897  0.2488  0.0560
11072TIP3    H154631   1.287   0.905  15.879 -0.3149 -0.0802 -0.1506
11072TIP3    H254632   1.381   0.862  15.989 -1.4799  1.7253  1.6406
11073TIP3   OH254633   6.192   1.317   4.068 -0.2592 -0.4167  0.6036
11073TIP3    H154634   6.204   1.386   4.003 -2.2599 -0.1205  0.4773
11073TIP3    H254635   6.179   1.363   4.151 -2.2623 -0.5576  0.4085
11074TIP3   OH254636   4.352   5.316  14.583 -0.0714  0.1506  0.4331
11074TIP3    H154637   4.336   5.345  14.493  1.5161  0.8224  0.3318
11074TIP3    H254638   4.353   5.396  14.635  3.5299  0.3709  0.2814
11075TIP3   OH254639   1.643   1.495  14.973  0.2229 -0.1188  0.1247
11075TIP3    H154640   1.649   1.415  14.921 -3.2133 -0.0689 -0.5671
11075TIP3    H254641   1.607   1.466  15.057 -1.4941  0.6661 -0.2920
11076TIP3   OH254642   1.618   4.135  12.570  0.3761 -0.7175  0.2390
11076TIP3    H154643   1.591   4.180  12.490 -0.2490 -1.0465  0.2614
11076TIP3    H254644   1.638   4.204  12.632 -0.7551 -0.4623  0.3373
11077TIP3   OH254645   4.889   3.073   3.643 -0.3117  0.2390  0.4292
11077TIP3    H154646   4.876   3.107   3.732 -1.8968  0.4733  0.1212
11077TIP3    H254647   4.918   3.149   3.593 -1.6227  0.6376  0.2538
11078TIP3   OH254648   6.772   5.089   1.704 -0.6848  0.2361  0.3723
11078TIP3    H154649   6.776   5.027   1.777 -0.3621  0.5987  0.6689
11078TIP3    H254650   6.682   5.120   1.704 -1.4536 -1.7681 -1.0847
11079TIP3   OH254651   3.437   4.681   5.691 -0.1784  0.0823  0.1789
11079TIP3    H154652   3.393   4.749   5.743  0.6037 -0.6079  1.8240
11079TIP3    H254653   3.486   4.730   5.625 -1.5595  0.9633 -0.2379
11080TIP3   OH254654   2.983   0.386   5.625  0.1102 -0.7779 -0.1130
11080TIP3    H154655   2.941   0.361   5.707 -0.9938  4.4510  1.2750
11080TIP3    H254656   3.076   0.369   5.639  0.0844  0.8737  2.7583
11081TIP3   OH254657   1.128   3.683   4.564  0.1009 -0.5059 -0.5306
11081TIP3    H154658   1.053   3.631   4.593  0.0765  0.2971  0.9556
11081TIP3    H254659   1.118   3.767   4.610  0.2426  0.7668 -2.6925
11082TIP3   OH254660   2.784   2.606  16.487 -0.1496 -0.4571  0.3688
11082TIP3    H154661   2.712   2.627  16.547  0.4195  0.6240  0.6751
11082TIP3    H254662   2.741   2.557  16.416 -0.8001 -1.9668  1.7226
11083TIP3   OH254663   1.828   2.295  15.896 -0.3321 -0.6007  0.2572
11083TIP3    H154664   1.924   2.292  15.891 -0.2021  2.3347 -2.1994
11083TIP3    H254665   1.808   2.388  15.902 -3.0651 -1.1557  0.6918
11084TIP3   OH254666   3.329   2.635  14.842 -0.3272 -0.0994 -0.1810
11084TIP3    H154667   3.257   2.684  14.803 -1.0308 -1.9956 -1.3983
11084TIP3    H254668   3.293   2.601  14.924 -0.4826 -0.2192 -0.2996
11085TIP3   OH254669   4.920   6.143  13.203  0.3053  0.6950 -0.0771
11085TIP3    H154670   4.992   6.153  13.265 -0.1170  0.2365  0.4988
11085TIP3    H254671   4.959   6.162  13.117  1.5794 -1.4264 -0.0263
11086TIP3   OH254672   2.459   5.249  16.153  0.2319 -0.2458  0.1881
11086TIP3    H154673   2.497   5.325  16.198  0.4842 -1.4753  2.1419
11086TIP3    H254674   2.417   5.287  16.075  1.6913  1.6847  0.2576
11087TIP3   OH254675   6.764   1.581   5.261  0.0699  0.2649 -0.4922
11087TIP3    H154676   6.726   1.512   5.315 -0.6162  1.5607  0.7845
11087TIP3    H254677   6.852   1.552   5.241 -0.6581 -1.5989 -1.2023
11088TIP3   OH254678   2.920   3.426   2.416 -0.1204 -0.7321 -0.6659
11088TIP3    H154679   2.855   3.439   2.486 -0.1651  0.5690 -0.9326
11088TIP3    H254680   2.933   3.513   2.379  1.2221 -1.1120 -1.1263
11089TIP3   OH254681   6.134   5.026   3.402  0.3660 -0.3086 -0.3135
11089TIP3    H154682   6.123   5.033   3.497  2.3351  0.5193 -0.1112
11089TIP3    H254683   6.045   5.034   3.367 -0.3077  0.0753  1.4146
11090TIP3   OH254684   5.966   2.785   1.624  0.4447  0.0159 -0.3944
11090TIP3    H154685   5.936   2.817   1.709 -0.8017  1.3907 -1.3112
11090TIP3    H254686   6.054   2.823   1.614  0.7105 -0.3748  0.3737
11091TIP3   OH254687   1.763   3.009  15.008 -0.7990 -0.2232 -0.1070
11091TIP3    H154688   1.847   2.962  15.003  0.2144  1.4947 -0.0163
11091TIP3    H254689   1.740   3.026  14.916 -1.6278 -1.6199 -0.1823
11092TIP3   OH254690   0.141   5.446   6.521  0.4928  0.1886 -0.0064
11092TIP3    H154691   0.048   5.458   6.535  0.3850  0.1676 -0.6725
11092TIP3    H254692   0.181   5.466   6.606 -0.0924  0.4397  0.2152
11093TIP3   OH254693   3.201   4.663  17.172 -0.9236  0.6865 -0.2338
11093TIP3    H154694   3.142   4.737  17.183 -1.5535 -0.1028  2.7982
11093TIP3    H254695   3.148   4.595  17.131 -1.2806  0.9191 -0.1599
11094TIP3   OH254696   0.109   5.593   0.598 -0.5290 -1.0799  0.1446
11094TIP3    H154697   0.165   5.544   0.658 -0.0231  0.3398  0.8680
11094TIP3    H254698   0.145   5.681   0.598 -1.6741 -0.5835 -0.7938
11095TIP3   OH254699   4.019   3.828   1.917 -0.4677 -0.9505 -0.0757
11095TIP3    H154700   4.098   3.838   1.971 -0.3318  0.9226 -0.5552
11095TIP3    H254701   3.950   3.804   1.980  0.1018 -0.7710  0.6315
11096TIP3   OH254702   1.925   3.311  15.658  0.5574 -0.0730  0.0893
11096TIP3    H154703   1.859   3.380  15.658 -0.6155 -1.1344 -1.8110
11096TIP3    H254704   1.994   3.345  15.600  0.1298 -0.3543 -0.5892
11097TIP3   OH254705   0.647   3.146  13.356 -0.7589  0.0097 -0.2932
11097TIP3    H154706   0.709   3.157  13.284 -1.3886  0.5267 -0.7800
11097TIP3    H254707   0.674   3.211  13.421 -0.1044 -0.5518  0.0065
11098TIP3   OH254708   3.700   5.866   4.756 -0.3278 -0.6334  0.1743
11098TIP3    H154709   3.743   5.948   4.731 -0.8444 -0.4365 -0.0919
11098TIP3    H254710   3.757   5.798   4.721 -1.2310 -0.3683 -1.9929
11099TIP3   OH254711   5.990   4.342   3.105 -0.2487  0.1209  0.5960
11099TIP3    H154712   5.926   4.309   3.041 -0.2092 -0.5778  0.9149
11099TIP3    H254713   5.975   4.437   3.106 -1.1469 -0.0095  0.5175
11100TIP3   OH254714   0.782   5.683   4.146  0.2420  0.2629  0.0804
11100TIP3    H154715   0.777   5.588   4.136  1.1335  0.0309  1.5245
11100TIP3    H254716   0.873   5.705   4.124  0.2201  0.6789  0.3905
11101TIP3   OH254717   6.739   1.691   5.641  0.4996 -0.2704 -0.1974
11101TIP3    H154718   6.698   1.685   5.727 -2.2142  0.9923 -1.2652
11101TIP3    H254719   6.737   1.601   5.607 -0.7868 -0.3715  0.0937
11102TIP3   OH254720   5.681   6.448  15.810 -0.2837  0.5212 -0.1109
11102TIP3    H154721   5.710   6.428  15.899  2.0540  1.5784 -0.5529
11102TIP3    H254722   5.752   6.501  15.773 -1.5455  0.7769 -2.3515
11103TIP3   OH254723   4.481   1.888   4.519  0.2407  0.3795  0.5043
11103TIP3    H154724   4.505   1.844   4.600 -1.0945  0.0898  0.7752
11103TIP3    H254725   4.465   1.979   4.545  1.4362  0.6729  0.2438
11104TIP3   OH254726   2.444   3.821  13.991 -0.0998  0.7888  0.5776
11104TIP3    H154727   2.414   3.912  13.985  2.1505  1.5796  0.4305
11104TIP3    H254728   2.507   3.822  14.063  0.3509 -0.5620  0.2181
11105TIP3   OH254729   5.808   4.995   4.440 -0.1832 -0.1184  0.2354
11105TIP3    H154730   5.806   5.065   4.505 -2.2746 -1.1650  1.3974
11105TIP3    H254731   5.718   4.964   4.435  0.7742 -3.2814  0.3711
11106TIP3   OH254732   5.094   4.630   2.159 -0.4507 -0.4946 -0.1367
11106TIP3    H154733   5.159   4.683   2.205 -0.6737 -0.3214 -0.0207
11106TIP3    H254734   5.059   4.688   2.092 -0.2491 -0.6928 -0.4164
11107TIP3   OH254735   2.698   4.658  17.044  0.1034  0.0226  0.3182
11107TIP3    H154736   2.771   4.599  17.064 -0.4844 -0.3762  1.3457
11107TIP3    H254737   2.635   4.603  16.996  0.7530  0.5414 -1.1906
11108TIP3   OH254738   3.037   4.003   5.729 -0.0284  0.5769  0.2109
11108TIP3    H154739   3.089   4.083   5.731  0.4638  0.3541 -1.5488
11108TIP3    H254740   2.959   4.025   5.678  0.2483 -0.1073 -0.5375
11109TIP3   OH254741   6.469   2.582  13.614  0.8139  0.5167 -0.0475
11109TIP3    H154742   6.534   2.627  13.669 -1.2536  0.7984  2.3248
11109TIP3    H254743   6.473   2.491  13.642 -0.9384  0.8344  1.3977
11110TIP3   OH254744   4.358   2.663   6.353  0.3702 -0.0905 -0.1550
11110TIP3    H154745   4.290   2.681   6.418  1.3130 -0.7372  1.0697
11110TIP3    H254746   4.419   2.737   6.361  0.3072  0.0023 -0.5458
11111TIP3   OH254747   2.129   5.409   2.951 -0.0002  0.5366 -0.9447
11111TIP3    H154748   2.042   5.395   2.989  0.1409 -0.5115 -0.9867
11111TIP3    H254749   2.149   5.328   2.904  1.1062  0.6658 -0.7338
11112TIP3   OH254750   4.725   0.357   2.107 -0.1079  0.0471  0.0680
11112TIP3    H154751   4.812   0.392   2.125 -0.9646  1.5919  1.5490
11112TIP3    H254752   4.711   0.374   2.014  1.7149 -1.5897 -0.5504
11113TIP3   OH254753   2.984   5.623  14.545 -0.2670 -0.0704  0.0019
11113TIP3    H154754   2.933   5.564  14.490  0.3407  0.3610 -1.0607
11113TIP3    H254755   3.062   5.572  14.569  0.8430  0.6109 -1.8904
11114TIP3   OH254756   6.066   5.025   3.658  0.0338 -0.3074 -0.1788
11114TIP3    H154757   6.002   5.084   3.696 -0.1980  1.5478 -3.1688
11114TIP3    H254758   6.150   5.057   3.690 -0.2947 -1.1311  1.6468
11115TIP3   OH254759   2.422   2.206  12.612 -0.2637 -0.0763 -0.0168
11115TIP3    H154760   2.413   2.268  12.684 -1.0811  1.1827 -1.1517
11115TIP3    H254761   2.500   2.236  12.564 -1.3093  0.8288 -1.2251
11116TIP3   OH254762   3.335   6.176   0.919 -0.2700  0.2934  0.4378
11116TIP3    H154763   3.365   6.087   0.904 -0.9430  0.0159  0.6996
11116TIP3    H254764   3.377   6.202   1.001  0.5731  0.5220 -0.0507
11117TIP3   OH254765   6.038   5.116   0.363 -0.2351  0.6826 -0.3259
11117TIP3    H154766   5.998   5.100   0.449  1.6026  0.9993  0.6346
11117TIP3    H254767   6.007   5.203   0.338  0.3070  1.1942  0.7052
11118TIP3   OH254768   0.514   5.642   4.753  0.0426 -0.2213  0.6436
11118TIP3    H154769   0.423   5.632   4.782 -0.7286  1.0720 -1.1199
11118TIP3    H254770   0.533   5.736   4.765 -0.1778  0.3139 -2.3270
11119TIP3   OH254771   1.273   0.674  11.782 -0.0322  0.1059 -0.0602
11119TIP3    H154772   1.256   0.728  11.859  0.1762 -1.1866  0.9210
11119TIP3    H254773   1.186   0.657  11.745 -0.1707  0.3169  0.1651
11120TIP3   OH254774   3.568   1.789  13.640 -0.4475 -0.1981  0.0729
11120TIP3    H154775   3.553   1.816  13.550 -0.2558 -0.3060  0.0065
11120TIP3    H254776   3.482   1.763  13.673 -0.4701 -0.4195 -0.1659
11121TIP3   OH254777   4.718   2.229   1.600 -0.4240  0.0871 -0.5130
11121TIP3    H154778   4.733   2.152   1.545  0.0294 -0.2518  0.0677
11121TIP3    H254779   4.635   2.211   1.644  0.9715 -1.4002  1.7306
11122TIP3   OH254780   3.534   1.021   4.178  0.0723  0.2683 -0.2702
11122TIP3    H154781   3.535   0.990   4.087 -0.0868  0.3886 -0.3128
11122TIP3    H254782   3.468   0.966   4.221  0.6271 -0.2556 -0.0614
11123TIP3   OH254783   4.202   3.092  16.604 -0.1346  0.1382 -0.0517
11123TIP3    H154784   4.157   3.050  16.678  0.4040  0.6142  0.5589
11123TIP3    H254785   4.235   3.020  16.551  1.3676 -0.2596  1.3438
11124TIP3   OH254786   1.159   4.970   5.678  0.0067  0.4865 -1.1079
11124TIP3    H154787   1.145   5.022   5.598  3.4509  2.5109 -0.6351
11124TIP3    H254788   1.200   5.032   5.738 -1.1011 -1.3925  1.7503
11125TIP3   OH254789   1.913   2.708  13.989 -0.6070  0.6855 -0.2150
11125TIP3    H154790   1.957   2.760  14.057 -0.9876  1.9249 -0.8937
11125TIP3    H254791   1.845   2.660  14.036 -0.2699  0.8077  0.4132
11126TIP3   OH254792   2.966   0.543  14.576  0.6109 -0.2570  0.1808
11126TIP3    H154793   3.041   0.567  14.522  0.1645 -2.0812 -1.3724
11126TIP3    H254794   2.900   0.610  14.556  0.9945 -0.0346 -0.3600
11127TIP3   OH254795   6.318   5.740   4.963  0.4978 -0.4647 -0.3996
11127TIP3    H154796   6.228   5.746   4.996  1.0872 -0.9026  1.3513
11127TIP3    H254797   6.313   5.676   4.893 -0.9321  1.0676 -1.8004
11128TIP3   OH254798   5.525   3.327   2.119  0.0883  0.2675  0.3011
11128TIP3    H154799   5.575   3.246   2.114  1.8634  1.3177  0.1601
11128TIP3    H254800   5.525   3.360   2.029 -0.2097  0.6635  0.4430
11129TIP3   OH254801   6.182   6.026  14.049 -0.2245  0.6256  0.1087
11129TIP3    H154802   6.161   6.079  14.126 -3.5652  0.9659 -0.8755
11129TIP3    H254803   6.134   5.945  14.061  0.8727 -0.1767 -0.7064
11130TIP3   OH254804   3.564   2.607   6.025  0.2582 -0.4116 -0.1906
11130TIP3    H154805   3.529   2.600   6.114 -0.4388  0.5057 -0.3721
11130TIP3    H254806   3.657   2.626   6.037  0.4600 -1.6416  0.3169
11131TIP3   OH254807   5.489   6.021   1.823  0.3336  0.2289 -0.3063
11131TIP3    H154808   5.452   5.946   1.776  0.6068 -0.2367  0.2095
11131TIP3    H254809   5.563   6.049   1.769  0.2531  0.1111 -0.4811
11132TIP3   OH254810   5.931   4.575   2.177 -0.4258 -0.1397  0.2520
11132TIP3    H154811   5.882   4.510   2.127 -0.4434 -0.4543  0.6799
11132TIP3    H254812   5.869   4.607   2.242 -0.2160 -0.1813  0.4732
11133TIP3   OH254813   4.476   1.837  13.193 -0.2701  0.0196 -0.4109
11133TIP3    H154814   4.390   1.864  13.161 -1.2147  0.5880  2.3438
11133TIP3    H254815   4.458   1.764  13.252  0.9027  1.2297  1.5350
11134TIP3   OH254816   0.501   0.453  14.896 -0.1476 -0.5149 -0.0860
11134TIP3    H154817   0.432   0.405  14.941 -0.9227 -0.8922 -1.6262
11134TIP3    H254818   0.513   0.407  14.813 -0.7612  1.7549 -1.5390
11135TIP3   OH254819   3.066   4.884  13.333  0.1107  0.3198  0.2500
11135TIP3    H154820   3.144   4.922  13.294 -0.4882  2.1084  0.6848
11135TIP3    H254821   3.012   4.858  13.259  1.5608 -2.0897 -0.0831
11136TIP3   OH254822   2.087   6.735   3.097  0.0581  0.8902  0.1407
11136TIP3    H154823   2.066   6.765   3.185  2.2694 -0.3810  1.1850
11136TIP3    H254824   2.081   6.640   3.102 -0.1812  0.8076 -1.2242
11137TIP3   OH254825   3.390   1.414   6.056  0.2471  0.6794  0.6435
11137TIP3    H154826   3.474   1.460   6.062  1.4298 -1.2265 -0.2964
11137TIP3    H254827   3.383   1.389   5.964 -1.1518  0.3933  0.8065
11138TIP3   OH254828   4.582   1.840  10.954  0.0997  0.0561 -0.2420
11138TIP3    H154829   4.580   1.770  10.889 -0.9043  1.4655 -1.8011
11138TIP3    H254830   4.491   1.869  10.961  0.4828  1.1753  0.4170
11139TIP3   OH254831   4.888   3.776   3.245 -0.2684 -0.4238  0.0332
11139TIP3    H154832   4.808   3.758   3.195 -1.0735 -2.1402  1.7703
11139TIP3    H254833   4.859   3.836   3.314  0.2082 -0.1646  0.0081
11140TIP3   OH254834   6.136   0.423  14.857 -0.0549  0.6115  0.4544
11140TIP3    H154835   6.104   0.506  14.823 -0.3419  1.0087  1.6535
11140TIP3    H254836   6.084   0.407  14.936  0.0486 -0.6660  0.2828
11141TIP3   OH254837   0.199   3.798  14.014  0.4794 -0.1535 -0.1040
11141TIP3    H154838   0.231   3.751  13.937 -0.1204 -0.8529  0.0567
11141TIP3    H254839   0.173   3.884  13.980  0.3710 -0.3966 -0.6609
11142TIP3   OH254840   2.842   5.038  13.431  0.7314 -0.8414 -0.3274
11142TIP3    H154841   2.768   4.992  13.392 -0.7520  2.6545 -2.0381
11142TIP3    H254842   2.919   5.002  13.386 -0.3710 -1.3123 -1.8886
11143TIP3   OH254843   2.799   6.380   2.235  0.0660  0.2969 -0.4008
11143TIP3    H154844   2.833   6.469   2.224 -0.9145  0.8871  1.1025
11143TIP3    H254845   2.705   6.391   2.248 -0.1500 -1.0096 -0.6958
11144TIP3   OH254846   3.765   1.088  12.276  0.0242  0.2341  0.0434
11144TIP3    H154847   3.691   1.041  12.315 -1.0420 -0.5726 -2.7430
11144TIP3    H254848   3.842   1.044  12.311 -0.8474 -0.5317  1.0917
11145TIP3   OH254849   5.909   2.940  16.300  0.2315  0.2849  0.2794
11145TIP3    H154850   5.932   2.932  16.207  0.1118 -0.6415  0.3184
11145TIP3    H254851   5.813   2.947  16.300  0.1989 -0.1401  0.3533
11146TIP3   OH254852   0.297   3.460  13.956 -0.1721 -0.3332  0.2754
11146TIP3    H154853   0.371   3.479  13.898  0.5977  0.5917  1.5008
11146TIP3    H254854   0.331   3.474  14.044 -1.4975 -1.0340  0.9384
11147TIP3   OH254855   3.178   1.188  14.286 -0.1985 -0.7630  0.5492
11147TIP3    H154856   3.104   1.128  14.282 -0.7543  0.0093 -1.5155
11147TIP3    H254857   3.250   1.139  14.246 -0.8646  0.1723 -1.9190
11148TIP3   OH254858   1.526   5.234  15.964 -0.1253  0.5567  0.0457
11148TIP3    H154859   1.596   5.189  16.010 -0.8992 -0.7846 -0.0452
11148TIP3    H254860   1.523   5.321  16.004  1.0635  0.3715  0.5690
11149TIP3   OH254861   4.587   5.410   2.045 -0.1321 -0.0819  0.0121
11149TIP3    H154862   4.651   5.429   2.113 -1.8106  0.1420  1.5845
11149TIP3    H254863   4.602   5.478   1.979  1.3423 -0.1500  0.2402
11150TIP3   OH254864   1.614   0.487  11.778  0.3782  0.2734 -0.3165
11150TIP3    H154865   1.592   0.580  11.774 -0.7397  0.1689  1.9343
11150TIP3    H254866   1.530   0.443  11.790  1.0884 -0.8307  0.8426
11151TIP3   OH254867   2.419   4.318   0.178 -0.4616 -0.5107  0.0611
11151TIP3    H154868   2.332   4.281   0.164  0.0387 -1.2755 -1.2383
11151TIP3    H254869   2.450   4.340   0.090  0.9322 -0.8967  0.4286
11152TIP3   OH254870   0.441   1.162   3.118  0.1227  0.0785 -0.2877
11152TIP3    H154871   0.522   1.210   3.134 -0.8691  1.0971  2.1434
11152TIP3    H254872   0.374   1.231   3.112 -0.7332 -0.7979 -1.3039
11153TIP3   OH254873   0.286   6.001   4.224 -0.3725  0.3435  0.3001
11153TIP3    H154874   0.371   5.957   4.220  0.7285  2.1229  2.1231
11153TIP3    H254875   0.234   5.960   4.156  2.0969 -0.5220 -1.1748
11154TIP3   OH254876   2.781   3.758  11.140 -0.4670  0.1036 -0.3971
11154TIP3    H154877   2.787   3.665  11.161 -0.7882  0.0857 -0.3857
11154TIP3    H254878   2.828   3.767  11.057  0.7062  0.1552  0.2553
11155TIP3   OH254879   3.882   0.615  15.512 -0.1867 -0.7316 -0.1124
11155TIP3    H154880   3.863   0.675  15.441 -0.8489  0.2743  0.8833
11155TIP3    H254881   3.850   0.660  15.591  1.9094 -1.0949  1.0260
11156TIP3   OH254882   1.135   5.972   0.516 -0.3300  0.1369  0.0270
11156TIP3    H154883   1.084   5.891   0.509  0.2456 -0.1449 -1.3916
11156TIP3    H254884   1.101   6.027   0.445  1.9915 -0.4885 -1.7135
11157TIP3   OH254885   0.597   6.551  14.745 -0.3467  0.2692  0.4194
11157TIP3    H154886   0.539   6.627  14.743 -0.6070  0.0811  0.6694
11157TIP3    H254887   0.645   6.555  14.662 -0.3076  0.7428  0.4597
11158TIP3   OH254888   4.183   3.924  14.354 -0.3037 -0.3847  0.2303
11158TIP3    H154889   4.137   3.971  14.423 -0.1569  1.9288 -1.1363
11158TIP3    H254890   4.270   3.908  14.390  0.8963  3.6168 -0.2880
11159TIP3   OH254891   3.867   6.776   6.120  0.7208 -0.2521  0.4939
11159TIP3    H154892   3.773   6.779   6.138  0.6991  0.9627  0.2348
11159TIP3    H254893   3.879   6.695   6.070 -0.1972 -0.3611  0.4285
11160TIP3   OH254894   1.728   4.284  14.500 -0.2375  0.0244 -0.2193
11160TIP3    H154895   1.770   4.273  14.415  2.0970  1.1700  0.7142
11160TIP3    H254896   1.796   4.264  14.564 -1.4201  0.8822  1.3831
11161TIP3   OH254897   0.218   5.315   2.762  0.5353  0.4239 -0.0304
11161TIP3    H154898   0.230   5.221   2.774  0.4636  0.2615 -1.1239
11161TIP3    H254899   0.304   5.352   2.783  1.0830 -0.0740 -1.2726
11162TIP3   OH254900   0.632   3.118   1.072  0.4845  0.4897 -0.3165
11162TIP3    H154901   0.579   3.057   1.123  1.4713 -0.8448 -0.8007
11162TIP3    H254902   0.597   3.204   1.092 -0.7610 -0.2107  0.6511
11163TIP3   OH254903   2.400   1.258   4.624  0.3648 -0.3982  0.0558
11163TIP3    H154904   2.324   1.291   4.577 -0.3338 -0.3169  1.2096
11163TIP3    H254905   2.465   1.240   4.555 -0.2088  0.7680 -0.8230
11164TIP3   OH254906   0.113   3.914   4.291  0.4848  0.5075 -0.4539
11164TIP3    H154907   0.067   3.830   4.284  0.7003  0.3995 -0.5818
11164TIP3    H254908   0.142   3.918   4.382 -0.8463  1.1404 -0.0212
11165TIP3   OH254909   1.248   6.353   2.344  0.1171  0.4320 -0.5515
11165TIP3    H154910   1.213   6.282   2.398  0.4480  0.0258 -0.8568
11165TIP3    H254911   1.190   6.427   2.360 -1.6477 -0.5582 -1.9951
11166TIP3   OH254912   6.156   6.181  17.082  0.3618 -0.0426 -0.4310
11166TIP3    H154913   6.146   6.093  17.119 -1.1836  0.2400 -0.1029
11166TIP3    H254914   6.187   6.166  16.993  0.3018 -0.9095 -0.3138
11167TIP3   OH254915   4.499   0.483   5.006 -0.2610  0.2711 -0.7941
11167TIP3    H154916   4.522   0.514   5.094  0.7605 -0.4061 -0.8101
11167TIP3    H254917   4.403   0.489   5.003 -0.1771  4.1920 -1.0941
11168TIP3   OH254918   6.773   6.418  14.671  0.1569  0.2082  0.4698
11168TIP3    H154919   6.846   6.398  14.730  1.1912  1.7705 -0.2101
11168TIP3    H254920   6.702   6.445  14.729  0.9720  1.1686  1.0632
11169TIP3   OH254921   6.048   1.597   1.575 -0.0396  0.0862 -0.7359
11169TIP3    H154922   6.080   1.670   1.522 -0.2966  1.1824  0.5688
11169TIP3    H254923   5.964   1.573   1.534 -0.0519  0.6500 -1.0613
11170TIP3   OH254924   4.962   3.289  16.530  0.2313 -0.1746 -0.1149
11170TIP3    H154925   5.003   3.368  16.495  0.8999  0.0150  1.0389
11170TIP3    H254926   4.955   3.231  16.454 -1.5447  1.4600 -1.2861
11171TIP3   OH254927   3.792   5.477  15.960 -0.5039  0.0942  0.8922
11171TIP3    H154928   3.726   5.431  15.907 -1.1811  0.5789  1.3030
11171TIP3    H254929   3.793   5.429  16.043 -0.9383  0.5823  1.1838
11172TIP3   OH254930   1.863   0.580  14.675 -0.7900 -0.1766 -0.2127
11172TIP3    H154931   1.777   0.541  14.662 -0.0086 -2.0535 -0.0900
11172TIP3    H254932   1.894   0.600  14.586 -1.0849 -0.0803 -0.2965
11173TIP3   OH254933   1.869   4.338   2.601  0.1740  0.2100  0.0787
11173TIP3    H154934   1.923   4.279   2.548 -1.7222 -1.7657  0.1918
11173TIP3    H254935   1.867   4.297   2.687  0.5269  1.6146  0.7764
11174TIP3   OH254936   6.328   5.059   3.723 -0.0471 -0.5311  0.2883
11174TIP3    H154937   6.408   5.094   3.684  0.2027 -0.4365  0.8689
11174TIP3    H254938   6.325   5.099   3.811 -0.7401 -0.5198  0.2640
11175TIP3   OH254939   4.587   3.712  12.446 -0.1976 -0.2616 -0.8921
11175TIP3    H154940   4.577   3.626  12.405 -0.4119  0.0149 -1.4326
11175TIP3    H254941   4.570   3.774  12.375  2.9969  0.2616 -1.3792
11176TIP3   OH254942   4.483   4.627   4.114  0.6823  0.3532 -0.3439
11176TIP3    H154943   4.464   4.539   4.082 -1.3375  0.8982 -0.7819
11176TIP3    H254944   4.441   4.631   4.200 -1.4325  1.6172 -1.3542
11177TIP3   OH254945   3.185   3.317   3.823  0.5608  0.4965 -0.0763
11177TIP3    H154946   3.245   3.347   3.891  0.1999  1.8242 -0.3150
11177TIP3    H254947   3.187   3.387   3.757  0.8833 -0.7265 -1.4326
11178TIP3   OH254948   1.114   5.990  14.049  0.2851 -0.4081 -0.0077
11178TIP3    H154949   1.208   6.003  14.046  0.6887 -0.8370  4.5386
11178TIP3    H254950   1.079   6.077  14.069 -0.1766 -0.4927 -0.4262
11179TIP3   OH254951   1.736   2.173  13.966  0.2739  0.2783  0.2114
11179TIP3    H154952   1.648   2.144  13.944  0.1727  1.1582 -0.6276
11179TIP3    H254953   1.760   2.234  13.896  2.0866 -0.9793 -0.3505
11180TIP3   OH254954   3.985   5.029   3.480 -0.0455  0.3656  0.6676
11180TIP3    H154955   3.920   5.044   3.411 -2.9131 -4.0629  1.9875
11180TIP3    H254956   4.057   4.985   3.436 -0.4651  0.3101  0.0236
11181TIP3   OH254957   1.543   4.840   0.520  0.0747 -0.1092 -0.0630
11181TIP3    H154958   1.629   4.853   0.560 -0.1193  1.5829 -0.0960
11181TIP3    H254959   1.556   4.860   0.427 -0.3784  0.3285 -0.0403
11182TIP3   OH254960   5.159   4.529   3.222  0.7397  1.1601 -0.2906
11182TIP3    H154961   5.215   4.538   3.299  2.1235 -0.2610 -1.0924
11182TIP3    H254962   5.192   4.593   3.160  1.4264  0.3917 -0.7259
11183TIP3   OH254963   3.634   1.934   1.494  0.2969 -0.3153 -0.7856
11183TIP3    H154964   3.724   1.954   1.517  0.3432  0.6675 -1.7675
11183TIP3    H254965   3.583   2.008   1.527 -0.0365 -0.4389 -1.0090
11184TIP3   OH254966   0.922   1.191  15.908  0.0725  0.0242 -0.0866
11184TIP3    H154967   0.872   1.272  15.916 -1.4629 -0.8780 -0.1154
11184TIP3    H254968   0.958   1.176  15.995  1.2250  1.2209 -0.3156
11185TIP3   OH254969   4.348   1.463   5.236  0.2695 -0.1168  0.3344
11185TIP3    H154970   4.430   1.425   5.205 -0.0178 -1.4757  1.1597
11185TIP3    H254971   4.284   1.443   5.167 -0.2778 -2.7795  1.4917
11186TIP3   OH254972   1.798   1.146   4.684 -0.0916  0.4226 -0.3420
11186TIP3    H154973   1.813   1.088   4.759  1.0427  0.3355 -0.6121
11186TIP3    H254974   1.720   1.112   4.642  0.0953 -0.4170 -0.0234
11187TIP3   OH254975   6.307   4.022   3.729  0.1396  0.3073 -0.4175
11187TIP3    H154976   6.287   3.930   3.743 -0.4300 -0.0140 -2.9791
11187TIP3    H254977   6.333   4.054   3.816  0.5036 -2.2638  0.5030
11188TIP3   OH254978   3.715   4.171  16.054 -0.4915  0.4595  0.2643
11188TIP3    H154979   3.808   4.152  16.041 -0.1326  1.9389  0.4069
11188TIP3    H254980   3.671   4.123  15.985  0.1121 -2.2090  1.6155
11189TIP3   OH254981   5.120   5.854  16.215 -0.3312 -0.2857  0.1160
11189TIP3    H154982   5.207   5.866  16.177 -0.4243 -0.3094 -0.1067
11189TIP3    H254983   5.113   5.923  16.281 -0.2481 -0.1153 -0.0515
11190TIP3   OH254984   3.272   3.287   4.867 -0.0345  0.0878  0.6970
11190TIP3    H154985   3.229   3.310   4.950 -1.1713  0.4571  0.0249
11190TIP3    H254986   3.206   3.303   4.800 -0.1503 -2.9140 -0.0723
11191TIP3   OH254987   1.111   4.249  16.231  0.1392  0.5530  0.0159
11191TIP3    H154988   1.167   4.173  16.226 -1.0246 -0.2686 -2.1411
11191TIP3    H254989   1.108   4.283  16.141 -0.4327  2.3444  0.6530
11192TIP3   OH254990   1.162   0.571  12.238 -0.4404 -0.1624 -0.0388
11192TIP3    H154991   1.210   0.654  12.232  0.8990 -0.9093  0.0744
11192TIP3    H254992   1.230   0.504  12.244 -1.4865 -1.1244  2.4090
11193TIP3   OH254993   5.163   6.067   2.689 -0.4389 -0.9146  0.1895
11193TIP3    H154994   5.247   6.044   2.729  0.6945 -0.2840 -1.6761
11193TIP3    H254995   5.104   5.997   2.715  1.0431 -2.1489  0.3845
11194TIP3   OH254996   3.642   0.512   2.415 -0.3018 -0.3364 -0.4767
11194TIP3    H154997   3.551   0.482   2.414 -0.7935  0.8606  1.5764
11194TIP3    H254998   3.642   0.587   2.475  1.4703  1.7240 -2.8343
11195TIP3   OH254999   6.039   5.111   6.379  0.6796  0.5544  0.3864
11195TIP3    H155000   6.092   5.101   6.300  2.4167  1.7932  1.3231
11195TIP3    H255001   6.092   5.165   6.437 -0.8205  0.2299  2.1691
11196TIP3   OH255002   0.708   5.612  14.736  0.0947  0.6671 -0.7531
11196TIP3    H155003   0.733   5.703  14.752 -1.2780  0.8861  0.3251
11196TIP3    H255004   0.620   5.616  14.698  0.0379 -0.2079 -0.7498
11197TIP3   OH255005   6.341   2.408  15.291  0.4235 -0.5809 -0.3242
11197TIP3    H155006   6.435   2.397  15.275  0.7385  1.5479 -0.2312
11197TIP3    H255007   6.316   2.332  15.345  1.8128 -1.7778 -1.2810
11198TIP3   OH255008   0.992   2.463   1.215  0.1972  0.2881 -0.3198
11198TIP3    H155009   1.012   2.544   1.168 -0.3292  0.1147 -0.8500
11198TIP3    H255010   0.941   2.491   1.290  0.7675  0.5341 -0.0149
11199TIP3   OH255011   2.799   1.410   1.186 -0.1966 -0.1411  0.0896
11199TIP3    H155012   2.755   1.489   1.215  1.6916  0.2977  2.0888
11199TIP3    H255013   2.889   1.438   1.168  0.1599 -1.5819 -0.5260
11200TIP3   OH255014   6.571   1.589  14.042  0.0722  0.2414  0.2212
11200TIP3    H155015   6.586   1.509  13.992 -0.7200  0.2692 -0.0669
11200TIP3    H255016   6.656   1.607  14.083  0.7170  0.1802 -1.0409
11201TIP3   OH255017   1.413   0.776  14.608 -0.9771  0.2380  0.0743
11201TIP3    H155018   1.443   0.864  14.629 -1.5988  0.1944  1.2997
11201TIP3    H255019   1.327   0.789  14.568 -0.8174  0.2175 -0.2733
11202TIP3   OH255020   3.161   3.036   3.881  0.1732 -0.2319 -0.1421
11202TIP3    H155021   3.091   3.005   3.823 -1.6995  0.1126  1.8244
11202TIP3    H255022   3.176   3.127   3.854  0.5361 -0.5694 -1.1434
11203TIP3   OH255023   1.030   5.903  12.473  0.0761  0.3500 -0.3682
11203TIP3    H155024   1.108   5.912  12.418  0.8742  1.4937  0.8695
11203TIP3    H255025   1.056   5.843  12.543  0.1861  1.4049  0.5390
11204TIP3   OH255026   6.679   4.472  10.934 -0.2503  0.2180  0.0813
11204TIP3    H155027   6.615   4.525  10.887 -0.5120  0.3123  0.5338
11204TIP3    H255028   6.764   4.509  10.911 -0.5171  2.4126  2.2551
11205TIP3   OH255029   0.073   5.365  16.651 -0.2161 -0.1667 -0.6851
11205TIP3    H155030   0.168   5.352  16.655 -0.4422 -1.9503 -0.2001
11205TIP3    H255031   0.044   5.359  16.742 -0.5916  2.6914 -0.5299
11206TIP3   OH255032   2.038   1.233  11.928 -0.2689 -0.1536  0.0311
11206TIP3    H155033   2.098   1.220  11.854 -2.1196 -1.4072 -1.3476
11206TIP3    H255034   2.093   1.224  12.006  1.6167  0.4627 -1.1606
11207TIP3   OH255035   2.031   4.427  11.811 -0.2182 -0.1920  0.0571
11207TIP3    H155036   2.025   4.521  11.799  0.9098 -0.2033 -0.7155
11207TIP3    H255037   2.049   4.415  11.904 -0.6693  0.3308  0.2126
11208TIP3   OH255038   3.844   6.710   3.533  0.1564  0.6121  0.4344
11208TIP3    H155039   3.798   6.794   3.531  0.5523  0.9255  2.5018
11208TIP3    H255040   3.812   6.667   3.613  2.5572  0.3525  1.3420
11209TIP3   OH255041   6.528   2.526  15.877 -0.3484 -0.2632  0.2901
11209TIP3    H155042   6.574   2.609  15.862  1.9605 -1.4705  0.2746
11209TIP3    H255043   6.468   2.518  15.802 -0.3851  1.1969  0.1246
11210TIP3   OH255044   1.140   1.053  11.767 -0.2426 -0.0889  0.1122
11210TIP3    H155045   1.176   1.096  11.844  1.0091  2.5666 -1.7736
11210TIP3    H255046   1.215   1.010  11.726 -1.3281 -3.5719  1.4961
11211TIP3   OH255047   6.650   3.912   1.912  0.1320  0.2097 -0.1434
11211TIP3    H155048   6.598   3.903   1.833  1.9008 -0.8532 -1.2554
11211TIP3    H255049   6.686   4.001   1.907 -2.5565  1.5263  1.3699
11212TIP3   OH255050   3.023   6.112   5.100  0.1263 -0.3771  0.1876
11212TIP3    H155051   3.103   6.100   5.049  0.1237  1.5057 -0.3397
11212TIP3    H255052   2.978   6.028   5.094  0.7815 -0.6432 -1.8177
11213TIP3   OH255053   4.958   3.085   0.533  0.0308 -0.4220 -0.0439
11213TIP3    H155054   4.963   3.173   0.496 -1.5899 -0.2616  0.0481
11213TIP3    H255055   4.917   3.098   0.619  1.2768 -1.0999  0.6836
11214TIP3   OH255056   2.234   0.361   0.337 -0.1192  0.2185 -0.0571
11214TIP3    H155057   2.143   0.379   0.360  0.2094 -0.4141  1.8662
11214TIP3    H255058   2.281   0.358   0.421  1.5961  0.0559 -0.9654
11215TIP3   OH255059   3.175   4.373  11.544  0.8273  0.0434  0.1273
11215TIP3    H155060   3.253   4.355  11.597  0.9880  0.7040  0.1273
11215TIP3    H255061   3.172   4.469  11.538  0.4748 -0.0032 -0.5544
11216TIP3   OH255062   5.505   2.184  13.394 -0.5488 -0.5372  0.5509
11216TIP3    H155063   5.564   2.232  13.453 -3.1693 -1.2268  4.0562
11216TIP3    H255064   5.436   2.247  13.374 -0.0980 -0.5709 -1.2831
11217TIP3   OH255065   2.179   6.008  11.848  0.1089 -0.3524  0.0961
11217TIP3    H155066   2.173   5.913  11.834 -0.8970 -0.2265 -0.4775
11217TIP3    H255067   2.196   6.043  11.761  2.2107 -0.0964  0.5591
11218TIP3   OH255068   1.763   0.999   5.282  0.8083 -0.2150 -0.2743
11218TIP3    H155069   1.823   0.983   5.355 -0.2276  0.9319  0.8827
11218TIP3    H255070   1.737   0.912   5.254 -0.6939 -0.7461  2.4110
11219TIP3   OH255071   4.296   2.285  14.226 -0.0470  0.5945 -0.1026
11219TIP3    H155072   4.264   2.239  14.303  0.2658  1.0042  0.2736
11219TIP3    H255073   4.392   2.280  14.233  0.0486 -1.3769 -1.6485
11220TIP3   OH255074   0.682   0.841  10.894  0.0716  0.5659  0.0678
11220TIP3    H155075   0.692   0.767  10.953  1.7830  0.8232  0.1397
11220TIP3    H255076   0.600   0.882  10.921  0.4284  0.2381  1.7467
11221TIP3   OH255077   2.440   5.123   3.710 -0.5063 -0.5323 -0.2145
11221TIP3    H155078   2.520   5.158   3.672 -0.4166 -0.7480 -0.2273
11221TIP3    H255079   2.399   5.074   3.639  0.4013 -2.1892  0.3323
11222TIP3   OH255080   5.989   6.114   6.788 -0.0222  0.0282 -0.3776
11222TIP3    H155081   6.025   6.027   6.804  1.6023  0.9403  1.3531
11222TIP3    H255082   5.900   6.098   6.759  0.4324 -2.2212 -0.7122
11223TIP3   OH255083   5.969   5.996  13.013  0.3257  0.6946 -0.3140
11223TIP3    H155084   5.989   6.007  12.920 -2.1131  0.3026 -0.9622
11223TIP3    H255085   5.908   6.067  13.033  1.2004  1.0682  1.1517
11224TIP3   OH255086   6.216   2.176   4.139  0.1330 -0.6507  0.1939
11224TIP3    H155087   6.142   2.157   4.082  0.9240  1.8683 -1.8734
11224TIP3    H255088   6.274   2.101   4.130 -0.3011 -0.8261 -1.4655
11225TIP3   OH255089   2.578   4.170   4.260 -0.2289 -0.3918 -0.4782
11225TIP3    H155090   2.655   4.179   4.316 -0.6575  0.4919 -0.0041
11225TIP3    H255091   2.548   4.080   4.274  1.1252 -0.9911 -1.2336
11226TIP3   OH255092   3.935   6.259  14.528 -0.4492  0.3576 -0.2065
11226TIP3    H155093   3.846   6.294  14.528 -0.5815  0.1086 -2.2502
11226TIP3    H255094   3.986   6.322  14.477 -0.1508 -1.0739 -1.7469
11227TIP3   OH255095   5.501   6.142  14.233 -0.2831 -0.1801 -0.1433
11227TIP3    H155096   5.408   6.124  14.248 -0.7496  0.9435 -1.5326
11227TIP3    H255097   5.515   6.228  14.271  0.1080 -0.1895 -0.2675
11228TIP3   OH255098   5.395   1.081   6.124 -0.5282  0.1260  0.1008
11228TIP3    H155099   5.379   1.175   6.122 -1.1547  0.0149 -0.6879
11228TIP3    H255100   5.313   1.043   6.158 -0.5371 -0.1838 -0.2646
11229TIP3   OH255101   5.806   0.934  11.198 -0.2758  0.2611 -0.1475
11229TIP3    H155102   5.802   0.894  11.111 -0.6048 -1.6347  0.6894
11229TIP3    H255103   5.741   1.004  11.195 -1.2644 -0.6645 -1.0193
11230TIP3   OH255104   5.948   2.496   2.928 -0.4092  0.3268 -0.0328
11230TIP3    H155105   6.029   2.463   2.969 -0.9162 -1.5496 -0.4576
11230TIP3    H255106   5.973   2.581   2.892  1.4408 -0.2705 -0.2890
11231TIP3   OH255107   4.947   0.538   3.803 -0.1732 -0.6653 -0.6698
11231TIP3    H155108   5.014   0.579   3.857 -0.4277 -1.7412  0.5100
11231TIP3    H255109   4.989   0.526   3.717  0.0927  1.4429 -0.8743
11232TIP3   OH255110   6.140   5.626   2.236  0.4216 -0.3719 -0.0140
11232TIP3    H155111   6.234   5.644   2.243  0.4105 -0.1852 -0.3523
11232TIP3    H255112   6.132   5.561   2.166  0.1169  1.2471 -1.5537
11233TIP3   OH255113   1.109   3.323  11.289  0.5058 -0.5370 -0.3434
11233TIP3    H155114   1.051   3.247  11.287  0.4186 -0.4968  0.3455
11233TIP3    H255115   1.052   3.398  11.275 -0.1283 -0.2324  3.0690
11234TIP3   OH255116   4.376   4.859  11.058 -0.3693  0.2595 -0.5745
11234TIP3    H155117   4.417   4.899  11.135  0.0206 -0.4011 -0.4367
11234TIP3    H255118   4.289   4.898  11.055 -1.1968 -1.2721  1.4589
11235TIP3   OH255119   1.240   0.132   0.055 -0.2878 -0.9595 -0.2623
11235TIP3    H155120   1.188   0.192   0.108 -1.3196 -1.9755 -0.0933
11235TIP3    H255121   1.176   0.072   0.016  0.4969 -0.6200 -2.1930
11236TIP3   OH255122   3.658   2.340   5.334  0.4791  0.5296 -0.0454
11236TIP3    H155123   3.623   2.259   5.298  0.6898 -0.0733  1.0758
11236TIP3    H255124   3.581   2.387   5.367  0.5287 -0.0821  0.9938
11237TIP3   OH255125   6.578   3.982  11.631 -0.2887  0.1283  0.1597
11237TIP3    H155126   6.602   3.993  11.722  1.4354 -1.1637 -0.0737
11237TIP3    H255127   6.662   3.975  11.585 -1.0576 -2.3267 -1.0648
11238TIP3   OH255128   1.914   4.403   3.313 -0.7619  0.3333 -0.0946
11238TIP3    H155129   1.945   4.483   3.271 -0.6684 -0.7812 -2.3211
11238TIP3    H255130   1.993   4.350   3.324 -1.1327 -0.4308 -0.9676
11239TIP3   OH255131   5.368   3.644  17.033 -0.0169  0.3685  0.0247
11239TIP3    H155132   5.345   3.641  17.125  0.8114  1.4430  0.2854
11239TIP3    H255133   5.315   3.715  16.997  1.2524  1.4364  0.1742
11240TIP3   OH255134   3.446   1.226   2.614  0.4507  0.7643  0.1171
11240TIP3    H155135   3.430   1.313   2.576 -0.4469  1.3536  1.7799
11240TIP3    H255136   3.471   1.243   2.704 -2.0906 -0.7437  1.2266
11241TIP3   OH255137   6.773   5.008   3.479  0.4471 -0.0078  0.5246
11241TIP3    H155138   6.858   5.024   3.437  1.0374 -1.6551  1.0446
11241TIP3    H255139   6.710   5.012   3.407  1.1142 -0.0522 -0.0719
11242TIP3   OH255140   1.963   6.368  13.838  0.1655 -0.1148 -0.4870
11242TIP3    H155141   2.048   6.378  13.794 -0.3364 -0.8139 -1.6871
11242TIP3    H255142   1.953   6.273  13.848 -0.4125 -0.0296 -0.2417
11243TIP3   OH255143   5.834   5.490  16.882 -0.0748  0.4122 -0.2940
11243TIP3    H155144   5.870   5.571  16.846 -0.6651  0.4502 -0.8194
11243TIP3    H255145   5.862   5.422  16.820  0.3936  0.2168  0.1289
11244TIP3   OH255146   0.753   6.508  14.028  0.0578  0.4715  0.1827
11244TIP3    H155147   0.751   6.483  13.935  0.2919  2.6471 -0.4600
11244TIP3    H255148   0.846   6.518  14.048 -0.0236  0.7519  0.4274
11245TIP3   OH255149   1.821   1.426  15.892 -0.3107 -0.1277  0.3758
11245TIP3    H155150   1.789   1.364  15.828  0.5342  0.4813 -0.6680
11245TIP3    H255151   1.889   1.379  15.941  1.7022  0.4590 -1.6709
11246TIP3   OH255152   6.337   1.163  11.157  0.7005  0.3989  0.0674
11246TIP3    H155153   6.258   1.168  11.104  0.6227  0.9690  0.2364
11246TIP3    H255154   6.312   1.199  11.242  0.7859 -0.6359  0.5470
11247TIP3   OH255155   4.848   1.008   5.657  0.1503  0.1205 -0.6903
11247TIP3    H155156   4.921   0.953   5.685 -0.2735 -0.6855 -1.1312
11247TIP3    H255157   4.871   1.034   5.568  0.6708  1.2437 -0.2495
11248TIP3   OH255158   0.865   4.649  15.839 -0.5086  0.2255 -0.8667
11248TIP3    H155159   0.924   4.611  15.903  0.9840  1.2558 -1.5695
11248TIP3    H255160   0.815   4.714  15.888  0.6210  1.0094 -0.7219
11249TIP3   OH255161   4.681   2.365  17.086  0.0974  0.6104  0.0837
11249TIP3    H155162   4.606   2.414  17.053  0.7386  1.6993  0.2073
11249TIP3    H255163   4.753   2.428  17.086  0.7520 -0.1144  1.0274
11250TIP3   OH255164   1.256   6.532   3.937  0.7078 -0.3607  0.2902
11250TIP3    H155165   1.203   6.612   3.930  1.7941  0.6459  2.6613
11250TIP3    H255166   1.192   6.461   3.937 -0.6881  0.7764  2.4152
11251TIP3   OH255167   2.620   5.797   3.799 -0.0601 -0.0070  0.3410
11251TIP3    H155168   2.537   5.825   3.761 -0.3076 -1.6555 -0.4578
11251TIP3    H255169   2.642   5.865   3.862 -1.2066  1.2639 -0.5703
11252TIP3   OH255170   1.697   6.532   1.284  0.0384 -0.0651 -0.2428
11252TIP3    H155171   1.656   6.565   1.204 -1.4245 -2.5841 -0.6146
11252TIP3    H255172   1.776   6.487   1.253 -0.3087 -0.6862 -0.2265
11253TIP3   OH255173   1.790   3.562   1.537 -0.0862  0.2277  0.1689
11253TIP3    H155174   1.795   3.494   1.469  0.6097  0.3156  0.1244
11253TIP3    H255175   1.877   3.562   1.577 -0.4621  0.2399  1.0046
11254TIP3   OH255176   2.301   0.831   4.121  0.1933 -0.3495 -0.6650
11254TIP3    H155177   2.329   0.796   4.206  1.9787 -1.6749 -1.7213
11254TIP3    H255178   2.226   0.776   4.097  1.7662 -2.2814 -1.4122
11255TIP3   OH255179   2.336   1.798  10.470 -0.3481  0.4929 -0.0592
11255TIP3    H155180   2.428   1.779  10.488 -0.2301  0.4333 -0.7006
11255TIP3    H255181   2.292   1.714  10.477  0.2372 -0.1830 -3.2925
11256TIP3   OH255182   2.260   1.691   4.070  0.0906 -0.4396  0.1765
11256TIP3    H155183   2.260   1.734   3.985  0.4199 -1.6082 -0.4273
11256TIP3    H255184   2.281   1.761   4.132 -0.0746  0.4031 -0.6990
11257TIP3   OH255185   4.828   3.831  17.010  0.2171 -0.2048  0.1722
11257TIP3    H155186   4.870   3.761  16.960  2.8908  1.0326  0.4814
11257TIP3    H255187   4.857   3.817  17.100 -2.1083 -0.6833  0.9021
11258TIP3   OH255188   2.468   1.641   2.208  0.5630  0.3355 -0.1205
11258TIP3    H155189   2.523   1.564   2.196 -0.4785 -0.2218 -1.7225
11258TIP3    H255190   2.482   1.693   2.129 -0.7936  0.4299 -0.3262
11259TIP3   OH255191   1.302   4.669  11.724 -0.7485 -0.1400  0.1333
11259TIP3    H155192   1.348   4.673  11.640 -1.1291 -0.5555 -0.1022
11259TIP3    H255193   1.371   4.656  11.789 -0.4012  0.7343 -0.0513
11260TIP3   OH255194   1.237   4.135   4.953  0.7423 -0.5665 -0.3503
11260TIP3    H155195   1.190   4.213   4.922  0.9756 -0.2479  0.0755
11260TIP3    H255196   1.319   4.170   4.989  0.7883 -0.9944 -0.0272
11261TIP3   OH255197   3.486   1.480   3.180 -0.2791 -0.1058  0.5364
11261TIP3    H155198   3.568   1.519   3.150 -0.5503 -1.2225 -1.8751
11261TIP3    H255199   3.510   1.435   3.261  1.4091 -0.0770  0.0924
11262TIP3   OH255200   1.232   1.852  14.981  0.0357 -1.0277  0.1738
11262TIP3    H155201   1.139   1.858  15.006  0.3380 -0.5154  1.1983
11262TIP3    H255202   1.258   1.942  14.964  0.3481 -1.1737 -0.1164
11263TIP3   OH255203   0.308   1.755  14.262  0.0253 -0.3228  0.0097
11263TIP3    H155204   0.231   1.792  14.304 -0.5302  0.6947 -1.7705
11263TIP3    H255205   0.321   1.671  14.304 -0.2654  0.7545  2.3866
11264TIP3   OH255206   0.782   1.876   5.624  0.2638 -0.0015  1.0433
11264TIP3    H155207   0.842   1.804   5.606 -3.0460 -2.5576 -0.9634
11264TIP3    H255208   0.785   1.930   5.544  1.1383  0.9203  1.6738
11265TIP3   OH255209   5.641   0.462  13.703  0.5882  0.0406 -0.6255
11265TIP3    H155210   5.728   0.499  13.698  0.4396  1.2429  2.9435
11265TIP3    H255211   5.585   0.534  13.731 -0.4480 -1.8267  2.6080
11266TIP3   OH255212   4.405   5.245  13.034 -0.2786  0.5917  0.4701
11266TIP3    H155213   4.333   5.301  13.063 -1.3365 -1.0155  1.0302
11266TIP3    H255214   4.364   5.176  12.982  0.8821 -0.1754  0.5191
11267TIP3   OH255215   3.151   1.939   1.339  0.4433 -0.1379 -0.0699
11267TIP3    H155216   3.089   1.919   1.410 -0.3742  1.4888 -0.2722
11267TIP3    H255217   3.192   2.021   1.366  1.4561 -0.4335 -0.6568
11268TIP3   OH255218   1.310   6.604  14.171  0.0659  0.0549  0.0606
11268TIP3    H155219   1.387   6.557  14.202 -0.3449  0.2609  1.4803
11268TIP3    H255220   1.319   6.607  14.076  0.7664 -1.7145  0.0507
11269TIP3   OH255221   6.764   3.743   0.241  0.1322  0.3521 -0.2297
11269TIP3    H155222   6.736   3.817   0.296 -0.1420  0.7231 -0.8604
11269TIP3    H255223   6.686   3.687   0.236  0.3836 -0.0605  0.3670
11270TIP3   OH255224   1.064   1.110   3.607 -0.2045 -0.0325 -0.6573
11270TIP3    H155225   1.153   1.086   3.579  0.0398  0.5236 -0.3628
11270TIP3    H255226   1.069   1.204   3.625 -0.2400 -0.4388  1.7019
11271TIP3   OH255227   6.639   3.792  11.322  0.2298  0.1436 -0.0561
11271TIP3    H155228   6.659   3.701  11.301  1.3572  0.1391  0.9127
11271TIP3    H255229   6.550   3.805  11.288 -0.5322 -1.7480  1.0080
11272TIP3   OH255230   5.431   0.256   0.527 -0.0528 -0.5059  0.1006
11272TIP3    H155231   5.493   0.223   0.462 -0.0513  0.2327 -0.2909
11272TIP3    H255232   5.347   0.217   0.501 -0.4224  1.1767 -1.4831
11273TIP3   OH255233   2.166   6.044   5.325  0.7540  0.1594 -0.2658
11273TIP3    H155234   2.192   5.964   5.279 -0.7902 -1.1046  0.9245
11273TIP3    H255235   2.168   6.112   5.258  2.3614 -0.7933 -1.2627
11274TIP3   OH255236   2.885   6.263   1.841  0.2913  0.3572 -0.5282
11274TIP3    H155237   2.929   6.317   1.776  1.5476 -1.2927 -1.1025
11274TIP3    H255238   2.796   6.251   1.807  1.1275 -1.0700 -2.3773
11275TIP3   OH255239   1.758   5.206   5.765 -0.3518  0.2265 -0.0957
11275TIP3    H155240   1.689   5.263   5.797  0.7138  0.3163  2.2846
11275TIP3    H255241   1.756   5.130   5.823  1.5231  0.2498  0.0865
11276TIP3   OH255242   6.024   3.245   0.452 -0.8644 -0.1180  0.5742
11276TIP3    H155243   6.078   3.207   0.383 -2.6274 -0.9771 -0.4001
11276TIP3    H255244   6.083   3.254   0.526  0.4059 -1.8111 -0.1645
11277TIP3   OH255245   4.465   0.630  15.673 -0.4043  0.0586 -0.7896
11277TIP3    H155246   4.453   0.644  15.767  2.4488 -2.2029  0.0400
11277TIP3    H255247   4.555   0.657  15.656  0.4433 -3.1536 -2.0070
11278TIP3   OH255248   3.558   3.167   3.929  0.4352 -0.2014 -0.0520
11278TIP3    H155249   3.493   3.221   3.974  1.2921 -1.0057  2.2953
11278TIP3    H255250   3.510   3.087   3.908  0.1906 -0.0801  0.0301
11279TIP3   OH255251   0.496   2.909   5.546  0.2744 -0.5729 -0.1409
11279TIP3    H155252   0.487   3.003   5.528 -1.7790 -0.6319  0.3477
11279TIP3    H255253   0.558   2.905   5.619  0.7413  0.3667 -0.4635
11280TIP3   OH255254   6.236   0.845  11.014 -0.2116 -0.4706 -0.2416
11280TIP3    H155255   6.306   0.781  11.000  1.8491  1.7054 -0.5982
11280TIP3    H255256   6.237   0.862  11.108  0.6140  0.4313 -0.3977
11281TIP3   OH255257   4.367   6.750   4.706 -0.4452 -0.0245 -0.0061
11281TIP3    H155258   4.275   6.761   4.730 -0.5364  0.2812 -0.4876
11281TIP3    H255259   4.405   6.703   4.780 -0.5103  1.6861  1.1969
11282TIP3   OH255260   3.046   1.808   4.265  0.2219 -0.0176  0.1962
11282TIP3    H155261   3.030   1.891   4.220  0.9408 -0.1694 -0.3686
11282TIP3    H255262   2.977   1.802   4.331  0.0325  0.9199  0.0919
11283TIP3   OH255263   1.707   5.281  12.124 -0.4311  0.1936 -0.7767
11283TIP3    H155264   1.712   5.364  12.172  0.4146 -0.2004 -0.1535
11283TIP3    H255265   1.652   5.225  12.178  0.7080 -0.3253 -0.1287
11284TIP3   OH255266   1.552   2.705   1.621  0.4078 -0.3452 -0.5911
11284TIP3    H155267   1.517   2.627   1.578  0.2100 -0.8361  0.4305
11284TIP3    H255268   1.505   2.710   1.705  1.8847 -0.3049  0.2680
11285TIP3   OH255269   1.658   5.139  11.883  0.0916 -0.3153 -0.6104
11285TIP3    H155270   1.565   5.154  11.871  0.2643  1.0109 -0.3984
11285TIP3    H255271   1.679   5.180  11.967  0.9363 -0.2585 -0.8393
11286TIP3   OH255272   1.196   5.582  16.584 -1.0708 -0.5931  0.5786
11286TIP3    H155273   1.147   5.501  16.569  0.5623 -1.4616 -0.4441
11286TIP3    H255274   1.287   5.553  16.595 -0.3424  1.1471 -0.4376
11287TIP3   OH255275   4.606   2.128   5.428 -0.2987 -0.1511 -0.2785
11287TIP3    H155276   4.538   2.135   5.361 -1.1168  2.0304  0.6740
11287TIP3    H255277   4.557   2.112   5.510  0.4775 -0.3549  0.1513
11288TIP3   OH255278   1.921   4.991  17.220  0.2728  0.1971  0.0789
11288TIP3    H155279   1.914   4.992  17.124 -0.4307  3.6377  0.0500
11288TIP3    H255280   1.837   5.026  17.251  1.0769  0.6654  1.8589
11289TIP3   OH255281   6.083   2.978   3.631  0.2062 -0.0147 -0.2073
11289TIP3    H155282   6.072   3.028   3.711  2.9341 -2.5670  1.9735
11289TIP3    H255283   6.140   3.032   3.576 -0.3163  1.0376  0.2716
11290TIP3   OH255284   1.959   6.198   1.952 -0.1874 -0.1065 -0.5837
11290TIP3    H155285   2.013   6.272   1.980  0.0698 -1.1801  1.9739
11290TIP3    H255286   2.014   6.151   1.889  1.2376 -0.2523  0.7045
11291TIP3   OH255287   3.776   2.744  15.664  0.5616 -0.0410  0.0723
11291TIP3    H155288   3.702   2.782  15.711 -1.5131 -1.3605 -1.9089
11291TIP3    H255289   3.771   2.782  15.576  1.1580 -1.4390 -0.6051
11292TIP3   OH255290   4.782   2.514  12.557 -0.9981  0.0185  0.0500
11292TIP3    H155291   4.743   2.601  12.564 -1.2757 -0.0832 -0.2222
11292TIP3    H255292   4.782   2.480  12.647 -2.4146 -0.3596 -0.0736
11293TIP3   OH255293   4.431   2.291  13.202  0.1972 -0.6810 -0.0110
11293TIP3    H155294   4.418   2.259  13.112 -0.2578 -2.7402  0.7276
11293TIP3    H255295   4.371   2.239  13.255  0.3345  0.6124  1.4992
11294TIP3   OH255296   1.725   0.271  12.788 -0.1824  0.0174  0.4761
11294TIP3    H155297   1.819   0.254  12.781 -0.1123  0.3515  0.5790
11294TIP3    H255298   1.685   0.184  12.792  0.2141 -0.1334  1.5608
11295TIP3   OH255299   2.847   5.363  16.239  0.1587 -0.5610 -0.0099
11295TIP3    H155300   2.916   5.361  16.172  1.2254  0.1026  1.0344
11295TIP3    H255301   2.890   5.330  16.318 -0.5341  0.4635  0.8156
11296TIP3   OH255302   3.981   1.544   6.454  0.6645 -0.9143 -0.1129
11296TIP3    H155303   3.977   1.494   6.536  2.9884 -1.1349 -0.0685
11296TIP3    H255304   3.970   1.478   6.385 -0.2719 -0.8771 -0.0056
11297TIP3   OH255305   4.557   5.308  12.103 -0.0496  0.1271  0.5786
11297TIP3    H155306   4.523   5.379  12.050 -2.4364  0.1277  1.9538
11297TIP3    H255307   4.599   5.249  12.041  0.6721  1.9679 -0.7669
11298TIP3   OH255308   5.800   2.711  16.153 -0.0332 -0.5915 -0.1162
11298TIP3    H155309   5.757   2.629  16.129 -0.2553 -0.2162 -1.0337
11298TIP3    H255310   5.728   2.771  16.172  0.0658 -0.0107 -1.4886
11299TIP3   OH255311   3.102   2.836  11.227 -0.5202 -0.7344 -0.0733
11299TIP3    H155312   3.052   2.820  11.147 -2.1837 -0.4125  0.8628
11299TIP3    H255313   3.044   2.810  11.298 -0.7985  2.8208  1.2518
11300TIP3   OH255314   1.197   1.804   5.185  0.1009  0.2707 -0.3147
11300TIP3    H155315   1.178   1.780   5.095 -1.1543 -1.3004  0.3164
11300TIP3    H255316   1.288   1.777   5.199 -0.1793 -0.9280 -0.6841
11301TIP3   OH255317   5.418   5.279   5.541 -0.3635  0.0414  0.0521
11301TIP3    H155318   5.434   5.188   5.568 -0.4955 -0.2516 -0.8307
11301TIP3    H255319   5.464   5.331   5.606  0.8008 -0.6875 -0.1497
11302TIP3   OH255320   6.084   3.721  13.952 -0.1237  0.3415  0.4866
11302TIP3    H155321   6.127   3.729  13.867 -0.3909 -0.7381  0.2342
11302TIP3    H255322   6.156   3.723  14.016  0.2182 -0.3970  0.1326
11303TIP3   OH255323   2.913   3.488   1.530  0.8890  0.2526  0.1844
11303TIP3    H155324   2.917   3.422   1.461 -0.6335 -0.9094  1.1540
11303TIP3    H255325   2.926   3.440   1.611  1.9154  1.4946  0.7889
11304TIP3   OH255326   5.887   0.108   1.468  0.2256 -0.0087 -0.3012
11304TIP3    H155327   5.896   0.049   1.543  0.1059  0.1616 -0.1510
11304TIP3    H255328   5.840   0.184   1.503 -0.4628 -0.2384 -0.7176
11305TIP3   OH255329   2.383   6.782  15.340  0.2750 -0.3746  0.3385
11305TIP3    H155330   2.459   6.778  15.398  0.5290  0.3823  0.0737
11305TIP3    H255331   2.315   6.733  15.385  0.8762 -0.9246  0.6506
11306TIP3   OH255332   6.346   3.468  11.591  0.1570 -0.4623  0.5349
11306TIP3    H155333   6.307   3.546  11.630  1.0099 -0.3002  1.0951
11306TIP3    H255334   6.280   3.436  11.530  0.0703  1.0936 -0.2398
11307TIP3   OH255335   6.168   3.669   5.931 -0.3376  0.4554  0.0979
11307TIP3    H155336   6.169   3.764   5.943 -1.2648  0.4911 -0.0720
11307TIP3    H255337   6.077   3.643   5.945  0.3138 -0.7488  2.5128
11308TIP3   OH255338   1.465   5.437  15.525 -0.6280  0.4919  0.4617
11308TIP3    H155339   1.406   5.505  15.495  0.9423  0.4555 -3.1913
11308TIP3    H255340   1.408   5.364  15.548 -2.1231  1.5369  0.2122
11309TIP3   OH255341   6.392   5.559  16.707  0.1312  0.3483 -0.1093
11309TIP3    H155342   6.460   5.524  16.650  0.3520  2.4268 -1.2502
11309TIP3    H255343   6.440   5.606  16.775 -0.1572 -0.8977  0.9833
11310TIP3   OH255344   6.346   4.020   3.178  0.5272  0.1049 -0.7875
11310TIP3    H155345   6.321   4.099   3.226  0.2663 -0.5375  0.1888
11310TIP3    H255346   6.286   4.016   3.104 -0.3575  0.1336 -0.0961
11311TIP3   OH255347   1.433   5.028   5.209  0.0601  0.3493  0.2017
11311TIP3    H155348   1.436   5.100   5.146 -2.6691  0.8862  0.5646
11311TIP3    H255349   1.387   4.958   5.163  1.2093 -0.5904  0.4331
11312TIP3   OH255350   1.045   2.704   1.114  0.1109  0.1790 -0.6432
11312TIP3    H155351   1.068   2.730   1.025  1.2036 -0.5559 -0.5944
11312TIP3    H255352   1.013   2.784   1.155  2.5013  1.2913 -0.7724
11313TIP3   OH255353   4.966   5.529   1.140 -0.1994  0.2068  0.4583
11313TIP3    H155354   4.888   5.527   1.085 -0.1165 -0.4028  0.3474
11313TIP3    H255355   4.936   5.497   1.225  0.0470 -0.6646  0.2356
11314TIP3   OH255356   3.364   2.113  14.934 -0.1921 -0.3983 -0.2268
11314TIP3    H155357   3.335   2.063  14.858 -0.4256  0.2241 -0.5487
11314TIP3    H255358   3.389   2.198  14.899  0.1361 -0.2606  0.3293
11315TIP3   OH255359   2.032   4.502  14.464  0.2419  0.0802 -0.1087
11315TIP3    H155360   2.022   4.428  14.523  1.1100 -0.8375 -1.0728
11315TIP3    H255361   1.986   4.574  14.508 -1.0189 -1.1233  0.6372
11316TIP3   OH255362   1.390   4.097   5.826  0.1360  0.1962  0.3827
11316TIP3    H155363   1.294   4.095   5.832  0.0418  1.3060 -0.5020
11316TIP3    H255364   1.413   4.188   5.846  1.0226 -0.0949  0.7162
11317TIP3   OH255365   3.695   2.207  14.653  0.2455 -0.2866 -0.0272
11317TIP3    H155366   3.613   2.228  14.699  0.0992 -1.0451  0.0615
11317TIP3    H255367   3.669   2.195  14.562  0.3488  0.0264 -0.0989
11318TIP3   OH255368   2.599   6.185  14.818  0.0669  0.0525  0.2224
11318TIP3    H155369   2.543   6.144  14.884 -1.3838 -1.1379 -1.6669
11318TIP3    H255370   2.604   6.277  14.845 -2.1633  0.0306  0.8956
11319TIP3   OH255371   5.647   3.147   5.568  0.3177 -0.3612  0.0330
11319TIP3    H155372   5.693   3.115   5.490 -0.5610  0.6556 -0.9418
11319TIP3    H255373   5.569   3.191   5.533  0.4063  0.9688  1.4099
11320TIP3   OH255374   2.930   5.810  16.740  0.1921 -0.0692 -0.0040
11320TIP3    H155375   3.020   5.820  16.709 -0.0444 -1.3579 -1.2035
11320TIP3    H255376   2.935   5.742  16.806 -0.2219 -2.1117 -1.9525
11321TIP3   OH255377   4.161   3.715   3.412 -0.1276 -0.4310  0.4508
11321TIP3    H155378   4.150   3.633   3.460 -0.5991 -1.1258 -0.8140
11321TIP3    H255379   4.080   3.725   3.361  0.5218  0.0764 -0.5187
11322TIP3   OH255380   6.632   4.563   2.511 -0.4815  0.1435  0.0725
11322TIP3    H155381   6.581   4.563   2.430 -1.2309  1.9216  0.5028
11322TIP3    H255382   6.700   4.629   2.496 -1.0172  0.9589  1.1034
11323TIP3   OH255383   4.443   6.482  15.503  0.2180  0.1929 -0.3990
11323TIP3    H155384   4.537   6.465  15.494  0.4078  0.9640  0.0106
11323TIP3    H255385   4.435   6.576  15.490 -0.4482  0.1905 -0.0322
11324TIP3   OH255386   5.329   4.922   3.648 -0.2128  0.0132 -0.6374
11324TIP3    H155387   5.296   4.989   3.588 -1.6975  1.4503  1.6249
11324TIP3    H255388   5.265   4.919   3.718  1.4353 -1.5963  0.9125
11325TIP3   OH255389   2.421   2.513  12.525  0.2096 -0.7220  0.1373
11325TIP3    H155390   2.480   2.438  12.525 -0.6290 -1.4132  1.2362
11325TIP3    H255391   2.465   2.579  12.578  0.3578 -0.9331  0.2754
11326TIP3   OH255392   5.759   0.748   5.394 -0.4162 -0.5414 -0.0416
11326TIP3    H155393   5.728   0.827   5.440 -0.2669 -0.5996  0.1608
11326TIP3    H255394   5.684   0.689   5.394  0.0597 -1.1894  1.5784
11327TIP3   OH255395   6.375   0.291  16.850  0.5214  0.4094  0.2914
11327TIP3    H155396   6.337   0.341  16.778  1.2688  1.3777  0.5505
11327TIP3    H255397   6.336   0.204  16.842  0.2484  0.6312 -1.0051
11328TIP3   OH255398   1.137   6.288  11.778 -0.2584 -0.6928 -0.3035
11328TIP3    H155399   1.171   6.199  11.786 -0.2982 -0.6489  0.4222
11328TIP3    H255400   1.203   6.342  11.823 -0.1200 -0.3302 -0.9363
11329TIP3   OH255401   4.183   1.764   4.407  0.2616 -0.3312  0.1334
11329TIP3    H155402   4.088   1.756   4.412  0.2469  0.1301  0.8127
11329TIP3    H255403   4.211   1.780   4.498  0.9160  0.1846 -0.1469
11330TIP3   OH255404   5.313   6.055  17.258  0.5324 -0.2328  0.0407
11330TIP3    H155405   5.366   6.094  17.328  0.4953 -0.4275  0.1769
11330TIP3    H255406   5.365   6.070  17.179 -0.3231  1.7622 -0.2077
11331TIP3   OH255407   4.040   3.081  14.466 -0.2662 -0.1546  0.0986
11331TIP3    H155408   4.009   3.035  14.388  0.1778 -0.5832  0.1693
11331TIP3    H255409   3.960   3.104  14.514 -0.5797  0.6435 -0.7718
11332TIP3   OH255410   5.048   4.615   1.157  0.0987  0.1457 -0.4521
11332TIP3    H155411   5.035   4.707   1.177  0.1907  0.2109 -0.6860
11332TIP3    H255412   5.017   4.605   1.067  1.1435  0.1914 -0.8248
11333TIP3   OH255413   6.397   0.791   3.029  0.0164 -0.0278  0.0564
11333TIP3    H155414   6.302   0.785   3.039 -0.0705  1.0313  0.0299
11333TIP3    H255415   6.432   0.736   3.099 -0.6236  0.0657  0.4619
11334TIP3   OH255416   4.298   6.746   1.828 -0.0181 -0.3131 -0.3051
11334TIP3    H155417   4.271   6.682   1.894 -0.4620 -0.1926 -0.3670
11334TIP3    H255418   4.394   6.749   1.835  0.0231 -1.1472 -0.4554
11335TIP3   OH255419   1.370   2.844   0.715 -0.5649  0.4388 -0.5666
11335TIP3    H155420   1.445   2.784   0.714  0.4927  1.5561  2.2534
11335TIP3    H255421   1.383   2.901   0.639  0.0045 -1.0025 -1.5842
11336TIP3   OH255422   0.514   1.673   4.787 -0.5407  0.8095  0.2461
11336TIP3    H155423   0.478   1.644   4.871 -1.6496  0.1192 -0.4381
11336TIP3    H255424   0.445   1.652   4.723  1.8245 -2.6015 -1.4890
11337TIP3   OH255425   6.696   1.363  15.939  0.1078 -0.1666 -0.0442
11337TIP3    H155426   6.661   1.371  15.851 -0.6533 -2.0498  0.0440
11337TIP3    H255427   6.628   1.400  15.995  0.4630  0.7538 -0.1997
11338TIP3   OH255428   5.485   4.540  12.745  0.0982  0.4254  0.0553
11338TIP3    H155429   5.403   4.582  12.769  0.3907  1.1091 -0.1248
11338TIP3    H255430   5.508   4.487  12.822 -0.5186  0.2057  0.0925
11339TIP3   OH255431   1.491   2.110  13.137 -0.1993 -0.0747 -0.5252
11339TIP3    H155432   1.527   2.030  13.176  0.6673 -0.7755 -2.6374
11339TIP3    H255433   1.554   2.135  13.070 -3.4245 -1.2847 -4.3630
11340TIP3   OH255434   4.745   0.108  14.512 -0.2865  0.0749 -0.2729
11340TIP3    H155435   4.765   0.122  14.419  2.2926 -0.0150  0.1890
11340TIP3    H255436   4.738   0.196  14.549 -1.6426  0.1122 -0.5973
11341TIP3   OH255437   3.833   0.667   1.917 -0.0667  0.1492 -0.1439
11341TIP3    H155438   3.788   0.658   2.001  0.7974 -0.0711  0.3161
11341TIP3    H255439   3.873   0.755   1.920 -1.3012  0.7678 -0.9841
11342TIP3   OH255440   1.389   2.132  17.197  0.1901 -0.5161  0.1589
11342TIP3    H155441   1.414   2.167  17.111  1.2944  1.4882  1.2327
11342TIP3    H255442   1.306   2.175  17.218 -1.4345 -2.9191 -0.9322
11343TIP3   OH255443   1.930   5.142  11.744  0.5679 -0.4436  0.2204
11343TIP3    H155444   1.973   5.227  11.750  1.6069 -0.9696  0.5845
11343TIP3    H255445   1.869   5.141  11.818  0.8915 -0.1943  0.4953
11344TIP3   OH255446   3.892   1.787  14.949 -0.3577 -0.4136 -0.4252
11344TIP3    H155447   3.845   1.703  14.942 -0.3775 -0.4401 -0.0360
11344TIP3    H255448   3.982   1.762  14.968 -0.7951 -0.3485  2.0905
11345TIP3   OH255449   6.711   2.311   5.548 -0.8085  0.0250  0.5008
11345TIP3    H155450   6.737   2.288   5.637  0.7948  0.2991  0.1414
11345TIP3    H255451   6.746   2.240   5.494  0.6852  1.2080 -0.1818
11346TIP3   OH255452   6.578   2.288  11.396  0.2118  0.2291 -0.4113
11346TIP3    H155453   6.529   2.287  11.314  0.7293 -4.1532 -0.8880
11346TIP3    H255454   6.670   2.294  11.368  0.3092  1.5951  0.1073
11347TIP3   OH255455   6.069   3.007  16.030 -0.1268 -0.1285  0.3879
11347TIP3    H155456   6.014   3.072  15.986  0.1851 -0.1619 -0.0559
11347TIP3    H255457   6.074   2.934  15.968 -0.6343 -0.6557  0.9656
11348TIP3   OH255458   4.932   5.707   4.797 -0.2480 -0.4441  0.0430
11348TIP3    H155459   4.856   5.736   4.848 -0.6196 -0.8845 -0.2490
11348TIP3    H255460   4.966   5.632   4.845  0.1151 -0.1345  0.2701
11349TIP3   OH255461   4.800   3.519   1.144  0.0152  0.3868  0.2781
11349TIP3    H155462   4.767   3.562   1.223  1.0333  1.9387 -0.0985
11349TIP3    H255463   4.755   3.562   1.072  0.2184  0.0337 -0.0658
11350TIP3   OH255464   0.143   5.929  16.595  0.0260 -0.0542 -0.2400
11350TIP3    H155465   0.151   5.841  16.558  2.2894  1.1613 -3.1592
11350TIP3    H255466   0.063   5.965  16.556  0.1524 -0.1945 -0.6328
11351TIP3   OH255467   3.300   2.989  11.345 -0.3003 -0.6480 -0.2056
11351TIP3    H155468   3.371   2.989  11.281  1.2332 -2.0985  1.4130
11351TIP3    H255469   3.239   2.922  11.313  0.5761 -1.5431 -0.0173
11352TIP3   OH255470   0.618   6.539   3.119  0.0773 -0.4901 -0.2437
11352TIP3    H155471   0.570   6.608   3.072  1.9339  0.0575 -1.4597
11352TIP3    H255472   0.707   6.545   3.085  1.0290 -1.4671  1.9184
11353TIP3   OH255473   0.458   1.554  17.150  0.0277 -0.1029  0.0516
11353TIP3    H155474   0.417   1.486  17.097 -1.6776  0.9491 -0.0489
11353TIP3    H255475   0.428   1.637  17.112  3.1135  0.8144 -0.6794
11354TIP3   OH255476   6.671   4.973  16.851  0.3835  0.6236 -0.0215
11354TIP3    H155477   6.606   5.000  16.786  1.1368  0.2128 -0.9749
11354TIP3    H255478   6.682   4.879  16.836  1.5518  0.7760 -0.2187
11355TIP3   OH255479   0.033   4.532  14.435  0.4022  0.1975  0.0546
11355TIP3    H155480   0.028   4.624  14.410  0.8059  0.3868  0.6610
11355TIP3    H255481  -0.047   4.516  14.486  2.4494  1.5054  4.0910
11356TIP3   OH255482   6.111   6.313  11.957  0.6040  0.4423 -0.3104
11356TIP3    H155483   6.150   6.399  11.937 -1.5934  1.3256 -1.1257
11356TIP3    H255484   6.106   6.269  11.872 -0.8874  0.7081 -0.3913
11357TIP3   OH255485   6.460   2.635   1.750  0.4266  0.5293 -0.3222
11357TIP3    H155486   6.445   2.627   1.845 -0.1942  0.2105 -0.4387
11357TIP3    H255487   6.554   2.652   1.742  0.2386  2.0195  0.4175
11358TIP3   OH255488   5.278   1.826   2.188 -0.1141 -0.0700  0.1453
11358TIP3    H155489   5.203   1.768   2.196  0.3276 -0.8780 -1.2082
11358TIP3    H255490   5.324   1.819   2.272  0.6938 -2.7951 -0.4218
11359TIP3   OH255491   3.352   0.838  15.758 -0.0692  0.1952  0.5689
11359TIP3    H155492   3.385   0.912  15.707 -0.1375 -1.0165 -1.3674
11359TIP3    H255493   3.257   0.846  15.751 -0.1057 -1.1636 -1.4971
11360TIP3   OH255494   0.830   1.783   4.481 -0.2718 -0.1605  0.8364
11360TIP3    H155495   0.817   1.814   4.391  4.0556 -0.5851 -0.1446
11360TIP3    H255496   0.769   1.710   4.490  0.0315 -0.9395 -2.2600
11361TIP3   OH255497   1.964   6.393   0.368 -0.2762 -0.4941  0.0555
11361TIP3    H155498   2.013   6.349   0.437 -1.0428 -2.4517 -0.5922
11361TIP3    H255499   2.024   6.395   0.293  0.1015  0.4879  0.3656
11362TIP3   OH255500   2.960   1.454  16.107 -0.6091 -0.3686 -0.1575
11362TIP3    H155501   2.874   1.414  16.120 -0.4329 -0.8089 -0.3094
11362TIP3    H255502   2.947   1.518  16.038 -0.5832 -1.2322 -0.9802
11363TIP3   OH255503   2.070   3.927   1.758 -0.3827 -0.2120  0.3645
11363TIP3    H155504   2.005   3.958   1.822 -1.1048  0.7258 -0.7912
11363TIP3    H255505   2.152   3.965   1.789 -0.3111 -1.5167  1.9171
11364TIP3   OH255506   5.664   0.607   2.183 -0.1390 -0.4472  0.0481
11364TIP3    H155507   5.594   0.589   2.245 -1.1242  0.4080 -0.7855
11364TIP3    H255508   5.711   0.681   2.221 -0.7280  0.0631 -0.1996
11365TIP3   OH255509   3.862   2.317  16.006 -0.8374 -0.4154 -0.4932
11365TIP3    H155510   3.813   2.397  15.988  0.2596  0.7898  1.5242
11365TIP3    H255511   3.885   2.323  16.099 -0.6315 -3.0414 -0.2906
11366TIP3   OH255512   0.187   1.574  11.958 -0.5944 -0.0423  0.1713
11366TIP3    H155513   0.162   1.489  11.921  0.1840 -0.3766  0.3893
11366TIP3    H255514   0.215   1.554  12.047 -0.2150  0.4155  0.1603
11367TIP3   OH255515   3.199   2.671  12.014  0.3298  0.2002 -0.1414
11367TIP3    H155516   3.229   2.720  11.937 -0.4634 -1.1335 -1.3448
11367TIP3    H255517   3.231   2.582  12.000 -1.8544 -0.6377 -0.1659
11368TIP3   OH255518   0.190   3.815   3.218 -1.0992 -0.0349 -0.2324
11368TIP3    H155519   0.145   3.832   3.135 -0.3905 -0.0987 -0.6391
11368TIP3    H255520   0.172   3.893   3.271 -0.8087  0.4086 -0.7766
11369TIP3   OH255521   1.499   1.516   1.595 -0.7290  0.5296  0.2592
11369TIP3    H155522   1.459   1.598   1.565  0.9059  1.3240  0.1601
11369TIP3    H255523   1.510   1.464   1.515 -2.0191  0.0578  0.3562
11370TIP3   OH255524   6.632   6.781  14.856  0.8876  0.1762 -0.4464
11370TIP3    H155525   6.692   6.838  14.808 -0.2619  1.3940 -0.5080
11370TIP3    H255526   6.607   6.714  14.793  0.8567  0.6609 -0.9566
11371TIP3   OH255527   6.169   2.457   2.163  0.2906  0.8390  0.7056
11371TIP3    H155528   6.086   2.502   2.147 -0.8830 -0.1052  3.4785
11371TIP3    H255529   6.146   2.384   2.220  2.6905 -1.0232 -0.5323
11372TIP3   OH255530   6.469   6.438  16.454  0.1172 -0.2645 -0.2446
11372TIP3    H155531   6.407   6.401  16.390  0.9696 -0.2806 -1.0887
11372TIP3    H255532   6.478   6.529  16.428 -0.7863  0.1771  0.8899
11373TIP3   OH255533   1.398   1.613  11.912  0.0183  0.1372 -0.4225
11373TIP3    H155534   1.394   1.539  11.974  0.5862 -0.6020 -1.2465
11373TIP3    H255535   1.491   1.635  11.908 -0.0631  0.4088 -0.7519
11374TIP3   OH255536   3.821   2.064  16.660  0.4161  0.1225 -0.1591
11374TIP3    H155537   3.871   2.026  16.587 -1.8714 -0.2469 -1.6510
11374TIP3    H255538   3.817   1.993  16.725 -2.6539 -1.9669 -2.3463
11375TIP3   OH255539   0.067   1.143  11.464 -0.6000 -0.2692 -0.1713
11375TIP3    H155540  -0.007   1.087  11.488  0.4057 -2.2512 -1.4217
11375TIP3    H255541   0.052   1.164  11.371 -0.8892  1.5156  0.2330
11376TIP3   OH255542   1.840   4.214  12.144 -0.8479 -0.3894  0.0850
11376TIP3    H155543   1.869   4.124  12.154  3.3995  0.7044 -0.5577
11376TIP3    H255544   1.823   4.224  12.051 -0.1617 -0.2674 -0.0332
11377TIP3   OH255545   2.449   6.205   1.554  0.0418  0.2076 -0.4277
11377TIP3    H155546   2.504   6.130   1.575  1.4155  1.1179 -0.6755
11377TIP3    H255547   2.360   6.169   1.550  0.4938 -1.1397  0.7935
11378TIP3   OH255548   1.326   6.547   6.242  0.1598  0.0038 -0.2573
11378TIP3    H155549   1.237   6.555   6.206  0.1212 -2.6420 -0.9807
11378TIP3    H255550   1.318   6.483   6.313  0.9516  2.2686  2.0056
11379TIP3   OH255551   0.119   4.918  12.135 -0.6316  0.6580 -0.1655
11379TIP3    H155552   0.064   4.858  12.186 -0.2448  0.5224  0.1044
11379TIP3    H255553   0.154   4.864  12.064 -1.0489  0.8088 -0.4867
11380TIP3   OH255554   2.223   5.154  17.257  0.0309  0.1651 -0.0213
11380TIP3    H155555   2.190   5.114  17.176  1.7472  0.2641 -0.8157
11380TIP3    H255556   2.145   5.172  17.308 -1.0050 -1.4249 -0.9458
11381TIP3   OH255557   3.542   0.193   4.959 -0.4474  0.3114  0.6487
11381TIP3    H155558   3.479   0.176   4.889 -0.2250 -0.1624  0.5638
11381TIP3    H255559   3.488   0.216   5.034 -0.7816 -1.1694  0.8820
11382TIP3   OH255560   3.202   3.921  13.828 -0.0237 -0.3822 -0.0045
11382TIP3    H155561   3.263   3.968  13.770 -0.2372 -0.9548 -0.7033
11382TIP3    H255562   3.131   3.983  13.843  1.1285  0.6679  1.5886
11383TIP3   OH255563   6.500   4.066   2.599  0.0387 -0.5215  0.0720
11383TIP3    H155564   6.517   4.159   2.585 -2.3254 -0.1218 -0.5557
11383TIP3    H255565   6.489   4.029   2.511 -1.0964 -0.9228  0.3574
11384TIP3   OH255566   3.716   2.017  12.240 -0.8106 -0.0945 -0.0610
11384TIP3    H155567   3.682   1.946  12.295  1.3731 -2.0526 -1.0499
11384TIP3    H255568   3.640   2.071  12.221 -2.4552 -1.7644  1.3326
11385TIP3   OH255569   0.825   4.822  15.631  0.1267 -0.4600  0.0226
11385TIP3    H155570   0.738   4.863  15.638  1.2504  1.8558  1.7545
11385TIP3    H255571   0.820   4.745  15.688 -0.9539 -0.7711 -0.4553
11386TIP3   OH255572   4.008   4.881   5.537  0.0734 -0.1001  0.6569
11386TIP3    H155573   3.996   4.975   5.545  0.9341  0.1127 -0.3553
11386TIP3    H255574   4.103   4.869   5.530 -0.0094 -1.0633  1.0499
11387TIP3   OH255575   1.083   2.984  14.396 -0.4943 -0.5016  0.4932
11387TIP3    H155576   1.031   2.956  14.472 -0.0458 -0.4825  0.8129
11387TIP3    H255577   1.168   2.944  14.410 -0.6122 -1.0504 -0.3575
11388TIP3   OH255578   1.308   3.814  12.685  0.7571  0.1432  0.3628
11388TIP3    H155579   1.277   3.896  12.645  0.9183  0.5954  1.1388
11388TIP3    H255580   1.366   3.776  12.619  0.4491  0.5030 -0.1246
11389TIP3   OH255581   2.349   5.471  11.506  0.0918 -0.2611 -0.0754
11389TIP3    H155582   2.316   5.478  11.595 -0.2649  0.0710 -0.2303
11389TIP3    H255583   2.434   5.427  11.515  0.6635  0.9106  0.5665
11390TIP3   OH255584   2.387   0.037  14.719  0.4424 -0.4360 -0.1318
11390TIP3    H155585   2.418  -0.002  14.637 -0.2689 -1.0596 -0.1147
11390TIP3    H255586   2.464   0.034  14.777  1.2665  0.9812 -1.0830
11391TIP3   OH255587   5.675   3.950   6.716  0.0253 -0.2619 -0.2437
11391TIP3    H155588   5.702   3.908   6.635  1.4544  0.9651 -0.4526
11391TIP3    H255589   5.594   3.996   6.694 -1.1445 -2.1778 -0.2015
11392TIP3   OH255590   5.219   4.008   3.179  0.0046  0.1053  0.5965
11392TIP3    H155591   5.310   3.990   3.155  0.3567 -0.4815  2.1979
11392TIP3    H255592   5.201   3.945   3.249 -0.7860  1.9398  2.1175
11393TIP3   OH255593   1.644   0.456  17.212  0.0669  0.3183 -0.4018
11393TIP3    H155594   1.553   0.458  17.243 -0.5105 -0.8985 -1.9032
11393TIP3    H255595   1.640   0.498  17.126  1.1330  1.1738 -0.0481
11394TIP3   OH255596   4.853   1.623   4.753  0.3557  0.1688 -0.1668
11394TIP3    H155597   4.796   1.566   4.804 -0.8350 -0.4506 -2.0837
11394TIP3    H255598   4.910   1.664   4.818 -1.0355 -0.6000  1.6301
11395TIP3   OH255599   1.374   4.150   0.628  0.4664 -0.6329 -0.5064
11395TIP3    H155600   1.378   4.065   0.585  0.3568 -0.2066 -1.3885
11395TIP3    H255601   1.458   4.191   0.609  1.4644 -1.4023  1.8369
11396TIP3   OH255602   5.538   0.679  13.821  0.0287  1.0522  0.6776
11396TIP3    H155603   5.455   0.680  13.870 -0.6167  1.4441 -0.3863
11396TIP3    H255604   5.551   0.770  13.794  0.9577  1.0430  1.0603
11397TIP3   OH255605   2.301   0.042  11.218  0.2592 -0.0361 -0.3901
11397TIP3    H155606   2.301  -0.049  11.187  0.2498 -0.1389 -0.0917
11397TIP3    H255607   2.389   0.074  11.199  0.3445 -0.1903 -0.2618
11398TIP3   OH255608   1.857   2.748  12.860 -0.6124  0.1442  0.0913
11398TIP3    H155609   1.764   2.733  12.875 -0.8947  1.1647 -0.5788
11398TIP3    H255610   1.879   2.821  12.918 -0.2503 -0.0306  0.1770
11399TIP3   OH255611   6.418   6.287   3.531 -0.6893  0.0191  0.0812
11399TIP3    H155612   6.353   6.305   3.463 -0.7797 -0.1665  0.1188
11399TIP3    H255613   6.475   6.221   3.492  0.4264  1.3088 -0.5628
11400TIP3   OH255614   1.363   0.005   6.358  0.5168 -0.7467  0.4627
11400TIP3    H155615   1.365  -0.075   6.307 -2.3739 -1.2077  0.9261
11400TIP3    H255616   1.304   0.063   6.310  1.1589  0.4527  1.0698
11401TIP3   OH255617   4.514   4.882  15.877  0.3957 -0.3231 -0.1506
11401TIP3    H155618   4.546   4.800  15.840 -0.6660 -0.6525 -0.3549
11401TIP3    H255619   4.579   4.905  15.943  1.2829 -0.7447 -0.8596
11402TIP3   OH255620   3.821   4.765  13.667  0.5361 -0.6932 -0.0110
11402TIP3    H155621   3.789   4.702  13.731  0.3103 -0.5696 -0.0022
11402TIP3    H255622   3.771   4.747  13.588  0.2322 -0.3027  0.0920
11403TIP3   OH255623   6.418   4.015   0.545 -0.1503  0.2038 -0.0819
11403TIP3    H155624   6.396   4.005   0.638  0.6560  0.1538  0.1119
11403TIP3    H255625   6.439   4.108   0.535 -1.9886  0.6025 -0.6223
11404TIP3   OH255626   5.726   0.021   4.047  0.3903  0.4063  0.7221
11404TIP3    H155627   5.686   0.022   3.960 -0.0926 -0.9267  0.9042
11404TIP3    H255628   5.812   0.061   4.035  0.9439 -1.1071 -0.6990
11405TIP3   OH255629   0.864   3.210  11.836 -0.1417 -0.3012  0.0338
11405TIP3    H155630   0.866   3.304  11.853 -0.1526 -0.5396  1.4863
11405TIP3    H255631   0.770   3.189  11.830 -0.2072 -0.4625  1.3267
11406TIP3   OH255632   1.567   3.412  16.808  0.0505  0.3070  0.0043
11406TIP3    H155633   1.584   3.330  16.855 -0.3255  0.5667  0.5979
11406TIP3    H255634   1.643   3.422  16.750  1.0560  0.5289  1.3163
11407TIP3   OH255635   6.531   0.425  11.530  0.2504  0.3150 -0.3001
11407TIP3    H155636   6.518   0.334  11.506  0.9956  0.2860 -0.6193
11407TIP3    H255637   6.497   0.475  11.456 -1.6241  0.3580  0.5434
11408TIP3   OH255638   1.581   3.517   1.313 -0.1447  0.3854  0.5622
11408TIP3    H155639   1.505   3.511   1.371  0.7602  1.3716  1.9048
11408TIP3    H255640   1.602   3.610   1.310 -0.7612  0.5209 -2.2261
11409TIP3   OH255641   1.397   2.792   6.194  0.7459  0.3605  0.0814
11409TIP3    H155642   1.445   2.848   6.255  1.6728  0.5389 -0.7851
11409TIP3    H255643   1.307   2.792   6.227  1.2619  0.2818  1.5496
11410TIP3   OH255644   5.715   2.645   5.706 -0.1030  0.4947  0.3664
11410TIP3    H155645   5.659   2.706   5.658 -0.7277 -0.5841 -0.3095
11410TIP3    H255646   5.679   2.645   5.795 -0.6801  0.4246  0.1374
11411TIP3   OH255647   2.548   0.760   1.401  0.4870 -0.2081  0.1112
11411TIP3    H155648   2.643   0.764   1.397  0.4073  1.7564 -0.4822
11411TIP3    H255649   2.520   0.849   1.422 -1.2644 -0.5282 -0.6832
11412TIP3   OH255650   5.859   1.599   1.197  0.2582  0.1267 -0.1682
11412TIP3    H155651   5.941   1.574   1.154 -0.4555 -1.2455 -0.7703
11412TIP3    H255652   5.862   1.554   1.281 -0.0198 -0.1738 -0.3202
11413TIP3   OH255653   1.633   6.363   2.475  0.6323 -0.1407  0.5564
11413TIP3    H155654   1.693   6.357   2.550  3.7143 -0.6616 -1.7241
11413TIP3    H255655   1.662   6.441   2.428 -1.2658  0.2184 -0.0885
11414TIP3   OH255656   4.937   0.428   3.234 -0.0940  0.2235  0.0448
11414TIP3    H155657   4.911   0.358   3.175 -1.4207  0.7354 -0.0251
11414TIP3    H255658   4.973   0.496   3.177  0.3756 -0.0326  0.0285
11415TIP3   OH255659   0.803   4.694  14.789 -0.7123 -0.1625 -0.5045
11415TIP3    H155660   0.780   4.663  14.702 -1.3853 -0.5023 -0.2181
11415TIP3    H255661   0.897   4.679  14.796 -0.9872 -2.1926 -0.3859
11416TIP3   OH255662   5.325   5.935  13.080  0.3872 -0.1863  0.2714
11416TIP3    H155663   5.251   5.927  13.140 -1.4606  1.7821 -1.5763
11416TIP3    H255664   5.337   6.030  13.069  0.8105 -0.4711 -2.2473
11417TIP3   OH255665   0.344   2.188  15.804 -0.7333 -0.0519 -0.0234
11417TIP3    H155666   0.304   2.230  15.880 -0.0685 -1.2629  1.0374
11417TIP3    H255667   0.271   2.143  15.761 -0.9145 -0.3462  0.5801
11418TIP3   OH255668   0.163   5.182  15.128  0.4729  0.1413  0.3140
11418TIP3    H155669   0.135   5.091  15.128 -2.4984  0.9145  1.7875
11418TIP3    H255670   0.213   5.192  15.209 -0.9227  0.2185  1.1926
11419TIP3   OH255671   0.062   3.242  16.692 -0.0082 -0.1446 -0.0256
11419TIP3    H155672   0.053   3.303  16.765  1.0641 -0.3039  0.2584
11419TIP3    H255673   0.157   3.236  16.678 -0.1113 -1.4792 -0.2719
11420TIP3   OH255674   2.586   2.590  16.746 -0.0868  0.4852  0.1433
11420TIP3    H155675   2.631   2.521  16.796 -0.5197 -0.0672 -0.2227
11420TIP3    H255676   2.518   2.622  16.805 -0.8026 -0.3865 -0.2032
11421TIP3   OH255677   3.932   1.478   4.887 -0.6718  0.3245  0.6954
11421TIP3    H155678   3.837   1.490   4.894 -0.5942  0.4622  1.5108
11421TIP3    H255679   3.942   1.385   4.867 -1.0447  0.6200 -1.0409
11422TIP3   OH255680   2.614   6.164  16.677  0.2227 -0.0662 -0.1951
11422TIP3    H155681   2.558   6.090  16.700  0.3259 -0.0614  0.0812
11422TIP3    H255682   2.597   6.180  16.584 -1.9943  1.4141  0.3984
11423TIP3   OH255683   1.195   4.866  15.742  0.2312 -0.1494  0.2122
11423TIP3    H155684   1.208   4.957  15.718  1.3449 -0.0882  0.9377
11423TIP3    H255685   1.131   4.868  15.814  0.6975  0.1291  0.6278
11424TIP3   OH255686   2.337   2.829  17.110  0.5676 -0.8476 -0.2728
11424TIP3    H155687   2.284   2.769  17.162 -0.9585 -0.7821 -1.6695
11424TIP3    H255688   2.283   2.908  17.100  2.2977  0.6006  1.0482
11425TIP3   OH255689   6.466   3.805   2.096  0.3820 -0.5156  1.0442
11425TIP3    H155690   6.522   3.865   2.047 -1.8263  0.2724 -0.6780
11425TIP3    H255691   6.504   3.718   2.080 -1.2957 -0.6263 -4.0279
11426TIP3   OH255692   3.474   4.502   0.042  0.7893 -0.3426 -0.4200
11426TIP3    H155693   3.460   4.540  -0.045  0.4669 -1.3692 -0.8439
11426TIP3    H255694   3.468   4.407   0.027 -1.3001 -0.5273  1.0435
11427TIP3   OH255695   0.220   5.828   5.261  0.3465 -0.7710  0.2472
11427TIP3    H155696   0.258   5.745   5.231  0.4447 -0.9982  0.9556
11427TIP3    H255697   0.246   5.833   5.353 -0.2336 -0.2845  0.3905
11428TIP3   OH255698   0.757   0.380  15.085 -0.4509 -0.5231  0.1193
11428TIP3    H155699   0.701   0.328  15.142 -1.0689 -0.4510 -0.4077
11428TIP3    H255700   0.707   0.389  15.004 -0.4660  1.0742  0.2635
11429TIP3   OH255701   1.263   4.416   0.650 -0.0382  1.0120 -0.1547
11429TIP3    H155702   1.293   4.471   0.722 -1.6560  0.8770  0.6711
11429TIP3    H255703   1.298   4.329   0.671 -0.1131  1.0702  0.2197
11430TIP3   OH255704   6.343   0.377  13.134  0.0738 -0.0116  0.5224
11430TIP3    H155705   6.351   0.465  13.098 -0.0647 -0.4456 -0.6047
11430TIP3    H255706   6.282   0.332  13.076  1.8335 -1.5213 -0.2874
11431TIP3   OH255707   1.826   4.322  13.049  0.2597  0.1161  0.2792
11431TIP3    H155708   1.845   4.396  12.990  0.8464  0.6408  1.1027
11431TIP3    H255709   1.864   4.246  13.004  0.3902  0.4524 -0.1899
11432TIP3   OH255710   5.717   2.585  10.621  0.2540 -0.3404  0.6797
11432TIP3    H155711   5.704   2.568  10.527  0.6181 -0.1061  0.5855
11432TIP3    H255712   5.723   2.680  10.627  1.6691 -0.4178  0.7489
11433TIP3   OH255713   4.921   3.302  14.649  0.0691  0.0193  0.2944
11433TIP3    H155714   4.922   3.332  14.740 -2.1728  1.0041  0.0592
11433TIP3    H255715   4.963   3.216  14.652 -2.9060 -1.5591  2.9207
11434TIP3   OH255716   1.803   0.550   2.579 -0.1039  0.5326  0.6106
11434TIP3    H155717   1.783   0.639   2.609 -1.1118  0.9018 -1.0205
11434TIP3    H255718   1.881   0.561   2.523 -0.8004  0.5815 -0.3805
11435TIP3   OH255719   3.687   2.347  13.005  0.3565  0.1182 -0.5388
11435TIP3    H155720   3.690   2.426  13.059 -0.5623  0.3080 -0.7325
11435TIP3    H255721   3.777   2.316  13.002  0.5561  0.5616  0.4163
11436TIP3   OH255722   5.868   3.714   4.043  0.2075 -0.0848  0.1072
11436TIP3    H155723   5.901   3.637   4.090  2.3374  1.8790  2.1083
11436TIP3    H255724   5.830   3.768   4.112  0.8739  1.6662 -0.8467
11437TIP3   OH255725   1.054   4.798   3.913 -0.1258  0.6737  0.0526
11437TIP3    H155726   1.129   4.799   3.853  1.3125 -0.4193  1.7274
11437TIP3    H255727   1.092   4.821   3.998 -0.0196 -6.2388  2.5539
11438TIP3   OH255728   6.775   0.382  15.556  0.2929 -0.7910 -0.6981
11438TIP3    H155729   6.796   0.390  15.463 -0.0384  1.1873 -0.6379
11438TIP3    H255730   6.846   0.427  15.601  0.5021 -1.8202  0.0461
11439TIP3   OH255731   1.131   1.163   5.375  0.4167 -0.5139  0.4454
11439TIP3    H155732   1.198   1.119   5.426 -0.7155 -1.1351  1.4425
11439TIP3    H255733   1.145   1.256   5.392  1.2145 -0.6127  0.3690
11440TIP3   OH255734   1.124   1.812   1.822  0.0384 -0.0007 -0.1431
11440TIP3    H155735   1.092   1.735   1.775 -1.5133  0.2711  0.4238
11440TIP3    H255736   1.138   1.878   1.754  0.6937 -0.5535 -0.5483
11441TIP3   OH255737   0.383   0.866  16.134  0.1139  0.1457 -0.6402
11441TIP3    H155738   0.380   0.855  16.039 -2.1124 -0.4570 -0.5483
11441TIP3    H255739   0.344   0.952  16.150 -0.2061 -0.0740 -0.2292
11442TIP3   OH255740   2.144   1.597  16.783 -0.3460 -0.0300 -0.3686
11442TIP3    H155741   2.191   1.658  16.839  1.4427 -1.6427  0.0057
11442TIP3    H255742   2.145   1.514  16.831  1.1022 -1.4401 -2.6089
11443TIP3   OH255743   0.862   0.082  16.476  0.3775 -0.3157  0.3665
11443TIP3    H155744   0.799   0.023  16.517  1.3165 -0.6585  1.3804
11443TIP3    H255745   0.895   0.136  16.549 -0.4956  1.5169 -0.5429
11444TIP3   OH255746   2.863   2.686  14.981  0.1685 -0.4468 -0.4004
11444TIP3    H155747   2.871   2.591  14.991 -1.3623 -0.3947  2.1104
11444TIP3    H255748   2.936   2.722  15.031  0.6858 -0.2879 -1.2611
11445TIP3   OH255749   5.435   1.804   1.688  0.1956 -0.1700  0.4693
11445TIP3    H155750   5.385   1.796   1.769 -0.2867 -0.4163  0.1522
11445TIP3    H255751   5.523   1.829   1.717 -0.4908  1.8834  0.9385
11446TIP3   OH255752   1.845   4.188   1.626 -0.1571  0.4497 -0.4940
11446TIP3    H155753   1.778   4.126   1.598  0.8994 -0.4906 -1.0329
11446TIP3    H255754   1.923   4.163   1.577  0.4980  1.7519 -0.1684
11447TIP3   OH255755   2.191   0.983  11.628  0.5077  0.1490  0.2230
11447TIP3    H155756   2.135   0.933  11.688  0.4282  0.6994  0.6173
11447TIP3    H255757   2.191   1.072  11.664 -0.7339  0.8589 -1.4362
11448TIP3   OH255758   1.235   1.613  16.970  0.1663  0.3515 -0.0403
11448TIP3    H155759   1.224   1.519  16.983 -1.1296  0.4850 -0.0014
11448TIP3    H255760   1.198   1.653  17.049 -0.7594  0.9301 -0.7364
11449TIP3   OH255761   6.554   1.788  15.721 -0.1103 -0.2560  0.2201
11449TIP3    H155762   6.642   1.752  15.710  0.2828  0.6846  0.1727
11449TIP3    H255763   6.539   1.840  15.642 -0.3505  0.2982  0.6223
11450TIP3   OH255764   3.483   0.726   1.044  0.2377 -0.8050 -0.3132
11450TIP3    H155765   3.387   0.720   1.054  0.4178 -0.5710  2.4431
11450TIP3    H255766   3.511   0.637   1.026 -0.4196 -1.0429 -0.1807
11451TIP3   OH255767   1.348   0.645   3.989 -0.3650 -0.4432 -0.3446
11451TIP3    H155768   1.285   0.707   4.025  1.0695  1.3256 -0.7418
11451TIP3    H255769   1.428   0.660   4.039 -0.2966 -2.9124  0.4210
11452TIP3   OH255770   2.486   4.498   3.439 -0.0527  0.1236 -0.0863
11452TIP3    H155771   2.553   4.430   3.432 -0.0712  0.1582 -0.6113
11452TIP3    H255772   2.479   4.515   3.533 -0.8314 -1.3813  0.1645
11453TIP3   OH255773   2.309   0.061   2.961  0.1546 -0.7022 -0.3485
11453TIP3    H155774   2.269   0.105   2.886  1.5104  0.2326 -0.5560
11453TIP3    H255775   2.235   0.037   3.017 -0.7550  0.1047 -1.1751
11454TIP3   OH255776   3.154   2.069  12.636 -0.1934 -0.0311  0.3861
11454TIP3    H155777   3.149   1.994  12.694  0.0232 -1.4184 -1.3122
11454TIP3    H255778   3.070   2.115  12.649  0.7253  1.0673  3.4167
11455TIP3   OH255779   4.261   2.699  15.581 -0.1195  0.2373 -0.6375
11455TIP3    H155780   4.256   2.625  15.642  1.6940  0.7449  0.1903
11455TIP3    H255781   4.193   2.681  15.516 -1.0430 -1.1368  0.6416
11456TIP3   OH255782   0.695   5.779  10.612 -0.5610 -0.3051 -0.3764
11456TIP3    H155783   0.663   5.816  10.695 -2.1846  0.2188 -1.1892
11456TIP3    H255784   0.645   5.825  10.545 -1.3141 -2.6863 -1.5293
11457TIP3   OH255785   3.009   6.446   0.218 -0.7981 -0.0410  0.6701
11457TIP3    H155786   2.966   6.459   0.303 -1.1229 -1.8292  0.8389
11457TIP3    H255787   2.989   6.355   0.196  0.1798  0.0763 -0.8278
11458TIP3   OH255788   1.416   6.700   6.706  0.1572 -0.1312  0.2463
11458TIP3    H155789   1.399   6.607   6.689 -2.0922  0.4767 -1.1810
11458TIP3    H255790   1.334   6.733   6.742 -0.0360  1.8619 -1.8253
11459TIP3   OH255791   2.465   3.479  12.466 -0.5626 -0.3969  0.0356
11459TIP3    H155792   2.477   3.574  12.468  1.0206 -0.5576 -0.3357
11459TIP3    H255793   2.533   3.446  12.524  1.4380 -1.4667 -2.7435
11460TIP3   OH255794   4.825   3.338   0.946 -0.7984  0.5536  0.1346
11460TIP3    H155795   4.840   3.407   1.011 -0.2842 -0.6112  1.2983
11460TIP3    H255796   4.734   3.349   0.919 -0.7813  1.5589  0.4426
11461TIP3   OH255797   0.028   1.697   1.875  0.3595 -0.3215  0.1606
11461TIP3    H155798   0.019   1.624   1.814 -0.7927  1.0822 -1.4489
11461TIP3    H255799  -0.058   1.706   1.915  0.9009 -0.7473  1.4534
11462TIP3   OH255800   1.112   4.414   0.175  0.3613  0.2125 -0.1223
11462TIP3    H155801   1.194   4.439   0.219  0.7969 -1.8903  0.3997
11462TIP3    H255802   1.129   4.430   0.082  1.0444  0.6144  0.0631
11463TIP3   OH255803   2.607   2.957   0.889  0.0110  0.5640  0.3550
11463TIP3    H155804   2.690   2.909   0.893  0.5645  1.5199  0.7053
11463TIP3    H255805   2.629   3.039   0.844 -0.6811  0.9387  0.6752
11464TIP3   OH255806   5.044   0.230  15.563  0.0176 -0.0634  0.7537
11464TIP3    H155807   5.131   0.233  15.602  0.5496 -0.8650 -0.3428
11464TIP3    H255808   5.052   0.278  15.481 -0.5930 -0.1027  0.6614
11465TIP3   OH255809   2.153   0.681  15.744 -0.6494  0.1749  0.1206
11465TIP3    H155810   2.135   0.616  15.811  1.0195  0.2065  0.6244
11465TIP3    H255811   2.149   0.632  15.662  2.0111 -0.9589  0.5748
11466TIP3   OH255812   4.188   6.473   2.300  1.0997  0.2950 -0.4490
11466TIP3    H155813   4.190   6.388   2.344  3.5711 -0.0912 -1.1767
11466TIP3    H255814   4.115   6.520   2.342  0.3370 -1.7801  0.6679
11467TIP3   OH255815   2.560   3.756   1.133 -0.2941 -0.5750 -0.7398
11467TIP3    H155816   2.528   3.697   1.201 -2.2023  2.2653  1.0666
11467TIP3    H255817   2.481   3.783   1.087  0.6966 -0.4463 -2.4288
11468TIP3   OH255818   4.122   6.497  15.538  0.0543 -0.1497  0.1882
11468TIP3    H155819   4.095   6.589  15.528  0.8169  0.2383  1.4072
11468TIP3    H255820   4.154   6.472  15.451 -1.0832  0.4059 -0.4221
11469TIP3   OH255821   0.449   5.523   4.423 -0.6603  0.4430  0.7052
11469TIP3    H155822   0.478   5.471   4.498 -0.0726 -0.2594  0.0024
11469TIP3    H255823   0.421   5.606   4.461  1.3623  0.8100  1.5457
11470TIP3   OH255824   0.258   2.357  12.961  0.4904 -0.1405 -0.1149
11470TIP3    H155825   0.180   2.348  13.016 -1.1165 -1.5493 -2.4456
11470TIP3    H255826   0.259   2.449  12.936 -0.0774  0.0167  0.4121
11471TIP3   OH255827   5.740   1.061   4.688  0.6547 -0.2736 -0.2602
11471TIP3    H155828   5.684   1.139   4.680  0.1948 -0.6541 -0.8624
11471TIP3    H255829   5.695   1.005   4.751  0.8227 -0.1874 -0.0642
11472TIP3   OH255830   3.823   5.580  17.161 -0.3673 -0.8406  0.2682
11472TIP3    H155831   3.788   5.525  17.231 -0.9133 -0.4361  0.3210
11472TIP3    H255832   3.752   5.641  17.141  0.3301  0.0427  0.4170
11473TIP3   OH255833   3.314   0.074   2.241  0.6622  0.0181 -0.2136
11473TIP3    H155834   3.277   0.001   2.192 -0.7041 -0.8812  2.0156
11473TIP3    H255835   3.406   0.052   2.252  0.6874 -0.4059 -1.1681
11474TIP3   OH255836   5.030   6.486   6.088  0.5106 -0.1387  0.4554
11474TIP3    H155837   5.099   6.518   6.029  0.4073 -1.1811 -0.2482
11474TIP3    H255838   5.005   6.563   6.139  1.0392  0.6372 -0.4303
11475TIP3   OH255839   4.585   2.938  13.880  0.2862  0.1962 -0.1340
11475TIP3    H155840   4.665   2.982  13.850  1.0804 -1.8581 -1.2021
11475TIP3    H255841   4.521   2.956  13.812 -0.0748  1.4432  0.4926
11476TIP3   OH255842   5.577   6.466  11.998 -0.3350  0.0500  0.2952
11476TIP3    H155843   5.520   6.531  11.957 -1.1499 -0.3157  0.8226
11476TIP3    H255844   5.657   6.515  12.021 -0.5263  0.6225 -0.2264
11477TIP3   OH255845   3.986   3.606  14.706  0.2191 -0.4904 -0.3510
11477TIP3    H155846   4.072   3.638  14.736  0.6041 -1.6503 -0.1808
11477TIP3    H255847   3.972   3.525  14.755 -0.8395 -0.4798 -0.6153
11478TIP3   OH255848   6.030   2.455  13.661  0.1512  0.0822  0.1053
11478TIP3    H155849   5.999   2.470  13.571 -1.2811  1.2508  0.7525
11478TIP3    H255850   5.956   2.479  13.716  1.5892  1.1628  1.6786
11479TIP3   OH255851   0.798   1.112   5.076 -0.3761  0.0875 -0.3907
11479TIP3    H155852   0.734   1.134   5.144 -0.4569  0.5833 -0.6211
11479TIP3    H255853   0.745   1.100   4.997 -0.0671  1.9910 -0.9320
11480TIP3   OH255854   0.284   4.990  14.648  0.5851 -0.0715 -0.1513
11480TIP3    H155855   0.344   4.917  14.658 -0.9185 -1.2684  0.5368
11480TIP3    H255856   0.204   4.963  14.694 -0.2038  1.7868 -0.3130
11481TIP3   OH255857   3.849   1.904  14.690 -0.0831 -0.1816 -0.3094
11481TIP3    H155858   3.762   1.865  14.686 -0.3476  0.0890  1.8725
11481TIP3    H255859   3.903   1.840  14.736  0.7828 -0.1468 -1.2334
11482TIP3   OH255860   5.885   3.435   4.171 -0.1979  0.8303  0.3441
11482TIP3    H155861   5.815   3.442   4.236 -0.8500  0.1806 -0.2720
11482TIP3    H255862   5.880   3.344   4.141  1.3248  0.5738  0.7489
11483TIP3   OH255863   3.748   0.648  13.864  0.3731 -0.6001 -0.5015
11483TIP3    H155864   3.780   0.580  13.923  0.7491 -0.8529 -0.9861
11483TIP3    H255865   3.680   0.693  13.914  0.9287 -0.5746  0.2473
11484TIP3   OH255866   5.899   2.392   3.272  0.3115  0.0153 -0.4132
11484TIP3    H155867   5.986   2.356   3.288  0.5206  1.1560  1.2325
11484TIP3    H255868   5.885   2.454   3.343 -1.0196  1.3785 -1.7795
11485TIP3   OH255869   2.067   0.656  14.411 -0.1638  0.2687  0.1757
11485TIP3    H155870   2.161   0.667  14.397 -0.5552  0.8550 -2.6029
11485TIP3    H255871   2.044   0.578  14.360 -0.9361 -1.1432  2.4930
11486TIP3   OH255872   6.767   5.756  14.927 -0.6674  0.0183  0.3609
11486TIP3    H155873   6.739   5.846  14.945  1.5382  1.3834 -2.3522
11486TIP3    H255874   6.855   5.750  14.963  0.1855 -0.1720 -1.6537
11487TIP3   OH255875   1.134   2.378  11.934 -0.2772  0.3985  0.3349
11487TIP3    H155876   1.069   2.449  11.936  0.2232  0.8620  0.6533
11487TIP3    H255877   1.168   2.374  12.023 -0.7131 -0.6436  0.4582
11488TIP3   OH255878   2.855   5.112   6.268  0.0190  0.4768 -0.1555
11488TIP3    H155879   2.935   5.138   6.314 -0.7275  0.0765  1.4452
11488TIP3    H255880   2.817   5.044   6.323  0.1489 -1.6149 -2.4709
11489TIP3   OH255881   3.570   6.509   4.292 -0.2653 -0.3164 -0.6233
11489TIP3    H155882   3.572   6.554   4.376 -0.0485 -0.2711 -0.6508
11489TIP3    H255883   3.662   6.502   4.267 -0.2776 -0.9661 -0.5172
11490TIP3   OH255884   6.721   5.467  14.675  0.2511 -0.2866 -0.4397
11490TIP3    H155885   6.711   5.539  14.614 -1.9818  0.4230  0.6519
11490TIP3    H255886   6.794   5.416  14.641  0.8438  1.5824 -2.1318
11491TIP3   OH255887   5.186   0.901   1.727  0.1967  0.2232 -0.0220
11491TIP3    H155888   5.150   0.816   1.703  1.3352 -0.6136  1.1153
11491TIP3    H255889   5.159   0.914   1.818  1.3231  0.3280  0.3189
11492TIP3   OH255890   0.076   0.903  13.681 -0.2190 -0.3056 -0.6756
11492TIP3    H155891   0.163   0.863  13.688 -0.0051 -0.1141 -2.0676
11492TIP3    H255892   0.017   0.835  13.713  0.3302 -0.9131 -0.9146
11493TIP3   OH255893   6.671   3.101  14.345 -0.1143 -0.2986  0.2029
11493TIP3    H155894   6.650   3.192  14.323  1.1687  0.1444  0.7262
11493TIP3    H255895   6.605   3.050  14.297  0.7951  0.7543 -2.3849
11494TIP3   OH255896   2.798   5.460  11.960  0.0854 -0.2855  0.4362
11494TIP3    H155897   2.773   5.429  12.047 -1.1492  1.8166  0.8915
11494TIP3    H255898   2.861   5.531  11.977  0.4942 -0.4224 -0.4260
11495TIP3   OH255899   3.816   4.738   5.060  0.1573 -0.2733  0.4724
11495TIP3    H155900   3.726   4.709   5.048  0.8064 -1.5307 -1.8841
11495TIP3    H255901   3.818   4.772   5.150 -2.2125 -1.8148  1.2059
11496TIP3   OH255902   0.655   3.071  12.954  0.5515 -0.1522 -0.4063
11496TIP3    H155903   0.688   3.143  12.901  0.3217 -0.3172 -0.7788
11496TIP3    H255904   0.723   3.004  12.949  0.7134 -0.0075 -0.1559
11497TIP3   OH255905   3.910   4.487   4.943 -0.1975 -1.1861 -0.0789
11497TIP3    H155906   3.979   4.471   5.007  0.3625 -1.4961 -0.7531
11497TIP3    H255907   3.882   4.577   4.960 -0.1798 -1.3218  0.7113
11498TIP3   OH255908   6.562   2.011  13.764 -0.2463 -0.2020  0.2283
11498TIP3    H155909   6.541   1.962  13.843 -0.8847 -0.0749  0.1403
11498TIP3    H255910   6.651   1.984  13.742 -1.0325 -2.3622 -0.5827
11499TIP3   OH255911   2.334   2.041   0.023 -0.1141 -0.3538 -0.4993
11499TIP3    H155912   2.331   2.042   0.118  0.7598  0.8018 -0.4620
11499TIP3    H255913   2.364   1.953  -0.000 -0.2960 -0.6253  0.2769
11500TIP3   OH255914   1.959   1.840   1.037  0.1469 -0.1484 -0.0937
11500TIP3    H155915   2.027   1.907   1.043 -0.2714  0.1968  1.3263
11500TIP3    H255916   1.894   1.876   0.977 -0.1090  0.7709  0.7075
11501TIP3   OH255917   6.701   6.151   2.401 -0.8372 -0.5015 -0.1836
11501TIP3    H155918   6.711   6.098   2.480  1.7237 -1.5456 -1.0735
11501TIP3    H255919   6.733   6.238   2.425 -1.5011 -0.3838  0.2960
11502TIP3   OH255920   3.157   1.931   0.368  0.7061  0.4997  0.5897
11502TIP3    H155921   3.244   1.928   0.328 -0.4427  1.1196 -2.1730
11502TIP3    H255922   3.144   1.842   0.401  2.2316  0.2917  0.7367
11503TIP3   OH255923   4.259   2.313   4.117  0.2844 -0.4527  0.4924
11503TIP3    H155924   4.253   2.372   4.193 -0.8809 -0.0969  0.1407
11503TIP3    H255925   4.250   2.225   4.155 -0.9266 -0.2475  0.7125
11504TIP3   OH255926   1.051   0.007  13.446 -0.0091 -0.3846 -0.3528
11504TIP3    H155927   1.137  -0.028  13.467  0.4382  0.5518 -0.5612
11504TIP3    H255928   1.007  -0.062  13.396  0.3558 -1.1304  0.3554
11505TIP3   OH255929   0.672   6.325  16.865  0.1563 -0.3755 -0.0798
11505TIP3    H155930   0.684   6.405  16.815 -1.1844  0.1371  0.3630
11505TIP3    H255931   0.683   6.254  16.801 -0.3053  0.2251 -0.8360
11506TIP3   OH255932   3.513   2.899   0.781 -0.3660 -0.8350 -0.5317
11506TIP3    H155933   3.517   2.956   0.704  2.9647 -0.4390 -0.2007
11506TIP3    H255934   3.507   2.811   0.745 -0.4593 -0.5638 -1.2056
11507TIP3   OH255935   3.650   4.776   4.227  0.6400 -0.4030  0.8433
11507TIP3    H155936   3.616   4.858   4.192 -0.0543 -0.4846  1.3089
11507TIP3    H255937   3.740   4.772   4.195  0.6279  0.4563  0.6762
11508TIP3   OH255938   3.894   0.613   4.168  0.4255  0.8940 -0.3655
11508TIP3    H155939   3.817   0.581   4.216 -0.1477  2.6626 -0.0304
11508TIP3    H255940   3.930   0.535   4.127 -0.0864 -0.4174  1.5036
11509TIP3   OH255941   2.557   2.168   0.298 -0.2788  0.6362 -1.1073
11509TIP3    H155942   2.482   2.210   0.256  0.6567 -0.6459 -4.4246
11509TIP3    H255943   2.633   2.196   0.246  0.7390 -2.5276 -1.5935
11510TIP3   OH255944   4.950   5.706  10.969 -0.1350 -0.4957  0.5366
11510TIP3    H155945   4.886   5.771  10.940 -2.2522 -2.6895 -0.0656
11510TIP3    H255946   4.919   5.680  11.056  2.2384  1.1104  1.9717
11511TIP3   OH255947   2.456   4.952  16.217  0.2060 -0.3763 -0.1079
11511TIP3    H155948   2.449   4.909  16.132 -2.7857 -0.6673  0.1674
11511TIP3    H255949   2.439   5.045  16.199  3.2859  0.2966 -0.2212
11512TIP3   OH255950   2.602   5.994   1.636 -0.2461 -0.8540  0.0915
11512TIP3    H155951   2.646   5.962   1.715  2.0900  0.7006 -0.4715
11512TIP3    H255952   2.648   5.953   1.564  0.6286  1.1036 -0.5384
11513TIP3   OH255953   2.430   3.683  12.750  0.6907  0.4466  0.5626
11513TIP3    H155954   2.468   3.758  12.796  0.0582  0.8078  0.5064
11513TIP3    H255955   2.410   3.716  12.663  0.1664  0.2910  0.6187
11514TIP3   OH255956   5.884   4.598  15.975 -0.1078  0.3376 -0.1004
11514TIP3    H155957   5.839   4.521  16.009 -0.9986  1.9253  2.6285
11514TIP3    H255958   5.814   4.662  15.961  0.8165  1.3277 -0.3090
11515TIP3   OH255959   3.049   3.168   3.551 -0.3742 -0.4631 -0.4158
11515TIP3    H155960   2.986   3.134   3.613 -0.8050 -1.7257 -1.4935
11515TIP3    H255961   3.000   3.230   3.497 -0.5625 -1.0460 -0.9159
11516TIP3   OH255962   3.142   3.858   3.627  0.7620 -0.5287 -0.0681
11516TIP3    H155963   3.134   3.797   3.700  0.8450 -0.9535 -0.4159
11516TIP3    H255964   3.225   3.903   3.642  0.5022 -0.1939  0.4163
11517TIP3   OH255965   3.690   1.313   2.372 -0.4017 -0.0108 -1.0474
11517TIP3    H155966   3.679   1.220   2.354  0.0423 -0.3884  0.4637
11517TIP3    H255967   3.721   1.350   2.290  2.7379 -1.8272 -0.8436
11518TIP3   OH255968   0.774   6.767   5.031  0.6670  0.4814 -0.2906
11518TIP3    H155969   0.745   6.725   5.112 -0.2165  0.6869 -0.4801
11518TIP3    H255970   0.692   6.797   4.989  0.8628 -1.5070 -2.2991
11519TIP3   OH255971   3.785   0.645   5.113  0.1059  0.6275 -0.4767
11519TIP3    H155972   3.779   0.553   5.140 -2.9851  1.0734  0.8715
11519TIP3    H255973   3.762   0.644   5.020 -0.7181  0.0742 -0.2849
11520TIP3   OH255974   0.532   2.205  10.868  0.0961  0.2300  0.0707
11520TIP3    H155975   0.445   2.208  10.827 -0.1298  1.7640  0.5837
11520TIP3    H255976   0.593   2.195  10.794 -0.4470  0.4781 -0.4178
11521TIP3   OH255977   6.265   3.636   0.969  0.6206 -0.0163  0.6571
11521TIP3    H155978   6.275   3.547   1.001  0.4568 -0.1851  0.2512
11521TIP3    H255979   6.334   3.686   1.013  0.9525 -0.4219  0.6001
11522TIP3   OH255980   2.694   6.212  13.664  0.5756 -0.2729  0.9856
11522TIP3    H155981   2.693   6.155  13.741 -1.6942  0.1112  1.2984
11522TIP3    H255982   2.707   6.300  13.700 -1.8596  0.0847  1.1448
11523TIP3   OH255983   5.215   1.802   2.881  0.5997 -0.0660  0.7468
11523TIP3    H155984   5.297   1.754   2.872  0.1699 -0.7252  0.2119
11523TIP3    H255985   5.184   1.782   2.969 -0.4866 -2.3197 -0.0630
11524TIP3   OH255986   3.073   0.309  13.748  0.1199 -0.3622 -0.3838
11524TIP3    H155987   3.060   0.215  13.758 -1.2282 -0.2307 -0.7716
11524TIP3    H255988   2.986   0.347  13.756  0.5695  0.8040 -0.7855
11525TIP3   OH255989   2.102   1.174  10.989  0.3493 -0.4384 -0.0549
11525TIP3    H155990   2.044   1.162  10.914  0.4384  0.2797 -0.2413
11525TIP3    H255991   2.133   1.264  10.982 -3.1528  1.2834  3.2891
11526TIP3   OH255992   3.840   1.579  15.999  0.0407 -0.2215  0.0555
11526TIP3    H155993   3.919   1.609  16.043 -0.3693  1.2690 -0.1411
11526TIP3    H255994   3.816   1.652  15.942 -2.8715  0.4663  1.9562
11527TIP3   OH255995   4.203   1.271   2.104 -0.6088  0.4776 -0.1924
11527TIP3    H155996   4.164   1.279   2.017 -0.2904 -1.9204 -0.6129
11527TIP3    H255997   4.297   1.269   2.089 -0.5862 -1.3898  0.0148
11528TIP3   OH255998   3.471   2.826   0.368  0.1659  0.1831  0.0209
11528TIP3    H155999   3.479   2.921   0.364  2.3175  0.0850  0.8393
11528TIP3    H256000   3.559   2.795   0.389 -0.5574 -1.9774  0.1167
11529TIP3   OH256001   6.659   3.351  14.482  0.2860 -0.2986  0.3486
11529TIP3    H156002   6.608   3.272  14.502  0.0665 -0.0507  0.7808
11529TIP3    H256003   6.689   3.383  14.567  1.2638 -0.4985  0.0867
11530TIP3   OH256004   5.703   1.192   0.278 -0.0268 -0.2810 -0.0177
11530TIP3    H156005   5.691   1.176   0.184 -1.8903 -2.1237  0.4557
11530TIP3    H256006   5.795   1.171   0.294  0.7076  1.4214 -1.6168
11531TIP3   OH256007   4.488   3.415   3.767  0.2577  0.0357 -0.2148
11531TIP3    H156008   4.469   3.366   3.687  2.7621  1.2960 -1.6860
11531TIP3    H256009   4.538   3.491   3.738  1.1426  0.6165  2.5438
11532TIP3   OH256010   0.130   2.730  15.707  0.5046  0.6608 -0.5912
11532TIP3    H156011   0.123   2.653  15.650 -0.7971  1.0877 -1.0332
11532TIP3    H256012   0.122   2.805  15.648  2.2580  1.1728 -0.2290
11533TIP3   OH256013   0.049   6.653   3.273 -0.2778  0.2625 -0.5071
11533TIP3    H156014   0.135   6.681   3.242  0.4411  0.9858  1.9579
11533TIP3    H256015  -0.008   6.730   3.260  0.5126  1.3035  1.6702
11534TIP3   OH256016   4.066   1.002  14.746 -0.0834  0.2695 -0.2325
11534TIP3    H156017   3.987   0.970  14.702 -2.0868  0.4068  2.9609
11534TIP3    H256018   4.114   0.922  14.766  1.8071  0.2568 -3.8850
11535TIP3   OH256019   0.102   2.733  12.552  0.1848  0.2935 -0.0522
11535TIP3    H156020   0.018   2.705  12.589  1.5628 -1.3609  2.0080
11535TIP3    H256021   0.090   2.827  12.535 -1.6368  0.4112  1.5433
11536TIP3   OH256022   5.262   3.004  14.940  0.3962  0.4227 -0.3708
11536TIP3    H156023   5.238   2.997  15.033  1.0612 -0.3763 -0.2473
11536TIP3    H256024   5.325   3.077  14.937  0.6369  0.2261 -0.1368
11537TIP3   OH256025   1.110   5.179  11.331  0.1208 -0.1070 -0.0265
11537TIP3    H156026   1.159   5.241  11.386  1.7012 -1.0096 -0.3697
11537TIP3    H256027   1.042   5.233  11.291 -0.1339  0.8837  1.6367
11538TIP3   OH256028   2.923   6.696   3.030  0.2307 -0.3308  0.5061
11538TIP3    H156029   2.974   6.701   2.950  0.1697  0.4135  0.5129
11538TIP3    H256030   2.959   6.620   3.077  0.2058 -0.8201 -0.2604
11539TIP3   OH256031   2.426   2.808   3.457 -0.3107  0.4551 -0.1096
11539TIP3    H156032   2.360   2.764   3.511 -0.4687 -0.5906 -1.1079
11539TIP3    H256033   2.500   2.747   3.457  0.5134  1.4309  0.6556
11540TIP3   OH256034   6.137   1.049  15.586 -0.0523 -0.4505 -0.1964
11540TIP3    H156035   6.119   1.136  15.623  1.4524 -0.8113  1.5273
11540TIP3    H256036   6.168   1.067  15.497 -0.6862  0.6858 -0.2190
11541TIP3   OH256037   1.784   5.877   6.674 -0.6672 -0.1429 -1.0075
11541TIP3    H156038   1.706   5.924   6.645 -0.4280 -0.1096 -1.6190
11541TIP3    H256039   1.853   5.944   6.676 -0.5179 -0.2950 -1.0481
11542TIP3   OH256040   2.385   0.189  12.013  0.0331  0.2756  0.4756
11542TIP3    H156041   2.468   0.223  12.046 -0.4396  1.2423  0.7156
11542TIP3    H256042   2.389   0.095  12.030  2.7174 -0.4482 -3.0053
11543TIP3   OH256043   4.219   2.747   6.034  0.1121  0.5260  0.2272
11543TIP3    H156044   4.186   2.679   6.092 -0.8453 -1.1621 -2.1424
11543TIP3    H256045   4.146   2.809   6.026  0.5799  1.2641  1.5051
11544TIP3   OH256046   4.563   4.275  15.209 -0.0739 -0.2984  0.3315
11544TIP3    H156047   4.633   4.320  15.163 -1.3649 -0.3110 -1.7920
11544TIP3    H256048   4.546   4.329  15.286  1.0624  0.6484 -0.0557
11545TIP3   OH256049   5.333   1.268   5.705 -0.1973 -0.3919 -0.0066
11545TIP3    H156050   5.314   1.229   5.790 -0.7749  0.0953  0.0944
11545TIP3    H256051   5.387   1.203   5.660  2.2038  0.3288  1.6271
11546TIP3   OH256052   3.773   6.725   3.249  0.2235  0.4403  0.1910
11546TIP3    H156053   3.801   6.682   3.330 -0.7980 -0.7714 -0.0625
11546TIP3    H256054   3.711   6.792   3.278 -0.9589 -0.6996  0.3627
11547TIP3   OH256055   1.789   5.777  15.552 -0.1699  0.2956 -0.5783
11547TIP3    H156056   1.763   5.829  15.475  1.2458  1.5191 -0.2638
11547TIP3    H256057   1.880   5.801  15.568  0.2470 -1.6090  0.1736
11548TIP3   OH256058   0.956   0.516  16.750  0.0608  0.8523 -1.1692
11548TIP3    H156059   0.917   0.599  16.779  0.3005  0.4947  0.2667
11548TIP3    H256060   1.039   0.512  16.798 -0.0458 -0.3130 -1.0678
11549TIP3   OH256061   2.984   5.375  14.848 -0.9978 -0.4181 -0.7055
11549TIP3    H156062   3.001   5.458  14.893 -0.1846 -0.9566  0.0179
11549TIP3    H256063   3.054   5.317  14.878 -2.7266 -2.0166  0.4834
11550TIP3   OH256064   3.489   3.392   4.280 -0.3847 -0.6276 -0.3140
11550TIP3    H156065   3.585   3.397   4.278 -0.4495  0.8425 -0.0450
11550TIP3    H256066   3.461   3.468   4.330 -1.7082 -0.9611 -0.5122
11551TIP3   OH256067   0.940   6.578   5.675 -0.1195  0.4589  0.8807
11551TIP3    H156068   0.882   6.628   5.617 -0.0394  1.4169  1.6164
11551TIP3    H256069   0.931   6.487   5.645 -2.9415  0.3742  1.7023
11552TIP3   OH256070   6.219   5.358  11.515  0.0914 -0.5859 -0.5510
11552TIP3    H156071   6.141   5.339  11.462 -1.8423  1.2076  1.4521
11552TIP3    H256072   6.238   5.450  11.498  1.3693 -0.8167 -0.4611
11553TIP3   OH256073   2.573   2.581   2.484 -0.1244 -0.5474  0.6710
11553TIP3    H156074   2.648   2.634   2.508 -0.8864  0.5551  0.6589
11553TIP3    H256075   2.504   2.606   2.545 -2.2278  2.5706 -2.5577
11554TIP3   OH256076   2.908   6.736  15.696 -1.0571  0.1232 -0.0100
11554TIP3    H156077   2.890   6.803  15.630  0.5346  1.5346  0.9102
11554TIP3    H256078   2.971   6.677  15.655  0.8586  1.6672  0.5401
11555TIP3   OH256079   2.249   5.610  16.575  0.7043  0.2388 -0.0749
11555TIP3    H156080   2.337   5.646  16.563  1.0974 -0.6058  0.2139
11555TIP3    H256081   2.264   5.518  16.596 -0.2048  0.3154  0.9564
11556TIP3   OH256082   5.867   3.910  12.927 -0.7433 -0.1179  0.2432
11556TIP3    H156083   5.914   3.891  13.009  0.5328  0.6383 -0.2858
11556TIP3    H256084   5.785   3.952  12.956 -0.4412 -0.1234  1.1469
11557TIP3   OH256085   6.410   1.720   3.966 -0.1704  0.1400  0.6488
11557TIP3    H156086   6.426   1.702   4.059 -1.8831 -1.7563  0.6449
11557TIP3    H256087   6.336   1.781   3.966 -1.8537 -1.8192  0.5633
11558TIP3   OH256088   0.409   0.902   1.553 -0.8797 -0.1400  0.6377
11558TIP3    H156089   0.410   0.899   1.458  0.2339  0.5005  0.6134
11558TIP3    H256090   0.340   0.966   1.574  0.0189  0.9962  0.1992
11559TIP3   OH256091   1.984   5.304  10.636  0.3380 -0.2802 -0.5142
11559TIP3    H156092   1.937   5.385  10.616  0.7996  0.0980 -0.0942
11559TIP3    H256093   1.921   5.234  10.617 -0.3844  0.2123  0.0010
11560TIP3   OH256094   6.704   5.523  13.951  0.5968  0.2860 -0.0712
11560TIP3    H156095   6.783   5.474  13.973  0.8091  0.7304  0.1514
11560TIP3    H256096   6.689   5.581  14.026 -1.7491 -2.0191  1.4356
11561TIP3   OH256097   5.973   0.697   4.571 -0.1657 -0.2471  0.1873
11561TIP3    H156098   5.912   0.624   4.585 -0.1733 -0.2607  0.0832
11561TIP3    H256099   5.993   0.728   4.659  0.0973 -0.5926  0.2490
11562TIP3   OH256100   4.446   6.027   3.592 -0.4651  0.5051 -0.7338
11562TIP3    H156101   4.475   6.114   3.619 -0.6499  0.5837 -0.7876
11562TIP3    H256102   4.351   6.029   3.604 -0.5354  0.4991 -1.2721
11563TIP3   OH256103   3.602   5.557   0.579  0.2014  0.2320 -0.2494
11563TIP3    H156104   3.664   5.490   0.550 -0.4135  0.1064 -1.3214
11563TIP3    H256105   3.655   5.617   0.631  0.9374 -0.6136  0.0056
11564TIP3   OH256106   1.418   4.447   3.799  0.5348 -0.1397  0.1645
11564TIP3    H156107   1.487   4.511   3.816 -0.5144  0.9439  0.4147
11564TIP3    H256108   1.363   4.488   3.732 -0.5820 -0.4362  0.8734
11565TIP3   OH256109   4.495   1.900  15.500  0.3190  0.2370 -0.0548
11565TIP3    H156110   4.487   1.993  15.476  1.0511  0.5013  0.6699
11565TIP3    H256111   4.580   1.874  15.465  2.2022  1.0691  3.4255
11566TIP3   OH256112   2.069   6.503  17.195 -0.1998  0.6738  0.0309
11566TIP3    H156113   2.103   6.591  17.181 -1.4863  1.2159  0.2197
11566TIP3    H256114   2.049   6.500  17.289  1.4669 -0.4282  0.3907
11567TIP3   OH256115   2.885   2.181   4.865 -0.0169 -0.2878  0.5809
11567TIP3    H156116   2.803   2.160   4.820 -0.1825  0.2908  0.6002
11567TIP3    H256117   2.859   2.240   4.936  0.5068  0.5501  0.0971
11568TIP3   OH256118   6.773   1.342  13.575  0.0025  0.1734 -0.2193
11568TIP3    H156119   6.813   1.422  13.541  0.7151 -0.5573 -1.2087
11568TIP3    H256120   6.844   1.277  13.571 -0.9780 -0.8966 -0.9700
11569TIP3   OH256121   1.284   2.087   2.585  0.0152  1.1435  0.3115
11569TIP3    H156122   1.238   2.048   2.659 -0.0728 -1.3237 -0.9443
11569TIP3    H256123   1.370   2.045   2.586  0.1570  1.3824 -0.7104
11570TIP3   OH256124   1.468   6.668  10.959  0.1236  0.1775 -0.4247
11570TIP3    H156125   1.454   6.750  10.913 -1.1358  0.2659  0.0720
11570TIP3    H256126   1.545   6.629  10.917 -0.8930  0.3070 -2.5130
11571TIP3   OH256127   0.174   4.406  16.174  0.1042 -0.3329  0.1914
11571TIP3    H156128   0.269   4.414  16.163  0.3942 -1.1461  1.7994
11571TIP3    H256129   0.151   4.471  16.240 -0.3343 -0.6868  0.3940
11572TIP3   OH256130   3.185   4.927   2.611 -0.0135 -0.8004  0.2500
11572TIP3    H156131   3.125   4.989   2.569 -1.6095 -2.2451  0.3030
11572TIP3    H256132   3.272   4.954   2.581 -0.9395 -0.8313 -2.7715
11573TIP3   OH256133   3.820   6.410   2.431  0.0009  0.0308  0.0073
11573TIP3    H156134   3.851   6.383   2.345  0.9872  0.5095  0.2048
11573TIP3    H256135   3.899   6.418   2.484 -0.6539 -1.2584  1.2686
11574TIP3   OH256136   6.344   4.486  12.291 -0.3286 -0.0277 -0.1184
11574TIP3    H156137   6.301   4.513  12.210 -0.6529 -1.9231 -0.6267
11574TIP3    H256138   6.287   4.518  12.361  0.2122  2.0633 -0.5659
11575TIP3   OH256139   2.187   1.530  15.253  0.3401  0.4061  0.0743
11575TIP3    H156140   2.245   1.504  15.182 -0.4766 -1.1304 -0.0948
11575TIP3    H256141   2.237   1.515  15.333  0.4420 -0.1959 -0.0987
11576TIP3   OH256142   0.259   3.692  15.035 -0.0948 -1.1880 -0.4612
11576TIP3    H156143   0.237   3.781  15.009 -0.9341 -1.3706 -0.4100
11576TIP3    H256144   0.336   3.702  15.092  0.3807 -0.5891 -1.1888
11577TIP3   OH256145   1.717   4.361   0.343  0.3192 -0.2119 -0.3644
11577TIP3    H156146   1.702   4.269   0.323  0.6681 -0.0996 -1.1798
11577TIP3    H256147   1.751   4.361   0.433 -0.5323 -0.7953 -0.0362
11578TIP3   OH256148   3.081   2.301  12.934  0.1847  0.1164 -0.1338
11578TIP3    H156149   3.130   2.308  13.016 -0.1979 -0.8053  0.1850
11578TIP3    H256150   3.111   2.375  12.881  0.3016  0.8300  0.9115
11579TIP3   OH256151   3.232   4.469   5.906 -0.3482 -0.0765  0.0603
11579TIP3    H156152   3.212   4.518   5.826 -1.2889 -0.3872  0.0870
11579TIP3    H256153   3.290   4.526   5.956 -0.7941  0.6687 -0.2636
11580TIP3   OH256154   5.522   5.468  16.111 -0.1788  0.3585  0.6552
11580TIP3    H156155   5.510   5.373  16.109  1.3846  0.1081  1.4011
11580TIP3    H256156   5.549   5.491  16.021  0.5431 -0.0944  0.7457
11581TIP3   OH256157   3.598   4.587   5.124  0.1179 -0.0954 -0.6073
11581TIP3    H156158   3.509   4.595   5.159 -0.3190 -2.6505 -0.9348
11581TIP3    H256159   3.587   4.539   5.042  1.9321 -2.4955  0.4338
11582TIP3   OH256160   4.724   0.498  16.354  0.1935 -0.1096 -0.3527
11582TIP3    H156161   4.758   0.477  16.441 -1.4097  0.2773  0.3908
11582TIP3    H256162   4.658   0.565  16.369 -0.3619 -0.2817 -1.8318
11583TIP3   OH256163   6.239   4.954   4.305  0.2931  0.5640 -0.1749
11583TIP3    H156164   6.162   5.002   4.276 -1.5978 -1.2840  1.4733
11583TIP3    H256165   6.245   4.880   4.245 -1.1712 -1.0078  1.5178
11584TIP3   OH256166   4.419   2.560   1.247 -0.0999 -0.1302  0.0479
11584TIP3    H156167   4.499   2.506   1.247 -0.4082 -0.5977  0.7528
11584TIP3    H256168   4.445   2.640   1.202  1.7180  1.0759  2.9938
11585TIP3   OH256169   2.311   1.428   1.016 -0.5007  0.1991 -0.0684
11585TIP3    H156170   2.361   1.508   1.003 -1.3587  0.8907  0.7577
11585TIP3    H256171   2.317   1.382   0.932  1.4519  0.2637 -0.0150
11586TIP3   OH256172   3.940   4.264   4.058 -0.1680 -0.1518  0.0748
11586TIP3    H156173   3.961   4.315   4.136  2.4624 -0.8382 -0.0997
11586TIP3    H256174   4.020   4.266   4.005 -1.0603 -1.7339 -1.4549
11587TIP3   OH256175   4.387   3.271  13.974  0.1160  0.1695  0.5223
11587TIP3    H156176   4.363   3.332  13.904 -1.6097 -2.4438 -1.3589
11587TIP3    H256177   4.319   3.284  14.040 -0.6634 -0.1720 -0.1902
11588TIP3   OH256178   4.587   4.227   5.343 -0.1355 -0.0945 -0.2467
11588TIP3    H156179   4.509   4.269   5.379  0.3393 -0.0354  0.7462
11588TIP3    H256180   4.585   4.138   5.377  0.3018 -0.0509 -0.1004
11589TIP3   OH256181   6.056   4.405   5.615  0.2026  0.4340  0.5236
11589TIP3    H156182   5.966   4.375   5.620  0.2399  0.0032 -1.0231
11589TIP3    H256183   6.053   4.484   5.561  0.6679  0.8139  1.0349
11590TIP3   OH256184   0.885   5.581   2.574 -0.0161 -0.3670 -0.7160
11590TIP3    H156185   0.951   5.634   2.619  0.3450  0.6122 -2.3233
11590TIP3    H256186   0.825   5.555   2.643  1.2613 -0.0903  0.5585
11591TIP3   OH256187   4.535   4.507  16.698  0.4150 -0.2657  0.1719
11591TIP3    H156188   4.512   4.562  16.623 -0.2111  0.6840  1.0256
11591TIP3    H256189   4.532   4.418  16.664 -2.8186 -0.1139 -0.2912
11592TIP3   OH256190   1.735   5.081  16.431  0.2532  0.1309  0.2592
11592TIP3    H156191   1.825   5.053  16.446  0.6600  0.9169 -0.6243
11592TIP3    H256192   1.726   5.080  16.335 -0.2575  1.3258  0.2817
11593TIP3   OH256193   1.735   5.838   4.811 -0.6746  0.5705  0.2282
11593TIP3    H156194   1.803   5.834   4.877 -1.5889  1.7062  1.2871
11593TIP3    H256195   1.772   5.893   4.742  0.2533 -0.5536 -0.1973
11594TIP3   OH256196   1.127   3.616   5.033  0.1162 -1.1810  0.3234
11594TIP3    H156197   1.176   3.534   5.025  0.3267 -1.0801  0.5686
11594TIP3    H256198   1.194   3.683   5.042  0.0995 -0.5872 -2.8228
11595TIP3   OH256199   3.110   3.262   4.614 -0.2618  0.4654  0.6004
11595TIP3    H156200   3.139   3.299   4.531 -0.7341  2.4767  1.2798
11595TIP3    H256201   3.106   3.168   4.598  0.6459  0.7084 -1.3302
11596TIP3   OH256202   2.810   5.582   0.071  0.0953  0.0271  0.6372
11596TIP3    H156203   2.814   5.545   0.160 -2.0155  0.7181  1.0899
11596TIP3    H256204   2.731   5.544   0.033  0.7626  0.0431 -0.8326
11597TIP3   OH256205   3.232   5.616   0.130  0.1699  0.0710 -0.1379
11597TIP3    H156206   3.216   5.709   0.147 -0.3494  0.2962 -1.7587
11597TIP3    H256207   3.296   5.590   0.197 -0.6800  1.2444  1.1884
11598TIP3   OH256208   5.080   2.402  14.078  0.2565 -0.6189  0.0126
11598TIP3    H156209   5.034   2.328  14.038 -0.4257 -0.6380  0.8189
11598TIP3    H256210   5.166   2.367  14.100  0.6018 -0.6486 -1.2882
11599TIP3   OH256211   1.070   6.177  16.437  0.4750 -0.3244 -0.1529
11599TIP3    H156212   1.139   6.136  16.385  0.0356 -0.8680 -0.3176
11599TIP3    H256213   1.008   6.211  16.372  0.3652 -0.2332 -0.0008
11600TIP3   OH256214   5.118   4.304  13.876  0.3235 -0.5107 -0.1562
11600TIP3    H156215   5.200   4.278  13.917  0.8091 -0.4306 -1.0443
11600TIP3    H256216   5.140   4.382  13.825 -0.1384 -0.8950 -0.9666
11601TIP3   OH256217   5.255   1.611   5.372  0.0374 -0.1335  0.6878
11601TIP3    H156218   5.330   1.573   5.327  1.0433  1.7862  0.6408
11601TIP3    H256219   5.182   1.553   5.350  0.7617 -0.0827 -2.2415
11602TIP3   OH256220   0.612   1.424  11.731 -0.5279 -0.2181  0.1219
11602TIP3    H156221   0.558   1.347  11.711  2.2871 -1.9200 -1.6986
11602TIP3    H256222   0.636   1.413  11.823 -0.5040 -1.3352 -0.0012
11603TIP3   OH256223   1.622   3.416  14.004 -0.2361  0.6309  0.6963
11603TIP3    H156224   1.655   3.337  13.961  2.0510  1.3573  0.9830
11603TIP3    H256225   1.592   3.385  14.090 -0.7328 -0.1311  0.2610
11604TIP3   OH256226   1.866   5.632  16.271  0.4324 -0.9164 -0.7476
11604TIP3    H156227   1.866   5.540  16.297 -2.5704 -1.0066 -0.6522
11604TIP3    H256228   1.816   5.634  16.190  0.2616  0.6512 -0.6333
11605TIP3   OH256229   1.343   4.682  12.065  0.7273  0.1999 -0.5322
11605TIP3    H156230   1.318   4.772  12.083  2.4456  0.2311  2.4322
11605TIP3    H256231   1.404   4.688  11.991  0.2796  1.3502 -0.8297
11606TIP3   OH256232   6.646   1.317   4.427 -0.2723  0.1580  0.2849
11606TIP3    H156233   6.606   1.342   4.343  1.0997 -0.4038 -0.5736
11606TIP3    H256234   6.613   1.381   4.490 -0.8204  0.9904 -0.8123
11607TIP3   OH256235   4.881   1.856  12.481 -0.1990  0.3423 -0.0664
11607TIP3    H156236   4.823   1.929  12.505  1.6827  1.8676  0.1020
11607TIP3    H256237   4.968   1.895  12.479  0.8423 -1.8670 -0.3220
11608TIP3   OH256238   4.795   1.540   2.672 -0.0291 -0.4332 -0.1172
11608TIP3    H156239   4.760   1.565   2.758 -0.4895  1.0115 -0.6994
11608TIP3    H256240   4.889   1.530   2.687 -0.1660 -0.6627  0.6548
11609TIP3   OH256241   1.881   1.363  13.385 -0.0884  0.1087  0.6345
11609TIP3    H156242   1.874   1.343  13.478  0.1866 -1.5550  0.3275
11609TIP3    H256243   1.808   1.314  13.345  0.6716 -0.3870 -0.1777
11610TIP3   OH256244   6.265   5.359   4.878 -0.1327  0.5748 -0.4673
11610TIP3    H156245   6.171   5.362   4.891 -0.3105 -0.5849 -1.3385
11610TIP3    H256246   6.301   5.355   4.967 -1.0088 -0.9177 -0.1541
11611TIP3   OH256247   2.345   6.286   0.927 -0.2699 -0.0162 -0.2617
11611TIP3    H156248   2.422   6.271   0.982 -0.2954 -1.8299 -0.6495
11611TIP3    H256249   2.381   6.320   0.845 -0.0024  0.3113 -0.0097
11612TIP3   OH256250   5.273   0.235   6.453 -0.1223 -0.0747 -0.7343
11612TIP3    H156251   5.260   0.330   6.447  1.1719  0.3309  1.7279
11612TIP3    H256252   5.193   0.202   6.492 -0.3683  0.0499 -1.1197
11613TIP3   OH256253   0.730   5.767   0.689 -0.1194 -0.2899  0.4431
11613TIP3    H156254   0.761   5.778   0.599  1.4364  0.9909  1.0797
11613TIP3    H256255   0.719   5.856   0.722  0.5374 -0.7143  1.8920
11614TIP3   OH256256   5.645   3.721   4.523  0.0830  0.4458  0.4728
11614TIP3    H156257   5.650   3.650   4.459  1.8688  1.0572 -0.1472
11614TIP3    H256258   5.692   3.689   4.599 -0.3847  0.4234  0.7535
11615TIP3   OH256259   0.529   2.755   1.106 -0.2697  0.8258  0.4861
11615TIP3    H156260   0.453   2.810   1.129 -0.9823  0.6727 -1.3119
11615TIP3    H256261   0.541   2.770   1.012  0.8228 -0.5433  0.3819
11616TIP3   OH256262   3.856   3.813   0.826 -0.1614 -0.0132 -0.1857
11616TIP3    H156263   3.820   3.849   0.745 -0.1216 -0.4698 -0.4091
11616TIP3    H256264   3.854   3.886   0.888  0.0066  0.4011 -0.6590
11617TIP3   OH256265   1.415   2.633   4.735  0.3422 -0.3572 -0.1548
11617TIP3    H156266   1.391   2.545   4.763 -2.9266  0.6946  0.8526
11617TIP3    H256267   1.399   2.634   4.641 -1.9544 -0.3029  0.1706
11618TIP3   OH256268   5.823   6.686   3.628  0.3316 -0.3006 -0.5516
11618TIP3    H156269   5.742   6.668   3.677 -0.4901 -2.0740 -2.3972
11618TIP3    H256270   5.892   6.681   3.693 -0.9796  1.0681  1.0596
11619TIP3   OH256271   1.172   0.073   3.963  0.3249 -0.1305 -0.1878
11619TIP3    H156272   1.105   0.103   4.023  0.1425 -1.8853  0.5469
11619TIP3    H256273   1.142   0.101   3.876 -1.6151 -1.2680  0.0650
11620TIP3   OH256274   4.842   1.356   3.621 -0.0407  0.1357  0.0914
11620TIP3    H156275   4.914   1.417   3.632 -0.4620  0.9496 -1.3988
11620TIP3    H256276   4.838   1.308   3.704 -0.1733  2.6268  1.6233
11621TIP3   OH256277   4.106   0.192  16.813 -0.3760 -0.3505  0.0591
11621TIP3    H156278   4.160   0.210  16.890 -1.5263  0.8798  0.6128
11621TIP3    H256279   4.108   0.274  16.762 -0.0133 -0.9915 -0.9976
11622TIP3   OH256280   1.525   2.227   6.072  0.2181  0.3093 -0.4900
11622TIP3    H156281   1.616   2.231   6.041  0.4922 -1.8254 -0.1830
11622TIP3    H256282   1.528   2.264   6.160  0.8542  0.0830 -0.4089
11623TIP3   OH256283   6.141   0.602  15.533 -0.2842  0.3726 -0.9483
11623TIP3    H156284   6.128   0.639  15.445  0.9850 -1.5773 -2.0362
11623TIP3    H256285   6.214   0.652  15.569  2.5548 -1.8561 -3.0719
11624TIP3   OH256286   5.952   1.508   4.280  0.0116  0.2292 -0.3344
11624TIP3    H156287   5.868   1.479   4.244 -0.0674  0.0509 -0.0101
11624TIP3    H256288   5.957   1.601   4.258 -1.4253  0.8680  1.8042
11625TIP3   OH256289   0.635   6.236  17.152  0.3424 -0.1440 -0.3741
11625TIP3    H156290   0.679   6.166  17.200  1.6674  0.8544 -0.0752
11625TIP3    H256291   0.655   6.219  17.060 -0.4679 -0.9026 -0.4145
11626TIP3   OH256292   6.147   2.039  14.739  0.5018  0.3126  0.2673
11626TIP3    H156293   6.110   1.951  14.734  1.8271 -0.2512  0.0235
11626TIP3    H256294   6.236   2.026  14.773  1.2887  1.3762 -1.2544
11627TIP3   OH256295   4.555   4.634   2.998 -1.0880 -0.2208 -0.0162
11627TIP3    H156296   4.595   4.550   2.972  0.1336  0.6730 -1.1646
11627TIP3    H256297   4.588   4.697   2.933 -1.5092  1.2682  1.1706
11628TIP3   OH256298   0.875   0.250  12.024  0.2923 -0.5249  0.7491
11628TIP3    H156299   0.862   0.332  11.976  2.4622 -1.6788 -2.0247
11628TIP3    H256300   0.805   0.250  12.090 -0.9925  2.5839 -0.4328
11629TIP3   OH256301   0.394   3.329   0.450 -1.1527  0.6373  0.3955
11629TIP3    H156302   0.360   3.374   0.526  0.4456  1.5699  0.6012
11629TIP3    H256303   0.317   3.312   0.395 -1.9083  2.9626  0.6517
11630TIP3   OH256304   6.624   2.708  14.972  0.5282  0.3955 -0.0429
11630TIP3    H156305   6.662   2.729  14.886  0.1924  1.0997 -0.0267
11630TIP3    H256306   6.670   2.766  15.033 -0.1355  0.8163  0.0637
11631TIP3   OH256307   1.296   0.399  11.509  0.0705 -0.3578  0.3141
11631TIP3    H156308   1.365   0.459  11.485  1.0398 -1.4383  0.3180
11631TIP3    H256309   1.216   0.451  11.506  0.8115  0.7682 -0.2250
11632TIP3   OH256310   6.673   6.116   5.270 -0.1408 -0.3366 -0.3057
11632TIP3    H156311   6.629   6.058   5.208 -0.9668 -0.5241  0.4480
11632TIP3    H256312   6.687   6.063   5.348 -0.6627  0.3877  0.2940
11633TIP3   OH256313   5.992   1.961   2.793  0.1394 -0.1026 -0.1764
11633TIP3    H156314   6.067   1.905   2.816  0.6744  0.8914  0.5592
11633TIP3    H256315   6.021   2.009   2.715  0.4167  0.5496  0.3221
11634TIP3   OH256316   2.183   5.079  10.823  0.4044  0.4959  0.4082
11634TIP3    H156317   2.186   5.125  10.739 -1.5499 -0.5695 -0.3310
11634TIP3    H256318   2.246   5.008  10.813 -1.2742 -0.8879 -1.0440
11635TIP3   OH256319   3.030   2.580  13.391  0.2085  0.2799  0.3360
11635TIP3    H156320   3.094   2.590  13.461  1.2697 -0.9695 -0.4216
11635TIP3    H256321   2.983   2.499  13.412  0.6297 -0.1802 -0.4496
11636TIP3   OH256322   3.892   4.650  15.596 -0.3032 -0.3843 -0.0744
11636TIP3    H156323   3.967   4.628  15.541  0.2460 -0.6415  0.7582
11636TIP3    H256324   3.822   4.594  15.564  0.4385 -1.6837  0.4766
11637TIP3   OH256325   0.632   0.856   2.587 -0.0310  0.0954  0.7525
11637TIP3    H156326   0.559   0.845   2.648  0.3201  2.3449  1.6434
11637TIP3    H256327   0.660   0.946   2.598  0.9204  0.2087 -1.8079
11638TIP3   OH256328   0.977   1.011   1.761 -0.1522 -0.2373 -0.1171
11638TIP3    H156329   1.062   1.015   1.804  0.1090 -1.9051 -0.4207
11638TIP3    H256330   0.974   1.090   1.707 -0.4227  1.8608  2.7422
11639TIP3   OH256331   4.281   1.132   1.708  0.0750  0.1235  0.0846
11639TIP3    H156332   4.311   1.071   1.640  0.5603 -0.4038  0.7561
11639TIP3    H256333   4.271   1.078   1.786  0.0882  0.8255  0.5847
11640TIP3   OH256334   3.003   1.122   5.805  0.3301 -0.6251  0.0017
11640TIP3    H156335   3.089   1.141   5.767  1.1919 -1.7865  1.3049
11640TIP3    H256336   2.962   1.208   5.814  1.5147 -0.0115 -0.2700
11641TIP3   OH256337   4.361   3.108  11.210  0.3147  0.7697 -0.6644
11641TIP3    H156338   4.417   3.073  11.142 -0.7289  1.7661 -2.0929
11641TIP3    H256339   4.287   3.047  11.214 -0.2896  1.4375 -1.4072
11642TIP3   OH256340   2.151   2.024   2.819  0.6087  0.3807 -0.4635
11642TIP3    H156341   2.136   1.956   2.753  1.6604 -0.5760  0.2415
11642TIP3    H256342   2.099   2.098   2.789 -1.1716 -0.9726 -0.8453
11643TIP3   OH256343   2.340   6.782  13.085 -0.4100  0.2784 -0.1631
11643TIP3    H156344   2.337   6.842  13.010  1.3785 -0.1364 -0.6138
11643TIP3    H256345   2.314   6.697  13.049  0.9903 -0.0387 -0.4688
11644TIP3   OH256346   0.193   5.982  15.139 -0.1465  0.6315  0.5265
11644TIP3    H156347   0.179   5.898  15.183 -4.4252  0.6316 -0.4737
11644TIP3    H256348   0.214   5.959  15.049  0.1808  0.6886  0.5840
11645TIP3   OH256349   2.245   5.155   1.138 -0.0237  0.0266  0.4184
11645TIP3    H156350   2.158   5.116   1.141  0.5062 -1.3140 -0.8941
11645TIP3    H256351   2.302   5.085   1.107  1.3678  1.1653  0.3235
11646TIP3   OH256352   3.750   4.738   3.771 -0.5696 -0.0436 -0.1983
11646TIP3    H156353   3.786   4.699   3.851  1.9368  3.0099  0.3600
11646TIP3    H256354   3.820   4.728   3.706 -0.5302  1.8486 -0.5040
11647TIP3   OH256355   1.814   5.168  14.189  0.0934  0.0198 -0.2554
11647TIP3    H156356   1.882   5.224  14.226 -0.7415 -0.3511  1.9474
11647TIP3    H256357   1.815   5.089  14.243 -2.1579  0.0672 -0.0442
11648TIP3   OH256358   0.018   2.269   1.879  0.2060 -0.3151 -0.1892
11648TIP3    H156359  -0.009   2.187   1.922  1.2794 -0.8538 -0.5038
11648TIP3    H256360  -0.053   2.330   1.897 -1.1796 -1.6521 -0.9558
11649TIP3   OH256361   3.876   6.502   2.759  1.0492  0.6691 -0.0526
11649TIP3    H156362   3.804   6.439   2.751 -0.3751  2.1372  0.6565
11649TIP3    H256363   3.859   6.546   2.842  3.1762  0.6096  0.4707
11650TIP3   OH256364   1.105   5.800  11.712 -0.6526 -0.5617 -0.4142
11650TIP3    H156365   1.012   5.808  11.688 -1.5798  0.7141  2.9253
11650TIP3    H256366   1.140   5.888  11.698 -0.1715 -0.8285 -0.8742
11651TIP3   OH256367   2.837   0.080  13.587  0.1727  0.6297  0.1224
11651TIP3    H156368   2.838   0.110  13.496 -2.0375  0.0652 -0.1520
11651TIP3    H256369   2.753   0.109  13.621  1.0016  0.9196  2.0511
11652TIP3   OH256370   1.268   6.056  12.835 -0.6528  0.3290  0.1133
11652TIP3    H156371   1.239   5.985  12.893 -0.6757  0.3422  0.1184
11652TIP3    H256372   1.213   6.131  12.861 -2.2084 -0.2213 -1.3768
11653TIP3   OH256373   6.477   3.464  11.911 -0.4941  0.0616  0.3828
11653TIP3    H156374   6.384   3.485  11.902 -0.1380  3.2472  2.5761
11653TIP3    H256375   6.493   3.399  11.842 -3.6719  1.5675 -2.0782
11654TIP3   OH256376   5.264   5.244  11.230 -0.5853 -0.2088 -0.8452
11654TIP3    H156377   5.267   5.326  11.180 -0.6533 -0.5218 -1.3649
11654TIP3    H256378   5.179   5.206  11.206  0.0649 -1.1348 -1.7220
11655TIP3   OH256379   4.045   5.115  14.845  0.1860 -0.2072  0.1802
11655TIP3    H156380   4.006   5.168  14.776 -0.2103 -0.1817  0.4217
11655TIP3    H256381   4.137   5.106  14.820  0.2582  0.6039  0.1454
11656TIP3   OH256382   0.551   0.580  10.948  0.2073 -0.0074 -0.6419
11656TIP3    H156383   0.500   0.577  11.029  2.2093 -0.2707  0.7041
11656TIP3    H256384   0.542   0.492  10.911 -0.1767 -0.1037 -0.3291
11657TIP3   OH256385   2.599   2.106   4.725  0.0510 -0.2657  0.1806
11657TIP3    H156386   2.519   2.124   4.773 -0.1077 -1.1034  0.2346
11657TIP3    H256387   2.595   2.165   4.649 -0.4583 -0.0857  0.3443
11658TIP3   OH256388   0.827   4.783   4.529 -0.0004 -0.2929 -0.1316
11658TIP3    H156389   0.735   4.771   4.504  0.1784 -1.0734 -0.4169
11658TIP3    H256390   0.866   4.696   4.522  0.2271 -0.4513  2.2696
11659TIP3   OH256391   2.195   4.281  16.137  0.6620  0.1025  0.6578
11659TIP3    H156392   2.219   4.372  16.155 -0.8618  0.7108 -0.1574
11659TIP3    H256393   2.271   4.230  16.165  2.3670  1.7605 -0.6542
11660TIP3   OH256394   0.827   0.710  15.689 -0.0984 -0.4551 -0.5097
11660TIP3    H156395   0.748   0.715  15.635 -0.9822 -0.3859  0.7281
11660TIP3    H256396   0.898   0.733  15.630 -1.1353  0.6915 -1.3848
11661TIP3   OH256397   5.224   5.405   2.614  0.3705  0.2725  0.7427
11661TIP3    H156398   5.300   5.347   2.621 -0.9891 -1.5496  1.1739
11661TIP3    H256399   5.236   5.470   2.684  1.8906  0.5171  0.2925
11662TIP3   OH256400   2.212   3.915  15.757  0.1831 -0.0533 -0.3160
11662TIP3    H156401   2.284   3.862  15.791 -0.8763 -1.2752  0.1339
11662TIP3    H256402   2.180   3.964  15.833 -0.1631 -0.3642 -0.2590
11663TIP3   OH256403   6.379   1.918   1.524  0.3322  0.2095  0.2560
11663TIP3    H156404   6.353   2.000   1.482 -0.4352 -0.1518  0.0021
11663TIP3    H256405   6.473   1.928   1.539  0.4180  0.7932 -0.5459
11664TIP3   OH256406   1.358   3.876   5.082  0.5080 -0.0294 -0.3295
11664TIP3    H156407   1.388   3.888   5.172 -0.1968 -0.8674  0.0257
11664TIP3    H256408   1.429   3.828   5.039  0.4017 -0.5348  0.0565
11665TIP3   OH256409   4.767   2.948   3.938  0.0067 -0.1311 -0.4022
11665TIP3    H156410   4.754   2.855   3.921 -0.0753  0.0909 -1.7172
11665TIP3    H256411   4.808   2.952   4.024  0.0888 -1.3811 -0.3659
11666TIP3   OH256412   1.689   0.442  12.568 -0.4138  0.3079  0.6394
11666TIP3    H156413   1.689   0.387  12.647  1.6194 -2.7384 -1.2758
11666TIP3    H256414   1.781   0.459  12.551 -0.9100  5.0020  1.3240
11667TIP3   OH256415   3.833   5.364   5.750 -0.0286 -0.0969  0.4297
11667TIP3    H156416   3.864   5.449   5.718 -0.4033 -0.1666 -0.1167
11667TIP3    H256417   3.763   5.387   5.812  0.4983  0.0254  0.9864
11668TIP3   OH256418   0.974   6.364  16.201 -0.5212  0.0438 -0.6055
11668TIP3    H156419   0.971   6.296  16.133 -2.3900 -0.0112 -0.5163
11668TIP3    H256420   1.062   6.402  16.193 -0.4827 -0.3502 -2.6750
11669TIP3   OH256421   0.574   1.620   0.519  0.6470 -0.1491 -1.0046
11669TIP3    H156422   0.608   1.531   0.520 -1.0277 -0.8631 -2.0771
11669TIP3    H256423   0.581   1.650   0.610  0.6028 -1.6497 -0.4810
11670TIP3   OH256424   5.232   2.597  12.297  0.2342 -0.3878 -0.3662
11670TIP3    H156425   5.244   2.534  12.368 -2.8268 -0.5670  0.1323
11670TIP3    H256426   5.178   2.666  12.335  3.1061  2.4068 -1.0334
11671TIP3   OH256427   2.545   3.033   4.236 -0.2521  0.1901  0.2508
11671TIP3    H156428   2.511   3.123   4.240 -2.1344 -0.4335 -0.7626
11671TIP3    H256429   2.523   2.995   4.321 -1.4722  0.0392 -0.1111
11672TIP3   OH256430   2.630   6.073   3.461 -0.2461 -0.7508 -0.0448
11672TIP3    H156431   2.668   5.985   3.461  0.9484 -0.2600  0.1280
11672TIP3    H256432   2.632   6.100   3.369 -0.8973 -1.0161 -0.1396
11673TIP3   OH256433   2.216   4.783   3.671 -0.0017 -0.1067 -0.0380
11673TIP3    H156434   2.283   4.734   3.717 -0.6330  0.0139  1.0534
11673TIP3    H256435   2.165   4.825   3.741 -1.9386 -1.1451 -0.7332
11674TIP3   OH256436   3.703   1.741  11.794 -0.4928 -0.6612  0.5788
11674TIP3    H156437   3.744   1.805  11.852  0.5131 -0.3535 -0.4357
11674TIP3    H256438   3.745   1.755  11.709 -1.7412 -1.2708 -0.1699
11675TIP3   OH256439   5.600   6.519  12.371  0.3167 -0.7022 -0.6628
11675TIP3    H156440   5.520   6.489  12.328  0.3629 -1.9136  0.0333
11675TIP3    H256441   5.669   6.465  12.333  0.4927 -1.1021  0.1851
11676TIP3   OH256442   2.857   0.932   4.954 -0.0129  0.0143 -0.3420
11676TIP3    H156443   2.816   0.967   4.875 -0.8985  1.6770  0.7990
11676TIP3    H256444   2.937   0.889   4.923 -0.3946  0.5367 -2.1338
11677TIP3   OH256445   3.954   3.694  13.586  0.4745  0.0651 -0.4920
11677TIP3    H156446   3.886   3.678  13.520  0.0619 -2.1344  0.3590
11677TIP3    H256447   3.918   3.765  13.640 -1.4875 -1.4087  0.2760
11678TIP3   OH256448   6.739   1.839  10.878 -0.5154 -0.0596  0.6698
11678TIP3    H156449   6.751   1.904  10.809 -1.6943 -0.6705 -0.1501
11678TIP3    H256450   6.658   1.865  10.921  0.3671  0.4898  2.0548
11679TIP3   OH256451   6.469   2.143  12.460 -0.5589 -0.3248 -0.1798
11679TIP3    H156452   6.440   2.210  12.522 -0.5936 -0.1101 -0.4257
11679TIP3    H256453   6.560   2.127  12.484 -0.8654 -0.9796  0.5759
11680TIP3   OH256454   5.524   4.985   0.523  0.1770 -0.9390 -0.6697
11680TIP3    H156455   5.497   5.076   0.529 -0.4037 -0.9763 -2.1829
11680TIP3    H256456   5.573   4.979   0.441  0.1034 -2.0077 -0.6590
11681TIP3   OH256457   1.253   1.586  14.211  0.7335  0.2316 -0.2452
11681TIP3    H156458   1.182   1.558  14.153  0.2725  1.2210 -0.1690
11681TIP3    H256459   1.260   1.515  14.275 -0.1999  0.1241 -0.2456
11682TIP3   OH256460   6.632   3.256  12.656 -0.3768 -0.1868  0.2751
11682TIP3    H156461   6.600   3.231  12.569 -1.4207 -0.3780  0.6999
11682TIP3    H256462   6.714   3.207  12.667 -0.9143 -1.1860 -0.0776
11683TIP3   OH256463   1.015   0.488  15.096  0.4371  0.3148  0.0060
11683TIP3    H156464   0.930   0.446  15.109  1.4155 -1.5769  0.6038
11683TIP3    H256465   0.995   0.566  15.044 -1.7415  0.3034  0.7263
11684TIP3   OH256466   1.881   3.105  14.378 -0.1949  0.4127  0.2595
11684TIP3    H156467   1.960   3.140  14.418 -0.7013  0.4949  1.2154
11684TIP3    H256468   1.864   3.023  14.425 -0.1094 -0.1331 -0.6368
11685TIP3   OH256469   0.086   3.342  11.864  0.0454 -0.3845  0.4570
11685TIP3    H156470   0.020   3.278  11.892 -0.5588 -0.5819 -1.2765
11685TIP3    H256471   0.036   3.408  11.815  1.1621 -0.8360 -1.3958
11686TIP3   OH256472   2.831   2.947   2.296  0.3393 -0.4573  0.2472
11686TIP3    H156473   2.762   2.950   2.362  1.5202  1.7550  1.5394
11686TIP3    H256474   2.818   3.027   2.244  0.3096 -1.4234 -1.2847
11687TIP3   OH256475   4.168   5.974  13.171  0.3160  0.1712 -0.3610
11687TIP3    H156476   4.232   5.939  13.232  1.9567  2.2683 -0.7680
11687TIP3    H256477   4.184   5.927  13.089  1.6318  0.9014 -0.5515
11688TIP3   OH256478   5.355   1.218   3.393  0.3696 -0.6292  1.1596
11688TIP3    H156479   5.367   1.312   3.406  0.1135 -0.4685  0.2771
11688TIP3    H256480   5.367   1.180   3.480  1.0348  0.1599  1.4180
11689TIP3   OH256481   5.297   2.268  14.229 -0.1363  0.4327 -0.0841
11689TIP3    H156482   5.370   2.321  14.196  0.0857  1.5693  2.0364
11689TIP3    H256483   5.276   2.307  14.315 -3.6150  0.5346 -0.8129
11690TIP3   OH256484   3.860   6.705   5.627 -0.0339  0.8967 -0.3029
11690TIP3    H156485   3.772   6.676   5.604  0.3924  0.0567 -0.8989
11690TIP3    H256486   3.918   6.642   5.585  0.8311  0.7710  1.0317
11691TIP3   OH256487   4.235   2.228   1.638  0.0998 -0.6948 -0.3942
11691TIP3    H156488   4.262   2.306   1.590  1.9880 -0.6032  0.6973
11691TIP3    H256489   4.169   2.260   1.700  1.1909  0.1777  0.3673
11692TIP3   OH256490   5.504   3.235   3.597 -0.3556 -0.4340 -0.1737
11692TIP3    H156491   5.440   3.174   3.633 -0.4956 -0.0530  0.2352
11692TIP3    H256492   5.522   3.296   3.669  2.2708 -1.9248  0.5491
11693TIP3   OH256493   5.347   0.141   3.440  0.0920 -0.4109  0.3449
11693TIP3    H156494   5.261   0.146   3.398  0.1890  0.9661  0.2571
11693TIP3    H256495   5.392   0.071   3.393 -0.5996 -0.4187 -0.3404
11694TIP3   OH256496   2.901   6.636   2.183  0.0374  0.4967  0.0184
11694TIP3    H156497   2.874   6.728   2.190  1.6804  1.0329 -0.3661
11694TIP3    H256498   2.964   6.634   2.111 -0.9033 -1.1837 -0.8207
11695TIP3   OH256499   2.399   6.442  13.340 -0.1328 -0.2515 -0.8546
11695TIP3    H156500   2.347   6.472  13.265 -1.4241 -0.1315  0.0486
11695TIP3    H256501   2.335   6.400  13.397  0.6299  0.5783  0.6645
11696TIP3   OH256502   2.982   3.528   1.858 -0.0272  0.1592 -0.0172
11696TIP3    H156503   2.991   3.437   1.828  1.3280 -0.1135  1.0993
11696TIP3    H256504   2.916   3.522   1.928  0.8224 -0.1741  0.7765
11697TIP3   OH256505   1.559   0.891   0.812  0.2681 -0.3419 -0.9065
11697TIP3    H156506   1.548   0.973   0.859  0.2145 -1.6383  1.4945
11697TIP3    H256507   1.653   0.888   0.790  0.4906 -0.1328 -0.0126
11698TIP3   OH256508   1.579   1.878  13.255  0.7975 -0.0112 -0.0603
11698TIP3    H156509   1.663   1.880  13.302  0.1017 -1.2418  1.2948
11698TIP3    H256510   1.585   1.801  13.198  1.6765  1.5270 -2.1840
11699TIP3   OH256511   2.354   2.499   5.778 -0.3883 -0.0417  0.0538
11699TIP3    H156512   2.345   2.410   5.745 -1.4100  0.3506 -0.7937
11699TIP3    H256513   2.354   2.490   5.874 -0.5489 -0.9423 -0.0258
11700TIP3   OH256514   1.100   3.191  15.699 -0.3779 -0.2145 -0.2126
11700TIP3    H156515   1.120   3.256  15.631 -0.3313  1.0669  0.9841
11700TIP3    H256516   1.054   3.240  15.766  3.0846 -0.3962  2.6084
11701TIP3   OH256517   6.674   2.025  14.144 -0.0313  0.1965  0.5857
11701TIP3    H156518   6.763   1.995  14.126 -0.6025  0.1348 -2.7812
11701TIP3    H256519   6.618   1.948  14.127 -0.8795  0.8771  0.1870
11702TIP3   OH256520   3.207   3.167  16.445 -0.6481  0.2425  0.3818
11702TIP3    H156521   3.246   3.175  16.532  1.3515 -1.3242 -0.2767
11702TIP3    H256522   3.124   3.123  16.459 -1.2484  1.7111  1.6459
11703TIP3   OH256523   4.445   2.437   5.451 -0.4029 -0.0225 -0.0719
11703TIP3    H156524   4.418   2.504   5.514 -0.4941  0.2133 -0.3619
11703TIP3    H256525   4.371   2.377   5.446  1.5516 -3.3635  4.3884
11704TIP3   OH256526   0.209   3.282   2.386  0.3067 -0.0697  0.3500
11704TIP3    H156527   0.176   3.330   2.462 -1.6128 -0.1071 -0.4060
11704TIP3    H256528   0.133   3.237   2.350  1.0574  0.2115 -1.7929
11705TIP3   OH256529   0.003   4.096  13.200 -0.6255 -0.6553  0.6966
11705TIP3    H156530  -0.053   4.028  13.236 -3.3944  1.4533  0.6648
11705TIP3    H256531   0.009   4.075  13.106 -2.7439 -0.1236  0.3859
11706TIP3   OH256532   0.428   2.669   5.467  0.3269 -0.3117 -0.4005
11706TIP3    H156533   0.342   2.659   5.506  1.1833 -1.6688  1.2744
11706TIP3    H256534   0.456   2.757   5.491 -0.3277 -0.0890 -0.4486
11707TIP3   OH256535   4.105   5.542  11.715 -0.2533  0.0250  0.4858
11707TIP3    H156536   4.097   5.447  11.724  1.2067 -0.1496  0.1459
11707TIP3    H256537   4.168   5.554  11.644 -1.4061  1.2742 -0.3902
11708TIP3   OH256538   1.168   2.171  14.506 -0.3034  0.3249 -0.4870
11708TIP3    H156539   1.203   2.250  14.463  0.8737  1.1526  1.8315
11708TIP3    H256540   1.076   2.192  14.523  0.1012  1.4120  0.4929
11709TIP3   OH256541   6.625   6.092   6.632  0.8247  0.0389 -0.1145
11709TIP3    H156542   6.689   6.153   6.667  0.8316  0.5390 -0.9705
11709TIP3    H256543   6.673   6.010   6.621  1.1401  0.2257 -0.1217
11710TIP3   OH256544   5.563   1.983  12.891  0.3858 -0.2131  0.2005
11710TIP3    H156545   5.598   1.915  12.833 -0.2650  0.7458 -1.3799
11710TIP3    H256546   5.639   2.010  12.944  1.0726 -0.9025 -0.4031
11711TIP3   OH256547   5.434   4.620  13.372  0.2693  0.0432 -0.3598
11711TIP3    H156548   5.438   4.525  13.375  0.0066  0.0065 -1.0300
11711TIP3    H256549   5.344   4.640  13.345  0.6467  0.4499 -1.3494
11712TIP3   OH256550   0.379   6.269  15.466 -0.3432 -0.6474  0.0274
11712TIP3    H156551   0.442   6.212  15.510 -1.4179 -0.8801  1.3445
11712TIP3    H256552   0.370   6.233  15.378 -0.0404 -1.7427  0.4346
11713TIP3   OH256553   0.746   5.254  14.997 -0.4281 -0.0427  0.7375
11713TIP3    H156554   0.761   5.342  14.963 -1.0560 -0.0245  0.5024
11713TIP3    H256555   0.784   5.256  15.085 -0.8685  0.6123  0.9200
11714TIP3   OH256556   0.942   3.321  13.042 -0.3426 -0.2581  0.5112
11714TIP3    H156557   0.867   3.378  13.029 -0.2125  0.2749  1.9735
11714TIP3    H256558   0.923   3.274  13.123  1.1219  0.3089  1.2262
11715TIP3   OH256559   3.381   1.229   3.677  0.0236  0.1998 -0.6734
11715TIP3    H156560   3.408   1.233   3.585  0.6149  2.6937 -0.4728
11715TIP3    H256561   3.445   1.171   3.718  0.9142  0.5566 -1.4997
11716TIP3   OH256562   1.045   6.254   3.932 -0.3629 -0.0716 -0.0155
11716TIP3    H156563   0.968   6.223   3.979  0.0215 -0.0014  0.6798
11716TIP3    H256564   1.119   6.216   3.980  0.3219  4.0709  2.7069
11717TIP3   OH256565   0.076   6.199  11.172  0.4462  0.0944 -0.3450
11717TIP3    H156566   0.088   6.262  11.243 -3.6640 -0.5858  1.2357
11717TIP3    H256567   0.136   6.127  11.193 -0.5097  0.0074  2.4728
11718TIP3   OH256568   0.136   1.675  10.998 -0.1747 -0.0244 -0.0810
11718TIP3    H156569   0.115   1.705  10.910  0.6700 -0.5260 -0.4688
11718TIP3    H256570   0.100   1.742  11.056  1.4819  1.6478 -0.8967
11719TIP3   OH256571   5.295   3.620   0.666  0.1912 -0.4586 -0.1786
11719TIP3    H156572   5.310   3.658   0.753 -0.2319  0.2971 -0.4334
11719TIP3    H256573   5.380   3.623   0.623 -0.3974  3.4017 -1.4634
11720TIP3   OH256574   2.581   3.543   0.324  0.4440 -0.4052 -0.6460
11720TIP3    H156575   2.522   3.617   0.308  1.8093  0.6912 -0.7441
11720TIP3    H256576   2.653   3.555   0.263  0.8985 -1.6041 -0.3797
11721TIP3   OH256577   4.423   6.722   2.165 -0.7230 -0.1072 -0.2738
11721TIP3    H156578   4.473   6.769   2.098 -2.7203  1.9030 -0.4876
11721TIP3    H256579   4.336   6.709   2.125 -1.4482 -0.3833  1.3097
11722TIP3   OH256580   4.719   4.469  16.905  0.8353 -0.1860 -0.1541
11722TIP3    H156581   4.688   4.396  16.960  2.6371 -1.0023 -0.1559
11722TIP3    H256582   4.644   4.489  16.849 -0.2008 -1.0432  0.8506
11723TIP3   OH256583   5.504   1.673   4.781 -0.6844 -0.4787 -0.0274
11723TIP3    H156584   5.477   1.641   4.695 -0.6002  0.8014 -0.5562
11723TIP3    H256585   5.438   1.639   4.841  0.1588 -2.7955 -0.3027
11724TIP3   OH256586   3.815   0.780  15.748  0.2232  0.0434  0.1685
11724TIP3    H156587   3.805   0.795  15.842 -0.3242 -0.8027  0.2486
11724TIP3    H256588   3.841   0.866  15.713 -1.8027  0.9593  0.7525
11725TIP3   OH256589   3.107   1.800  14.193  0.0711 -0.0942  0.1242
11725TIP3    H156590   3.113   1.768  14.103  0.0272 -2.1957  0.7974
11725TIP3    H256591   3.191   1.844  14.209 -0.0437  0.5667 -1.0183
11726TIP3   OH256592   1.986   3.236  13.964 -0.4761 -0.2034  0.5396
11726TIP3    H156593   1.994   3.289  14.044  0.4410 -1.6669  1.4698
11726TIP3    H256594   2.023   3.291  13.896 -0.7810  0.8766  1.2186
11727TIP3   OH256595   2.718   1.559   5.397  1.0367  0.0688 -0.2701
11727TIP3    H156596   2.741   1.480   5.348  1.3918  0.4623 -0.7526
11727TIP3    H256597   2.675   1.615   5.333  0.1835  0.0041  0.2345
11728TIP3   OH256598   0.289   5.876   5.541 -0.2819 -0.3296 -0.0648
11728TIP3    H156599   0.312   5.909   5.628 -0.4590 -1.4132  0.4021
11728TIP3    H256600   0.284   5.781   5.551 -0.5218 -0.4572 -1.2113
11729TIP3   OH256601   2.143   5.608   4.996 -0.3658 -0.1887  0.3571
11729TIP3    H156602   2.174   5.519   4.981 -2.0294 -0.3731 -2.7379
11729TIP3    H256603   2.189   5.661   4.930  0.7754  1.3624  2.2890
11730TIP3   OH256604   0.739   5.163  14.038 -0.5591 -0.3017 -0.0751
11730TIP3    H156605   0.667   5.223  14.060  1.1656  1.2538  1.7523
11730TIP3    H256606   0.734   5.154  13.943 -2.0059  1.3078 -0.2031
11731TIP3   OH256607   1.791   0.244  12.249  0.3995  0.8098 -0.9188
11731TIP3    H156608   1.793   0.166  12.194 -0.1766 -0.1539  0.3708
11731TIP3    H256609   1.724   0.226  12.314 -0.0554  2.5838 -0.8427
11732TIP3   OH256610   4.345   5.861  13.352  0.0609  0.5022  0.7498
11732TIP3    H156611   4.396   5.802  13.296  2.0800  1.9457  0.9548
11732TIP3    H256612   4.309   5.804  13.420  1.8547 -0.5655  0.8812
11733TIP3   OH256613   6.776   1.325   0.771 -0.3109 -0.3405  0.0562
11733TIP3    H156614   6.708   1.258   0.777  0.2527 -1.0493 -1.1604
11733TIP3    H256615   6.742   1.388   0.707 -0.6945  0.3923  0.9552
11734TIP3   OH256616   5.978   5.105   1.815 -0.0561 -0.0629 -0.2831
11734TIP3    H156617   5.943   5.126   1.729 -1.7429 -0.2336  0.3375
11734TIP3    H256618   5.921   5.036   1.848  0.2911  0.3163  1.1698
11735TIP3   OH256619   2.500   3.759  10.929 -0.2410  0.0386  0.2287
11735TIP3    H156620   2.512   3.845  10.968 -1.3095  0.6925 -0.8361
11735TIP3    H256621   2.467   3.776  10.841 -0.5821 -1.4634  0.0293
11736TIP3   OH256622   1.924   2.700  16.471 -0.0067  0.2081 -0.8204
11736TIP3    H156623   1.899   2.764  16.538  1.5912  1.0722 -1.0161
11736TIP3    H256624   2.015   2.680  16.489  0.1822 -0.2743 -2.1778
11737TIP3   OH256625   4.503   0.397  14.577  0.3963  0.2576  0.6088
11737TIP3    H156626   4.548   0.380  14.494  0.9044  1.8126  0.5494
11737TIP3    H256627   4.422   0.442  14.552  0.0111 -0.2562  0.9015
11738TIP3   OH256628   0.060   6.173  14.229  0.7709  0.7609  0.0586
11738TIP3    H156629   0.092   6.207  14.313  0.4907  0.4115  0.3081
11738TIP3    H256630  -0.016   6.227  14.209  0.0226 -0.0326  0.7049
11739TIP3   OH256631   2.577   0.622  11.067  0.5756 -0.9669 -0.4122
11739TIP3    H156632   2.617   0.674  10.998 -0.6270 -1.2924 -1.3754
11739TIP3    H256633   2.492   0.595  11.032 -0.1832 -0.9325  1.2840
11740TIP3   OH256634   5.635   3.634  11.327  0.1383  0.0818 -0.7878
11740TIP3    H156635   5.591   3.705  11.375  1.4450  0.8931 -0.7515
11740TIP3    H256636   5.679   3.678  11.255  2.7795 -0.3352  0.4664
11741TIP3   OH256637   6.112   0.830   4.024 -0.4467 -0.0616  0.6107
11741TIP3    H156638   6.093   0.922   4.002  0.0105 -0.4486 -1.6180
11741TIP3    H256639   6.207   0.822   4.017 -0.4494 -0.6276  1.1382
11742TIP3   OH256640   1.600   6.277  15.808  0.0730  0.0841  0.6319
11742TIP3    H156641   1.523   6.301  15.757  1.2670 -0.4370 -1.5321
11742TIP3    H256642   1.648   6.359  15.818  0.3650  0.0043 -0.0575
11743TIP3   OH256643   3.548   3.057  16.770  0.0916  0.6849  0.0993
11743TIP3    H156644   3.614   3.116  16.806 -0.0035  1.2582 -0.6441
11743TIP3    H256645   3.501   3.110  16.705 -0.1776 -0.1301 -0.3796
11744TIP3   OH256646   3.566   2.471  14.599  0.5531 -0.3948  0.3590
11744TIP3    H156647   3.553   2.439  14.510  0.4078  0.7441 -0.0525
11744TIP3    H256648   3.489   2.441  14.648 -0.8029  1.3272 -0.6087
11745TIP3   OH256649   5.505   3.462   2.849  0.1494 -0.4272 -0.2850
11745TIP3    H156650   5.543   3.513   2.777 -0.1453 -0.5429 -0.5230
11745TIP3    H256651   5.507   3.372   2.818  0.9815 -0.6046  0.2722
11746TIP3   OH256652   3.426   1.874  13.912 -0.2741 -0.2932 -0.1476
11746TIP3    H156653   3.419   1.911  13.823 -1.0870  0.5951  0.2594
11746TIP3    H256654   3.502   1.918  13.950 -2.0166  2.1509  0.8090
11747TIP3   OH256655   5.612   3.218   5.045 -0.5575  0.3471  0.8355
11747TIP3    H156656   5.565   3.301   5.049  0.3205  0.8502  0.9331
11747TIP3    H256657   5.620   3.201   4.951  0.5600  1.1447  0.7649
11748TIP3   OH256658   4.221   5.057   6.476 -0.3363  0.6038  0.0705
11748TIP3    H156659   4.295   5.117   6.486  0.0267 -0.1050  2.1839
11748TIP3    H256660   4.249   4.977   6.521 -1.9741 -0.0575 -0.0079
11749TIP3   OH256661   2.644   1.246   1.051  0.2883 -0.0122  0.3935
11749TIP3    H156662   2.697   1.299   1.110  0.8457 -0.8382  0.6557
11749TIP3    H256663   2.627   1.303   0.976  2.3316  0.0001 -0.1183
11750TIP3   OH256664   2.906   6.319  12.258  0.3968  0.2671 -0.0024
11750TIP3    H156665   2.876   6.409  12.255  0.1704  0.1845 -2.0600
11750TIP3    H256666   2.857   6.275  12.188  1.9768 -0.9617 -0.4052
11751TIP3   OH256667   1.659   4.252   1.320 -0.5189  0.1262  0.2890
11751TIP3    H156668   1.627   4.162   1.326  1.4813 -0.8547 -1.8461
11751TIP3    H256669   1.698   4.257   1.233  1.2283  2.4382  1.1004
11752TIP3   OH256670   1.672   2.042  16.616 -0.0817 -0.0087 -0.3753
11752TIP3    H156671   1.639   2.021  16.704  0.1277  1.7836  0.1716
11752TIP3    H256672   1.673   2.138  16.613 -0.2935 -0.0312 -2.4293
11753TIP3   OH256673   6.448   4.813   2.545 -0.3877 -0.0961  0.8260
11753TIP3    H156674   6.431   4.722   2.570 -0.0650 -0.5887 -0.6573
11753TIP3    H256675   6.364   4.844   2.510  0.1957 -0.7403 -1.2604
11754TIP3   OH256676   5.882   0.110  16.142  0.5091  0.6152  0.0585
11754TIP3    H156677   5.868   0.088  16.050 -1.9997 -1.5970  0.8136
11754TIP3    H256678   5.936   0.039  16.176 -0.3465  0.2375  0.6878
11755TIP3   OH256679   2.450   1.538  10.743  0.3908 -0.3325 -0.3533
11755TIP3    H156680   2.522   1.586  10.783 -1.2419  0.8408  1.3734
11755TIP3    H256681   2.467   1.446  10.765 -0.2482  0.2135  2.9525
11756TIP3   OH256682   3.931   3.507   4.931 -0.5552 -0.2350 -0.6551
11756TIP3    H156683   3.937   3.598   4.903 -1.3050 -0.3646 -1.2781
11756TIP3    H256684   3.871   3.507   5.005 -1.9298 -0.4126 -1.7166
11757TIP3   OH256685   6.258   1.938  12.997  0.2185 -0.9815  0.5630
11757TIP3    H156686   6.277   1.910  13.087  2.2348 -2.3567 -0.2348
11757TIP3    H256687   6.279   2.032  12.997 -0.4784 -0.7975  1.6676
11758TIP3   OH256688   4.842   2.913   2.709  0.4099  0.2017  0.0919
11758TIP3    H156689   4.869   2.902   2.618  2.0960  0.1133  0.5621
11758TIP3    H256690   4.828   3.008   2.718 -1.4179  0.0360 -0.6590
11759TIP3   OH256691   6.620   6.369   0.165  0.3645 -0.2126  0.1934
11759TIP3    H156692   6.572   6.327   0.236 -1.8708 -1.2520 -1.7900
11759TIP3    H256693   6.560   6.434   0.129  2.6152  2.6314  1.1532
11760TIP3   OH256694   5.149   5.604  12.593  0.5597 -0.4660  0.1422
11760TIP3    H156695   5.120   5.644  12.675  1.4824  0.7468 -0.0921
11760TIP3    H256696   5.124   5.512  12.601  0.6957 -0.3837  1.8077
11761TIP3   OH256697   4.797   2.438   5.531  0.1720  0.5407 -0.0515
11761TIP3    H156698   4.711   2.413   5.499 -1.0519  2.2463  1.6338
11761TIP3    H256699   4.813   2.381   5.606  1.4179 -1.0147 -1.4081
11762TIP3   OH256700   2.680   4.834   5.401 -0.0814 -0.1659 -0.0301
11762TIP3    H156701   2.728   4.774   5.344  0.8304 -0.0232  0.5732
11762TIP3    H256702   2.594   4.842   5.360  0.0107 -1.3557 -0.4902
11763TIP3   OH256703   1.367   5.752   2.722 -0.2557  0.4828  0.1001
11763TIP3    H156704   1.398   5.692   2.789  1.9741  2.2589  0.7968
11763TIP3    H256705   1.398   5.838   2.751  0.8156  1.3395 -3.1606
11764TIP3   OH256706   3.018   0.210  16.491  0.0353 -0.2484 -0.0654
11764TIP3    H156707   2.990   0.176  16.406 -0.0000 -0.8524  0.1785
11764TIP3    H256708   3.105   0.173  16.504  0.9935  1.6591 -0.8377
11765TIP3   OH256709   2.582   5.547   3.335 -0.1918 -0.1961  0.3878
11765TIP3    H156710   2.543   5.460   3.341 -2.5244  0.7799  0.2371
11765TIP3    H256711   2.576   5.570   3.243  0.7843 -0.0097  0.3593
11766TIP3   OH256712   4.273   5.417   5.696  0.0511 -0.0186 -0.1003
11766TIP3    H156713   4.304   5.397   5.784 -2.0828 -3.1703  0.0896
11766TIP3    H256714   4.230   5.502   5.704 -1.9273 -1.1135  2.5179
11767TIP3   OH256715   0.213   2.652   5.927  0.4201 -0.8434  0.2950
11767TIP3    H156716   0.235   2.598   6.003  2.4813  0.3147  0.5728
11767TIP3    H256717   0.290   2.706   5.912 -0.0515 -0.7737 -2.4223
11768TIP3   OH256718   0.167   0.121   1.060 -0.0242 -0.1102 -0.2004
11768TIP3    H156719   0.258   0.138   1.037 -0.4916 -0.8330 -2.9483
11768TIP3    H256720   0.169   0.038   1.108  0.8189  0.2982  0.4975
11769TIP3   OH256721   3.078   4.096   0.686  0.1532  0.1914  0.4358
11769TIP3    H156722   3.083   4.041   0.765 -0.5463  0.3040  0.5658
11769TIP3    H256723   3.035   4.176   0.716 -0.4067  0.1091 -0.1194
11770TIP3   OH256724   0.888   5.294   0.660  0.3734 -0.4155  0.7404
11770TIP3    H156725   0.835   5.360   0.704  3.1579  1.1612  1.9333
11770TIP3    H256726   0.918   5.236   0.730  1.9076 -0.0298  0.4369
11771TIP3   OH256727   4.926   2.383  15.267  0.0226  0.4547 -0.3186
11771TIP3    H156728   4.882   2.464  15.243 -3.3821 -1.2710 -0.5361
11771TIP3    H256729   4.995   2.410  15.328 -0.7220  3.4965 -0.6676
11772TIP3   OH256730   6.781   0.064  15.609 -0.3077  0.3914  1.1052
11772TIP3    H156731   6.708   0.057  15.548 -0.9664 -0.5284  1.9437
11772TIP3    H256732   6.800   0.157  15.614 -0.7269  0.5451  0.0802
11773TIP3   OH256733   2.652   5.394   0.854 -0.2355 -0.0778  0.1829
11773TIP3    H156734   2.640   5.323   0.792  1.2963  0.2099 -0.4883
11773TIP3    H256735   2.747   5.403   0.862 -0.4068  0.9037  1.4038
11774TIP3   OH256736   6.103   2.707  15.116 -0.1197 -0.6007  0.4963
11774TIP3    H156737   6.030   2.715  15.178  2.1846 -0.9779  3.4488
11774TIP3    H256738   6.114   2.613  15.103 -0.2442 -0.5385 -0.0895
11775TIP3   OH256739   1.379   0.956  13.202  0.2761  0.1864  0.2126
11775TIP3    H156740   1.375   1.016  13.128 -2.2500  0.4120  0.4522
11775TIP3    H256741   1.452   0.897  13.182 -0.6170 -0.0695 -2.7060
11776TIP3   OH256742   2.836   5.470   1.714 -0.1821  0.0193  0.1811
11776TIP3    H156743   2.850   5.470   1.809  3.1878  0.4377 -0.2101
11776TIP3    H256744   2.851   5.380   1.687  0.4607  0.2101 -0.1177
11777TIP3   OH256745   3.295   2.746   2.353  0.0436 -0.1530 -0.2731
11777TIP3    H156746   3.219   2.799   2.376 -0.0061 -0.3640  0.0585
11777TIP3    H256747   3.266   2.655   2.366  0.7775 -0.1996  1.2430
11778TIP3   OH256748   2.555   3.804   2.080 -0.2939 -0.2998 -0.5472
11778TIP3    H156749   2.540   3.832   2.170  1.1058 -2.3849  0.4071
11778TIP3    H256750   2.637   3.847   2.055 -0.9822  0.7468 -1.0789
11779TIP3   OH256751   4.384   5.204  15.391  0.2292 -0.1126 -0.5725
11779TIP3    H156752   4.293   5.208  15.422 -0.2981  1.4248 -2.1630
11779TIP3    H256753   4.414   5.295  15.392  0.8670 -0.2577 -2.5198
11780TIP3   OH256754   4.573   3.309  10.929  0.5121 -0.0762  0.0849
11780TIP3    H156755   4.488   3.336  10.895  0.6263 -2.8023 -2.8152
11780TIP3    H256756   4.632   3.380  10.905 -0.3462  0.3136 -0.9716
11781TIP3   OH256757   0.975   6.234   4.494  0.3807 -0.3920 -0.3361
11781TIP3    H156758   0.954   6.265   4.406 -0.3006  0.1283 -0.0041
11781TIP3    H256759   0.910   6.277   4.550 -0.8291 -2.6470  0.1170
11782TIP3   OH256760   0.361   3.854   2.509  0.0791  0.2827 -0.2261
11782TIP3    H156761   0.308   3.930   2.534 -1.6356 -1.5442  2.1901
11782TIP3    H256762   0.399   3.823   2.592  3.1921  0.1317 -1.5521
11783TIP3   OH256763   3.159   5.732  10.926 -0.0280  0.1582 -0.2071
11783TIP3    H156764   3.227   5.668  10.906 -0.1646  0.1634 -0.6953
11783TIP3    H256765   3.183   5.809  10.874  0.6185  0.8203  1.0306
11784TIP3   OH256766   3.547   1.311  16.806  0.1764 -0.1150 -0.7941
11784TIP3    H156767   3.564   1.340  16.716 -1.9253  0.8404 -0.9423
11784TIP3    H256768   3.564   1.389  16.860 -1.5665  0.2745 -0.7470
11785TIP3   OH256769   1.902   0.764   4.631 -0.5139  0.7236  0.2470
11785TIP3    H156770   1.882   0.751   4.724 -0.3140  1.3435  0.3782
11785TIP3    H256771   1.997   0.772   4.627 -0.3161 -1.3423 -0.2778
11786TIP3   OH256772   0.939   3.712  12.804  0.0462  0.0582 -0.3458
11786TIP3    H156773   0.909   3.796  12.840 -0.8140  0.0908 -1.0952
11786TIP3    H256774   1.024   3.733  12.764 -0.9520  1.0270 -2.0947
11787TIP3   OH256775   1.506   0.913   3.804  0.5733  1.0437 -0.0461
11787TIP3    H156776   1.472   0.970   3.873  1.9684  0.2837  1.3259
11787TIP3    H256777   1.431   0.859   3.778 -0.4554  2.6264 -0.5149
11788TIP3   OH256778   1.625   5.996  13.952 -0.1265  0.1517  0.5578
11788TIP3    H156779   1.532   5.978  13.961 -0.4529  0.5474 -1.5013
11788TIP3    H256780   1.637   6.017  13.859  1.9492  0.4896  0.8412
11789TIP3   OH256781   6.129   4.108   1.422  0.6969  0.0097  0.2178
11789TIP3    H156782   6.052   4.056   1.445  0.8332  0.5650  2.1767
11789TIP3    H256783   6.147   4.160   1.501  1.9913  1.2473 -0.8276
11790TIP3   OH256784   1.146   6.039   4.416  0.0469 -0.3108 -0.0138
11790TIP3    H156785   1.097   5.966   4.454 -1.3556  0.1122 -0.9341
11790TIP3    H256786   1.097   6.117   4.442  1.5709  0.3520  1.0290
11791TIP3   OH256787   2.201   1.551   1.934 -0.4714  0.7886  0.0701
11791TIP3    H156788   2.170   1.619   1.993 -1.3436  0.0688  0.4690
11791TIP3    H256789   2.125   1.495   1.920  0.6190 -1.0972  1.1718
11792TIP3   OH256790   4.594   3.435  17.196  0.7068 -0.2930  0.2254
11792TIP3    H156791   4.549   3.519  17.191 -0.0697 -0.6985  0.3066
11792TIP3    H256792   4.614   3.413  17.105  2.8276  0.9739  0.3264
11793TIP3   OH256793   3.296   5.588   4.542  0.0920 -0.3242 -0.0496
11793TIP3    H156794   3.391   5.604   4.545 -0.2403  1.6207  1.7992
11793TIP3    H256795   3.280   5.528   4.615  0.0822 -2.0827 -1.4369
11794TIP3   OH256796   0.786   1.797   4.772 -0.1727 -0.0798  0.0832
11794TIP3    H156797   0.694   1.771   4.763 -1.2013  2.3861  2.2565
11794TIP3    H256798   0.798   1.863   4.703 -0.4237  0.4617  0.5483
11795TIP3   OH256799   1.373   0.097   4.934  0.2405  0.1072  0.9212
11795TIP3    H156800   1.298   0.076   4.990  0.8797 -0.9605  1.4213
11795TIP3    H256801   1.366   0.191   4.918 -1.5858 -0.0764  0.3661
11796TIP3   OH256802   3.471   2.578  12.713  0.1681 -0.0794 -0.5370
11796TIP3    H156803   3.419   2.586  12.633  0.4434  0.0722 -0.7038
11796TIP3    H256804   3.446   2.654  12.765  0.5349  0.2308 -0.8036
11797TIP3   OH256805   3.988   2.767   3.163  0.6299 -0.5650  0.3201
11797TIP3    H156806   3.932   2.737   3.092  0.8676  1.6122 -0.8915
11797TIP3    H256807   3.947   2.733   3.242 -1.6241 -0.2305 -0.6175
11798TIP3   OH256808   2.182   0.724  14.864 -0.2681 -0.3322 -0.3721
11798TIP3    H156809   2.147   0.757  14.781  0.1277  1.0318 -0.0307
11798TIP3    H256810   2.218   0.802  14.906 -0.2341 -1.0574  0.9689
11799TIP3   OH256811   6.386   4.138   3.967 -0.0866 -0.2203 -0.0259
11799TIP3    H156812   6.414   4.162   4.056 -1.1419 -0.5068  0.4010
11799TIP3    H256813   6.450   4.180   3.910  2.3305 -2.3565  0.9153
11800TIP3   OH256814   6.720   3.021   4.305 -0.2622  0.0244 -0.4766
11800TIP3    H156815   6.685   3.058   4.224  0.0919  0.2351 -0.5320
11800TIP3    H256816   6.660   3.052   4.373 -0.3604  0.1333 -0.6122
11801TIP3   OH256817   0.373   4.906   4.181  0.6253  0.1380 -0.1520
11801TIP3    H156818   0.287   4.922   4.220  0.9330  0.2606  0.4760
11801TIP3    H256819   0.403   4.824   4.221  0.2749 -0.5669 -1.2819
11802TIP3   OH256820   4.166   4.406  13.951  0.4349  0.4317 -0.0041
11802TIP3    H156821   4.215   4.418  14.033  1.4035 -0.2487 -0.4662
11802TIP3    H256822   4.198   4.323  13.916 -2.0615 -0.7807  0.3603
11803TIP3   OH256823   1.514   4.857   3.539 -0.1507 -0.2943 -0.0970
11803TIP3    H156824   1.426   4.839   3.508 -0.1051 -1.4367  0.3861
11803TIP3    H256825   1.502   4.917   3.612 -0.2966  1.9744 -1.8627
11804TIP3   OH256826   1.615   3.284   3.780  0.9054  0.0713  0.4403
11804TIP3    H156827   1.587   3.344   3.849  2.2025  0.3134  0.7653
11804TIP3    H256828   1.709   3.298   3.771  0.8469 -0.2705 -1.0863
11805TIP3   OH256829   1.182   2.462   4.798 -0.5220 -0.7458  0.9906
11805TIP3    H156830   1.169   2.518   4.874 -0.4011 -0.1064  0.5500
11805TIP3    H256831   1.105   2.476   4.744  1.1173  1.8511 -0.8726
11806TIP3   OH256832   1.973   6.331   0.761 -0.6623  0.2946 -0.5342
11806TIP3    H156833   1.945   6.261   0.820 -0.4060  1.2739  0.8009
11806TIP3    H256834   2.015   6.286   0.688 -1.2272 -0.9659 -0.1001
11807TIP3   OH256835   2.044   2.767  15.242 -0.5958  0.4814 -0.2937
11807TIP3    H156836   1.950   2.758  15.257 -0.3863 -1.5876  0.1471
11807TIP3    H256837   2.084   2.727  15.320  0.6674  1.5519 -0.3536
11808TIP3   OH256838   0.512   2.547  16.601  0.0571  0.0056  0.0220
11808TIP3    H156839   0.574   2.527  16.531  3.1288  1.3603  2.1379
11808TIP3    H256840   0.559   2.526  16.682 -2.9281 -0.4667  1.7766
11809TIP3   OH256841   3.290   1.465  11.782 -0.0218  0.0943  0.9302
11809TIP3    H156842   3.328   1.473  11.870  1.3511 -1.4048  0.5168
11809TIP3    H256843   3.357   1.501  11.724 -0.4112 -0.0069  0.4161
11810TIP3   OH256844   5.971   1.339   3.751 -0.4780 -0.3795 -0.1675
11810TIP3    H156845   6.066   1.338   3.744 -0.4617 -2.1234 -0.2051
11810TIP3    H256846   5.939   1.316   3.664 -0.9064 -0.4333 -0.0025
11811TIP3   OH256847   6.370   1.889  14.572 -0.0851 -0.3427  0.4703
11811TIP3    H156848   6.309   1.815  14.575 -1.5269  0.8280  1.6470
11811TIP3    H256849   6.455   1.851  14.596  0.6881 -2.7695 -4.6914
11812TIP3   OH256850   1.464   5.634  13.156  0.2222  0.2043 -0.2139
11812TIP3    H156851   1.505   5.632  13.242  1.8706 -1.9734 -0.9671
11812TIP3    H256852   1.372   5.612  13.173  0.4812  0.0142  1.0027
11813TIP3   OH256853   0.454   2.056   2.079  0.1890 -0.1032 -0.3204
11813TIP3    H156854   0.535   2.004   2.080  0.6960  0.6601 -0.2255
11813TIP3    H256855   0.387   1.996   2.048  0.6576 -0.9488  0.2675
11814TIP3   OH256856   2.279   5.653   4.174  0.0628 -0.7498 -0.2471
11814TIP3    H156857   2.350   5.716   4.187 -1.4707  1.7419 -2.7331
11814TIP3    H256858   2.274   5.643   4.079 -3.8054  0.3872 -0.3191
11815TIP3   OH256859   1.754   5.424  15.150  0.1308 -0.2859  0.0232
11815TIP3    H156860   1.683   5.483  15.124  0.4646 -0.3356 -1.0552
11815TIP3    H256861   1.726   5.388  15.234  0.4028  2.2161  1.2607
11816TIP3   OH256862   0.813   2.656  16.707  0.0123  0.2759 -0.3671
11816TIP3    H156863   0.855   2.613  16.633  0.4918 -0.3533  0.2526
11816TIP3    H256864   0.778   2.584  16.759  1.0377  0.6079  0.8207
11817TIP3   OH256865   6.534   4.830  11.764 -0.0204  0.0074 -0.5644
11817TIP3    H156866   6.516   4.796  11.851 -1.2980 -1.9717 -1.5055
11817TIP3    H256867   6.627   4.814  11.750 -0.0487 -0.6994  0.0250
11818TIP3   OH256868   6.544   4.224   4.174 -0.3225  0.1227  0.1091
11818TIP3    H156869   6.491   4.243   4.252 -0.5060  0.3063 -0.0600
11818TIP3    H256870   6.629   4.198   4.209 -0.1177  1.0896  0.3555
11819TIP3   OH256871   1.642   3.538  17.150 -0.1887 -0.4643  0.7459
11819TIP3    H156872   1.614   3.614  17.100 -1.9419 -2.7761 -2.0593
11819TIP3    H256873   1.624   3.562  17.241 -1.3114  2.1881 -0.0729
11820TIP3   OH256874   3.506   1.311   2.864  0.1319 -0.4048 -0.0025
11820TIP3    H156875   3.598   1.318   2.893  0.0721  1.0596 -0.0826
11820TIP3    H256876   3.461   1.269   2.937  0.6493 -0.0191  0.5480
11821TIP3   OH256877   4.219   1.904  13.054 -0.0058  0.4470 -0.2140
11821TIP3    H156878   4.210   1.838  12.986 -1.8151  2.0359 -1.6227
11821TIP3    H256879   4.231   1.986  13.007  1.6198  1.2700  1.4708
11822TIP3   OH256880   5.053   5.630   6.517 -0.2103 -0.2961  0.2756
11822TIP3    H156881   5.039   5.548   6.470 -0.9624 -0.2927  0.4722
11822TIP3    H256882   5.062   5.604   6.608 -0.6376 -0.1562  0.3633
11823TIP3   OH256883   1.824   4.685  10.489  0.2452  0.6196  0.2400
11823TIP3    H156884   1.796   4.715  10.403  0.0768 -2.3404 -0.8554
11823TIP3    H256885   1.749   4.635  10.523  0.4001  1.5113  2.0572
11824TIP3   OH256886   2.800   6.421   3.634 -0.0231 -0.0491 -0.2471
11824TIP3    H156887   2.845   6.444   3.715 -0.2203 -2.8466  0.7535
11824TIP3    H256888   2.841   6.477   3.567  3.1355 -0.6074  1.0462
11825TIP3   OH256889   4.445   3.903  16.648 -0.0235  0.0869  0.1069
11825TIP3    H156890   4.423   3.942  16.733  1.4348 -0.3702  0.7268
11825TIP3    H256891   4.362   3.900  16.601 -0.8765  0.3257  1.5276
11826TIP3   OH256892   6.034   2.776  14.243  0.4573  0.4894 -0.4204
11826TIP3    H156893   6.016   2.831  14.167  1.1179 -1.1537 -1.8282
11826TIP3    H256894   5.965   2.711  14.243  1.4903 -0.6478 -0.7613
11827TIP3   OH256895   5.800   2.320  12.484  0.4565  0.0302 -0.1545
11827TIP3    H156896   5.860   2.383  12.524 -1.9703  1.8414  0.9107
11827TIP3    H256897   5.796   2.248  12.547  0.8159  0.3217  0.2113
11828TIP3   OH256898   2.191   0.114   2.080  0.5071  0.1452  0.5948
11828TIP3    H156899   2.168   0.042   2.021  1.5283 -1.6307  2.2670
11828TIP3    H256900   2.228   0.181   2.022  0.2443 -0.9736 -0.9313
11829TIP3   OH256901   0.688   6.363   1.614 -0.7983  0.6289  0.3542
11829TIP3    H156902   0.593   6.374   1.608 -1.0154 -1.1681 -0.0771
11829TIP3    H256903   0.719   6.379   1.525 -0.8307  0.1727  0.2593
11830TIP3   OH256904   4.933   4.343  11.964 -0.6216  0.0282 -0.3337
11830TIP3    H156905   4.957   4.352  12.056 -0.3351  0.7230 -0.4643
11830TIP3    H256906   4.843   4.377  11.959 -0.8979 -0.6802 -0.1893
11831TIP3   OH256907   5.562   0.144  15.095  0.0474  0.2745  0.1506
11831TIP3    H156908   5.588   0.186  15.177 -1.0100  0.2509  0.5055
11831TIP3    H256909   5.570   0.050  15.113 -1.3701  0.2360  0.6369
11832TIP3   OH256910   3.680   0.793  13.231  0.8633 -0.2863  0.1383
11832TIP3    H156911   3.708   0.817  13.143  0.0243 -0.6626 -0.2470
11832TIP3    H256912   3.658   0.877  13.273  3.5589  0.1361  0.8544
11833TIP3   OH256913   1.683   3.831  11.530  0.2435  0.2010 -0.3619
11833TIP3    H156914   1.597   3.869  11.551 -0.5443 -1.3525 -0.6636
11833TIP3    H256915   1.684   3.827  11.434  0.7449  0.3930 -0.3683
11834TIP3   OH256916   6.501   0.070   1.873 -0.2630  0.3578 -0.2511
11834TIP3    H156917   6.435   0.003   1.889 -1.4711  1.3337 -0.9724
11834TIP3    H256918   6.585   0.025   1.883 -1.0291 -0.8790  0.8108
11835TIP3   OH256919   0.409   3.150   3.904 -0.0521  0.1760  0.1783
11835TIP3    H156920   0.409   3.188   3.816  1.0239 -1.8014 -0.7336
11835TIP3    H256921   0.501   3.152   3.931 -0.5113  1.9159  1.8529
11836TIP3   OH256922   4.516   5.467  13.419  0.1665  0.2287 -0.0828
11836TIP3    H156923   4.426   5.477  13.450  1.0817  0.0194  2.9591
11836TIP3    H256924   4.516   5.509  13.333 -2.7949  0.2722 -0.1794
11837TIP3   OH256925   5.244   0.366   6.051  0.0353 -0.3846  0.0211
11837TIP3    H156926   5.243   0.282   6.097  0.1172 -0.5791 -0.3304
11837TIP3    H256927   5.310   0.418   6.098 -0.3591 -0.3439  0.5393
11838TIP3   OH256928   2.202   1.813  11.996  0.4629 -0.4851 -0.2333
11838TIP3    H156929   2.203   1.909  11.995 -0.3479 -0.3839  2.3385
11838TIP3    H256930   2.168   1.788  11.910  1.5320  1.4777 -1.2903
11839TIP3   OH256931   0.621   3.543   2.738 -0.5455  0.3726 -0.2316
11839TIP3    H156932   0.560   3.488   2.688 -0.3902 -0.1218  0.1085
11839TIP3    H256933   0.696   3.556   2.680  0.2051 -1.2669  0.3099
11840TIP3   OH256934   2.347   3.238   1.672 -0.2702  0.2151 -0.7116
11840TIP3    H156935   2.267   3.290   1.682  0.0798  0.6561 -0.1878
11840TIP3    H256936   2.355   3.191   1.755 -1.2429 -1.6424 -1.6012
11841TIP3   OH256937   0.141   0.759  12.465 -0.2667 -0.3219  0.0460
11841TIP3    H156938   0.100   0.706  12.533  2.4151 -1.5762  0.8263
11841TIP3    H256939   0.134   0.706  12.385  0.8617 -1.1175  0.4498
11842TIP3   OH256940   3.053   1.880   2.645 -0.2020  0.6999  0.7594
11842TIP3    H156941   2.970   1.910   2.608  0.2807  0.6415 -0.4051
11842TIP3    H256942   3.035   1.790   2.673 -0.5278  0.6859  0.5115
11843TIP3   OH256943   1.884   3.892  14.081 -0.1123  0.0836 -0.1586
11843TIP3    H156944   1.956   3.835  14.053  0.3330  0.5040  0.0977
11843TIP3    H256945   1.905   3.913  14.173  0.0960  1.1935 -0.4453
11844TIP3   OH256946   3.585   3.646  13.145 -0.0590  0.4031 -0.2455
11844TIP3    H156947   3.631   3.724  13.114 -2.6235  1.5625 -1.4304
11844TIP3    H256948   3.621   3.574  13.094  0.2572  1.3176 -1.3514
11845TIP3   OH256949   3.980   5.757   4.444  0.1863 -0.8821 -0.4768
11845TIP3    H156950   3.952   5.671   4.414 -0.5168 -1.7647  2.3574
11845TIP3    H256951   4.068   5.768   4.408  0.3938 -2.9119 -0.7212
11846TIP3   OH256952   5.741   5.571   5.078  0.4499 -0.5279 -0.3502
11846TIP3    H156953   5.771   5.627   5.150  0.0126 -1.8022  0.8658
11846TIP3    H256954   5.647   5.588   5.071  0.4681 -0.5039 -0.5471
11847TIP3   OH256955   0.422   5.645   2.525 -0.5161  0.1471  0.1772
11847TIP3    H156956   0.331   5.618   2.516 -0.2550 -0.8993  0.4573
11847TIP3    H256957   0.454   5.652   2.436 -0.0340 -2.5989  0.0433
11848TIP3   OH256958   0.981   4.016   1.366  0.0743  0.1735  0.0941
11848TIP3    H156959   1.052   3.953   1.377 -0.4563 -0.2952  0.8641
11848TIP3    H256960   0.916   3.992   1.432  0.4200  2.3135  1.3133
11849TIP3   OH256961   2.477   2.194   2.560 -0.2901  0.0889  0.0965
11849TIP3    H156962   2.386   2.197   2.531 -0.6314 -2.3588  0.6921
11849TIP3    H256963   2.482   2.259   2.630 -0.1324  4.0998 -3.2240
11850TIP3   OH256964   3.135   0.244  16.863  0.1768 -0.9282 -0.5800
11850TIP3    H156965   3.115   0.221  16.954 -0.5078 -0.2523 -0.5473
11850TIP3    H256966   3.148   0.159  16.820  0.8661 -1.2432  0.2197
11851TIP3   OH256967   2.607   0.463  13.165 -0.1800  0.5947 -0.6945
11851TIP3    H156968   2.702   0.477  13.173 -0.1357  1.2710 -2.0147
11851TIP3    H256969   2.595   0.442  13.072 -1.2956  0.1942 -0.4677
11852TIP3   OH256970   5.592   4.263   5.456  0.1329  0.1372 -0.0683
11852TIP3    H156971   5.585   4.178   5.412 -3.2620  0.3201 -0.1412
11852TIP3    H256972   5.548   4.325   5.397  2.7762  2.1129 -0.1635
11853TIP3   OH256973   1.824   6.075   4.271  0.6018  0.7540 -0.7324
11853TIP3    H156974   1.762   6.110   4.334  0.4457 -0.0772 -0.4211
11853TIP3    H256975   1.836   5.984   4.296  0.5185  0.3970 -1.9089
11854TIP3   OH256976   3.717   2.231   3.956 -0.3156  0.6144  0.5041
11854TIP3    H156977   3.675   2.150   3.927  0.3446  0.1887  0.7130
11854TIP3    H256978   3.811   2.214   3.947 -0.1752  1.7651 -0.5398
11855TIP3   OH256979   5.012   2.723   3.966  0.6120  0.5170  0.1314
11855TIP3    H156980   4.990   2.769   4.048 -0.8871  2.0158 -1.0326
11855TIP3    H256981   4.930   2.723   3.916  1.2573 -1.1915 -1.0159
11856TIP3   OH256982   3.507   2.133  17.098  0.6875  0.5725  0.3265
11856TIP3    H156983   3.553   2.193  17.039  0.1215 -0.6437 -1.4513
11856TIP3    H256984   3.522   2.046  17.060  0.0673 -0.2358  1.8473
11857TIP3   OH256985   1.680   1.346  13.981  0.1635 -0.5684 -0.3497
11857TIP3    H156986   1.586   1.360  13.973  0.2970  2.1132  1.2662
11857TIP3    H256987   1.688   1.276  14.046 -0.7225 -0.8689 -0.5485
11858TIP3   OH256988   3.186   0.576  12.388 -0.0558 -0.0769 -0.6128
11858TIP3    H156989   3.261   0.629  12.413 -0.4131  0.6142 -0.9971
11858TIP3    H256990   3.150   0.619  12.310  1.4058 -2.4992 -2.7877
11859TIP3   OH256991   0.374   5.969  12.658 -0.8180  0.5561 -0.4827
11859TIP3    H156992   0.281   5.988  12.645 -0.7688  0.7452 -0.5572
11859TIP3    H256993   0.375   5.903  12.727 -0.9600  1.2059  0.1499
11860TIP3   OH256994   3.195   2.563  13.934  0.4450 -0.3867  0.9283
11860TIP3    H156995   3.220   2.509  14.009  1.8187 -2.9014 -1.1837
11860TIP3    H256996   3.162   2.500  13.869  0.8760  1.4591 -1.2091
11861TIP3   OH256997   1.419   3.730   4.588  0.0649  0.2521 -0.6650
11861TIP3    H156998   1.326   3.728   4.565 -0.8692 -0.8644  2.7171
11861TIP3    H256999   1.429   3.660   4.652  3.2212  0.5163 -0.7521
11862TIP3   OH257000   1.222   5.564  11.692 -0.4499  0.3169  0.1696
11862TIP3    H157001   1.195   5.655  11.692  1.0977  0.8628  2.6599
11862TIP3    H257002   1.317   5.566  11.698 -0.0182 -1.5383 -3.1241
11863TIP3   OH257003   5.759   6.692   2.885  0.0710 -0.5524 -0.4706
11863TIP3    H157004   5.811   6.725   2.959 -0.4811 -0.4060 -0.1417
11863TIP3    H257005   5.815   6.707   2.808  0.3885 -0.1117 -0.1622
11864TIP3   OH257006   6.665   5.786   3.074 -0.5656 -0.2126  0.3275
11864TIP3    H157007   6.612   5.787   2.995  0.6596 -1.1398 -0.5456
11864TIP3    H257008   6.605   5.812   3.144 -1.8735 -0.1688 -0.7788
11865TIP3   OH257009   6.563   5.987  12.643 -0.6560  0.3020  0.3196
11865TIP3    H157010   6.637   5.943  12.686 -1.3303 -0.9051  0.3035
11865TIP3    H257011   6.591   5.997  12.552 -0.3873  0.1478  0.3823
11866TIP3   OH257012   4.130   1.771  14.395  0.4576 -0.5385  0.0553
11866TIP3    H157013   4.057   1.833  14.388  0.5393 -0.5288 -0.7545
11866TIP3    H257014   4.103   1.696  14.342  1.3216 -0.2547 -0.8019
11867TIP3   OH257015   1.113   6.593   2.438  0.0423 -0.0910 -0.3587
11867TIP3    H157016   1.050   6.656   2.473  0.4987  0.8758 -1.2084
11867TIP3    H257017   1.192   6.607   2.489  0.6636  1.2211 -1.6051
11868TIP3   OH257018   6.746   5.737  16.706  0.2963  0.5065  0.5930
11868TIP3    H157019   6.699   5.817  16.729 -1.3281 -0.6828  1.5938
11868TIP3    H257020   6.703   5.705  16.627  1.9831  1.4097 -0.7566
11869TIP3   OH257021   0.010   4.280   1.028 -0.8035  0.2714  0.3146
11869TIP3    H157022   0.009   4.369   1.064 -0.4971  0.8056 -0.9280
11869TIP3    H257023   0.096   4.245   1.053 -0.6583  0.5742  0.2454
11870TIP3   OH257024   0.292   2.126   3.962  0.1616  0.2964 -0.0975
11870TIP3    H157025   0.318   2.158   3.876  0.9772 -0.5533 -0.1811
11870TIP3    H257026   0.347   2.175   4.023 -0.4893  0.9732 -0.0451
11871TIP3   OH257027   6.325   1.785  12.368  0.1333 -0.4178  0.0629
11871TIP3    H157028   6.255   1.724  12.389  0.3966 -0.7810 -0.1021
11871TIP3    H257029   6.309   1.861  12.423 -0.4710 -0.4410 -0.0794
11872TIP3   OH257030   5.970   4.715   6.247  0.2437  0.2125 -0.3757
11872TIP3    H157031   5.896   4.691   6.191  0.4627  0.0512 -0.6003
11872TIP3    H257032   6.045   4.674   6.204  1.0483  3.2404 -2.1591
11873TIP3   OH257033   5.969   0.523  12.647  0.4300  0.1346  0.0276
11873TIP3    H157034   5.918   0.507  12.568  0.9453 -0.6750 -0.1640
11873TIP3    H257035   6.013   0.439  12.663  0.7651  0.4622  0.8526
11874TIP3   OH257036   3.247   0.091  14.728 -0.3084  0.3456 -0.3311
11874TIP3    H157037   3.337   0.069  14.705 -0.3346 -0.5575  0.3841
11874TIP3    H257038   3.254   0.155  14.798 -0.1993 -0.8971  0.8220
11875TIP3   OH257039   6.543   3.584  13.544  0.1086 -0.2068 -0.2880
11875TIP3    H157040   6.636   3.569  13.528  0.4296  0.5088  0.8179
11875TIP3    H257041   6.501   3.503  13.516  1.1763 -0.9261  0.1332
11876TIP3   OH257042   5.029   0.282   5.201 -0.0089 -0.1501  0.5849
11876TIP3    H157043   5.113   0.239   5.220  0.2726  0.9265  1.9376
11876TIP3    H257044   5.032   0.363   5.252 -1.5614  0.2775  0.0401
11877TIP3   OH257045   3.190   3.093  13.374  0.6316  0.1540 -0.0148
11877TIP3    H157046   3.234   3.050  13.447 -1.2861  0.7786  1.5915
11877TIP3    H257047   3.171   3.022  13.312  1.5865 -0.5172  0.4361
11878TIP3   OH257048   1.613   3.146   3.279 -0.1958  0.1266  0.1687
11878TIP3    H157049   1.668   3.203   3.333 -0.5040 -0.6217  1.3007
11878TIP3    H257050   1.523   3.175   3.296 -0.2826  0.0455 -0.1348
11879TIP3   OH257051   5.909   5.892  17.147 -0.3536  0.8243  0.4304
11879TIP3    H157052   5.861   5.950  17.087 -0.2962  1.2451  0.7920
11879TIP3    H257053   5.995   5.882  17.106 -0.0102  1.8355  0.8966
11880TIP3   OH257054   4.596   6.154   5.249  0.3877 -0.8083  0.1321
11880TIP3    H157055   4.606   6.208   5.171 -1.0100 -0.3105  0.2674
11880TIP3    H257056   4.683   6.152   5.288  0.5007  1.4565  0.1640
11881TIP3   OH257057   1.116   4.166   6.518  0.0834 -0.3945  0.3773
11881TIP3    H157058   1.113   4.072   6.499 -2.1744 -0.5128  1.0298
11881TIP3    H257059   1.205   4.181   6.550  0.5418 -2.2597  0.1118
11882TIP3   OH257060   6.350   3.322   5.789 -0.3038  0.2818  0.8891
11882TIP3    H157061   6.333   3.402   5.740  1.1173 -0.4029 -0.7912
11882TIP3    H257062   6.265   3.278   5.794 -0.3536 -0.0403 -1.7687
11883TIP3   OH257063   0.518   0.548  17.019 -0.0390  0.1776  0.6714
11883TIP3    H157064   0.526   0.591  16.934 -0.1390  0.7059  0.9249
11883TIP3    H257065   0.597   0.493  17.025 -0.3911 -0.4400 -0.0696
11884TIP3   OH257066   2.494   0.829   3.915 -0.0583  0.3616 -0.5216
11884TIP3    H157067   2.409   0.822   3.957 -0.0642  0.6082 -0.4937
11884TIP3    H257068   2.474   0.835   3.821  0.0201 -2.7161 -0.8563
11885TIP3   OH257069   5.101   5.317   4.471 -0.4652 -0.0519  0.2940
11885TIP3    H157070   5.023   5.371   4.460  0.4325  1.2893  0.2848
11885TIP3    H257071   5.083   5.266   4.550 -0.9531  0.9826  0.8730
11886TIP3   OH257072   4.092   4.221   0.018  0.0848  0.5528 -0.2654
11886TIP3    H157073   4.104   4.165   0.095  2.4896 -1.8233 -2.1750
11886TIP3    H257074   4.158   4.289   0.028  1.5034 -0.6784 -0.9152
11887TIP3   OH257075   1.121   2.765   6.268  0.2415  0.6650 -0.2855
11887TIP3    H157076   1.026   2.772   6.277  0.3647  2.8981 -0.1377
11887TIP3    H257077   1.134   2.732   6.179 -0.6638 -0.4649 -0.0167
11888TIP3   OH257078   4.345   2.865  12.293  0.7219 -0.6027  0.3562
11888TIP3    H157079   4.322   2.867  12.386  1.6758 -0.7502  0.6063
11888TIP3    H257080   4.431   2.906  12.289 -0.2216  1.4576 -0.7684
11889TIP3   OH257081   4.879   6.513   4.098 -1.0871 -0.7961  0.6147
11889TIP3    H157082   4.840   6.425   4.097 -2.2356 -0.3283 -1.6279
11889TIP3    H257083   4.891   6.535   4.005 -1.7139  1.7960  1.0783
11890TIP3   OH257084   3.731   5.347  13.257  0.1925  0.6817 -0.0771
11890TIP3    H157085   3.640   5.320  13.248  0.8021 -0.7997 -3.7148
11890TIP3    H257086   3.776   5.270  13.292  0.4997  0.1993 -1.4754
11891TIP3   OH257087   0.093   0.251   2.158 -0.1707  0.0351 -0.3177
11891TIP3    H157088   0.089   0.256   2.063  1.3836 -1.1690 -0.4903
11891TIP3    H257089   0.094   0.157   2.177  1.8932  0.2000  0.7105
11892TIP3   OH257090   0.189   6.647  17.148  0.9456 -0.7906 -0.5812
11892TIP3    H157091   0.107   6.684  17.180  0.0610 -2.2373 -1.0720
11892TIP3    H257092   0.219   6.709  17.082 -0.5290 -0.9222 -1.4255
11893TIP3   OH257093   0.635   5.835  16.756 -0.1336  0.3899 -0.2400
11893TIP3    H157094   0.707   5.776  16.735 -0.3252  0.0600  0.0139
11893TIP3    H257095   0.582   5.787  16.820 -1.8164 -0.2885 -2.0508
11894TIP3   OH257096   5.653   1.686   0.967 -0.0879  0.5725 -0.1094
11894TIP3    H157097   5.682   1.641   1.047 -0.9149 -0.6824 -0.4741
11894TIP3    H257098   5.733   1.723   0.930  0.4535  0.3625  0.8047
11895TIP3   OH257099   0.455   4.775  14.741 -0.4721  0.2981 -0.1039
11895TIP3    H157100   0.540   4.816  14.724 -0.6368  0.0982 -1.4674
11895TIP3    H257101   0.463   4.688  14.702 -0.7586 -0.3240  1.1747
11896TIP3   OH257102   1.523   1.143  10.727 -0.0798 -0.8035  0.2695
11896TIP3    H157103   1.518   1.223  10.778  0.9263 -1.4873  1.5001
11896TIP3    H257104   1.497   1.169  10.638  3.3567  1.6255 -0.1909
11897TIP3   OH257105   0.559   4.193   4.644  0.9039  0.3660  0.0467
11897TIP3    H157106   0.601   4.122   4.693  0.5662 -0.4822 -0.8669
11897TIP3    H257107   0.602   4.192   4.559 -0.3165  0.0866 -0.5869
11898TIP3   OH257108   1.481   2.015   4.661  0.3397 -0.0690  0.2305
11898TIP3    H157109   1.472   1.982   4.750  2.3269 -0.2555  0.4217
11898TIP3    H257110   1.392   2.033   4.632 -0.5854 -2.4713  1.3070
11899TIP3   OH257111   4.179   2.224   3.113  0.4019 -0.3768 -0.3399
11899TIP3    H157112   4.163   2.312   3.082 -1.9229 -0.7913 -0.4346
11899TIP3    H257113   4.267   2.228   3.151  1.4696  1.2560 -2.7705
11900TIP3   OH257114   2.526   5.734  12.365  0.2261 -0.0236 -0.2188
11900TIP3    H157115   2.547   5.819  12.404 -0.3789 -0.4884  1.1723
11900TIP3    H257116   2.464   5.754  12.295  0.4103  0.7141 -0.1786
11901TIP3   OH257117   1.928   3.700   3.824 -0.6267  0.2381 -0.1411
11901TIP3    H157118   1.843   3.725   3.789 -0.3367  0.4746 -0.6994
11901TIP3    H257119   1.966   3.645   3.755 -0.0667  0.6657 -0.1777
11902TIP3   OH257120   2.554   5.701  11.578 -0.2773  0.5337 -0.4629
11902TIP3    H157121   2.633   5.706  11.524 -0.1637  0.3101 -0.3180
11902TIP3    H257122   2.482   5.704  11.515 -0.1478  0.4182 -0.6190
11903TIP3   OH257123   4.226   1.346  14.564  0.1982 -0.5646 -0.8368
11903TIP3    H157124   4.206   1.308  14.479 -0.0646 -1.6823 -0.3043
11903TIP3    H257125   4.165   1.303  14.624  0.2155  0.3741 -0.1170
11904TIP3   OH257126   0.840   5.908  11.955 -0.6989 -0.0056 -0.0746
11904TIP3    H157127   0.913   5.955  11.996 -0.5457 -1.6080  1.6144
11904TIP3    H257128   0.762   5.941  12.001 -0.5410 -1.6890  1.5206
11905TIP3   OH257129   0.016   4.085   1.631  0.2807 -0.4750  0.2914
11905TIP3    H157130  -0.007   4.005   1.582 -0.4585 -0.6002  0.8407
11905TIP3    H257131  -0.051   4.148   1.607  0.8111 -0.0313 -0.0638
11906TIP3   OH257132   6.446   0.029  11.853  0.0229 -0.2065  0.5445
11906TIP3    H157133   6.472   0.120  11.865  0.8130 -0.6096  1.9747
11906TIP3    H257134   6.359   0.035  11.812  0.3900  1.1676 -0.0881
11907TIP3   OH257135   4.598   1.139  15.113 -0.0875  0.0503  0.6488
11907TIP3    H157136   4.622   1.160  15.022  0.2541 -1.5523  0.3391
11907TIP3    H257137   4.665   1.078  15.142 -0.5575  0.0511  1.7757
11908TIP3   OH257138   0.008   6.747   2.234 -0.3233 -0.6745 -0.1897
11908TIP3    H157139  -0.036   6.664   2.251 -2.5697 -0.1822 -2.9139
11908TIP3    H257140  -0.003   6.797   2.315 -0.8630 -2.1910  0.7207
11909TIP3   OH257141   3.353   6.477   3.374  0.3099  0.1405  0.1093
11909TIP3    H157142   3.293   6.432   3.434 -1.2402  0.0483 -1.4433
11909TIP3    H257143   3.319   6.566   3.368 -0.2944 -0.1765 -1.5493
11910TIP3   OH257144   5.145   0.689   3.939  0.0423 -0.6666  0.3046
11910TIP3    H157145   5.241   0.685   3.940  0.0337 -0.7725  0.8046
11910TIP3    H257146   5.123   0.755   4.004 -0.1754  0.5661 -0.9618
11911TIP3   OH257147   5.076   2.678   2.365 -0.0391 -0.1113  0.2075
11911TIP3    H157148   5.002   2.723   2.404 -0.6253  0.2261 -1.2115
11911TIP3    H257149   5.097   2.608   2.427 -1.7804 -0.4444  0.4811
11912TIP3   OH257150   1.905   6.638  10.994 -0.5741  0.4861 -0.1974
11912TIP3    H157151   1.831   6.614  10.939 -0.7344 -0.6500  0.4836
11912TIP3    H257152   1.917   6.563  11.052  0.4168  1.1123  0.4362
11913TIP3   OH257153   3.948   2.530  15.738 -0.6469 -0.5068 -0.1322
11913TIP3    H157154   3.884   2.592  15.702 -0.1851 -1.1363 -2.2024
11913TIP3    H257155   3.924   2.446  15.698  0.1708 -1.1856  0.7629
11914TIP3   OH257156   5.975   4.913  15.999  0.2275 -0.0143  0.2733
11914TIP3    H157157   5.903   4.907  16.063  0.0097  3.1593  0.4642
11914TIP3    H257158   6.048   4.950  16.048  0.0317  2.5776 -1.2032
11915TIP3   OH257159   5.690   4.357   4.434 -0.1040 -0.5091 -0.4713
11915TIP3    H157160   5.770   4.374   4.385 -0.1803  1.1695 -0.0657
11915TIP3    H257161   5.710   4.387   4.523 -0.4069 -2.2739  0.2418
11916TIP3   OH257162   1.635   4.706  16.186  0.4339 -0.2685 -0.5319
11916TIP3    H157163   1.584   4.642  16.137  0.4392 -0.0851 -0.7821
11916TIP3    H257164   1.577   4.781  16.196 -0.7121 -1.4173  2.4538
11917TIP3   OH257165   3.335   0.206   3.241 -0.3064 -0.5980 -0.2694
11917TIP3    H157166   3.333   0.283   3.297  0.8204 -2.6585  2.8318
11917TIP3    H257167   3.252   0.208   3.194  0.1457  3.0326 -1.2185
11918TIP3   OH257168   3.591   0.158   3.242  0.1949  0.0613  0.9410
11918TIP3    H157169   3.638   0.234   3.207  0.0578  0.0817  0.8034
11918TIP3    H257170   3.499   0.181   3.234  0.1612  0.2778  1.7690
11919TIP3   OH257171   6.084   0.462   4.868  0.5690 -0.1918 -0.7619
11919TIP3    H157172   6.004   0.410   4.878 -1.4482  2.5646 -1.0911
11919TIP3    H257173   6.143   0.406   4.818 -0.5363 -2.9209  0.7681
11920TIP3   OH257174   6.606   2.109  15.350  0.0626  0.4215  0.2914
11920TIP3    H157175   6.626   2.050  15.278 -1.5731  0.2652 -0.0762
11920TIP3    H257176   6.645   2.193  15.324  0.0590  0.1944 -0.4632
11921TIP3   OH257177   1.984   3.741  12.333 -0.1699  0.2722 -0.0011
11921TIP3    H157178   1.922   3.681  12.375 -1.1791  0.8733 -0.5920
11921TIP3    H257179   2.058   3.746  12.394 -1.0810  0.2077  1.1374
11922TIP3   OH257180   2.071   4.772   0.927  0.1614 -0.3238  0.5920
11922TIP3    H157181   2.136   4.812   0.869  0.0783  0.6367  1.1403
11922TIP3    H257182   2.028   4.706   0.873  0.0927  0.5489 -0.4419
11923TIP3   OH257183   3.416   3.056  10.956  0.2067 -0.0083  0.7216
11923TIP3    H157184   3.377   2.992  11.016 -2.0648  2.0147  1.5150
11923TIP3    H257185   3.503   3.072  10.992 -0.1096 -0.8165  1.9031
11924TIP3   OH257186   5.321   1.573   4.572 -0.1263  0.2629 -0.0609
11924TIP3    H157187   5.355   1.532   4.492 -0.1011 -0.3379  0.2472
11924TIP3    H257188   5.293   1.660   4.545 -0.8958 -0.2316 -0.9031
11925TIP3   OH257189   1.436   1.758   1.499 -0.1296 -0.2022 -0.2843
11925TIP3    H157190   1.366   1.793   1.555 -0.9884 -0.8180 -0.9470
11925TIP3    H257191   1.417   1.794   1.412  1.1790  0.7283 -0.2053
11926TIP3   OH257192   3.492   5.037   0.660  0.4315 -0.2187  0.1355
11926TIP3    H157193   3.422   5.007   0.718  1.9868 -1.9831  1.1879
11926TIP3    H257194   3.501   4.967   0.595  0.9442  0.1932 -0.2441
11927TIP3   OH257195   6.308   6.446  12.334 -0.0201 -0.0739  0.0492
11927TIP3    H157196   6.300   6.496  12.415 -0.8175  0.0978 -0.1216
11927TIP3    H257197   6.265   6.501  12.268  0.8116 -0.1130 -0.5349
11928TIP3   OH257198   6.720   4.199  11.290  0.0910 -0.0148  0.5414
11928TIP3    H157199   6.629   4.170  11.284 -0.1672  0.3867  1.9789
11928TIP3    H257200   6.770   4.134  11.241 -0.9000 -0.6339  0.3297
11929TIP3   OH257201   6.734   5.372   1.787  0.4690 -0.0930 -0.0107
11929TIP3    H157202   6.640   5.371   1.804  0.6936  0.0942  1.4506
11929TIP3    H257203   6.769   5.302   1.843  1.0450 -1.3309 -1.8179
11930TIP3   OH257204   2.664   0.943  11.366 -0.6289 -0.1682  0.0267
11930TIP3    H157205   2.599   0.929  11.434 -1.7214  1.9411 -0.5170
11930TIP3    H257206   2.635   1.022  11.320  2.0402  0.5874 -0.5440
11931TIP3   OH257207   1.707   6.676   4.895  0.4629  0.1279 -0.5966
11931TIP3    H157208   1.747   6.596   4.930  1.6246  0.8380 -0.2502
11931TIP3    H257209   1.702   6.735   4.970  0.0901  0.5712 -0.9614
11932TIP3   OH257210   5.819   3.034   5.085  0.0222 -0.1517 -0.7202
11932TIP3    H157211   5.802   2.940   5.097 -3.2244  0.4681  0.8007
11932TIP3    H257212   5.734   3.070   5.058  0.5502  2.6224  0.9326
11933TIP3   OH257213   3.799   1.009  15.977 -0.5042 -0.5109  0.0100
11933TIP3    H157214   3.890   1.011  16.007 -0.3435 -0.2827 -0.4766
11933TIP3    H257215   3.769   1.099  15.989  0.2731  0.1858 -2.5999
11934TIP3   OH257216   3.209   3.816   1.700  0.6907 -0.0532 -0.0679
11934TIP3    H157217   3.288   3.867   1.678 -0.5966  2.0211 -0.1818
11934TIP3    H257218   3.171   3.793   1.616  0.1573  0.6744 -0.0383
11935TIP3   OH257219   5.681   2.076  13.168  0.4205 -0.2973 -0.2193
11935TIP3    H157220   5.611   2.104  13.226  1.3242  0.5813  0.4685
11935TIP3    H257221   5.683   1.980  13.178  0.7374 -0.1464  1.4117
11936TIP3   OH257222   0.140   2.353   4.521  0.1868  0.6303 -0.3067
11936TIP3    H157223   0.140   2.286   4.453  0.4084  0.6233 -0.3006
11936TIP3    H257224   0.179   2.309   4.597 -2.7979 -0.3546  0.8142
11937TIP3   OH257225   1.117   2.841  10.993  0.6669  0.4935  0.1202
11937TIP3    H157226   1.034   2.883  10.966  0.4195 -0.5544 -0.8601
11937TIP3    H257227   1.175   2.855  10.918  0.6035 -0.7974 -0.1964
11938TIP3   OH257228   2.942   3.397   4.855 -0.2814 -0.0630 -0.4324
11938TIP3    H157229   2.875   3.339   4.892 -0.5217  1.0645  1.0115
11938TIP3    H257230   2.955   3.365   4.766 -3.7206  0.4633 -1.2700
11939TIP3   OH257231   6.433   5.355   1.840 -0.2805 -0.2104 -0.0333
11939TIP3    H157232   6.387   5.313   1.768  0.5998  1.4358 -1.6401
11939TIP3    H257233   6.413   5.301   1.916 -1.1091 -2.1106 -1.5213
11940TIP3   OH257234   3.250   1.933  13.446  0.0916  0.0602  0.0149
11940TIP3    H157235   3.253   1.961  13.537  0.7759 -0.5638  0.1878
11940TIP3    H257236   3.235   2.013  13.397  2.0183  0.7591  0.5000
11941TIP3   OH257237   5.142   3.799   3.351  0.1812 -0.3449  0.9994
11941TIP3    H157238   5.053   3.771   3.331  0.5754 -1.9852  1.3810
11941TIP3    H257239   5.193   3.718   3.351  1.8302  0.6408  0.0313
11942TIP3   OH257240   5.016   1.200   6.901 -0.2785  0.9711 -0.2629
11942TIP3    H157241   4.996   1.286   6.864  0.3966  2.3136  2.2424
11942TIP3    H257242   5.109   1.186   6.883  0.6851  2.7331  2.7331
11943TIP3   OH257243   6.172   4.510   1.703  0.2480 -0.0896 -0.3242
11943TIP3    H157244   6.233   4.467   1.763  1.4557  0.3427 -1.2038
11943TIP3    H257245   6.200   4.482   1.616  0.6217  1.8476 -0.8849
11944TIP3   OH257246   1.331   4.056  16.217  0.1628 -0.0370  0.6372
11944TIP3    H157247   1.303   3.967  16.239 -0.6455 -0.0867 -0.5206
11944TIP3    H257248   1.379   4.085  16.294 -0.7136 -0.9840  1.5832
11945TIP3   OH257249   6.563   3.691   0.697 -0.2237 -0.5990 -0.3647
11945TIP3    H157250   6.557   3.674   0.791  0.9572 -0.2501 -0.2081
11945TIP3    H257251   6.482   3.656   0.661  0.4502 -3.2142  0.4221
11946TIP3   OH257252   2.449   1.665   0.947 -0.7461 -0.7200  0.3559
11946TIP3    H157253   2.538   1.682   0.916  0.1279  1.7172  3.6089
11946TIP3    H257254   2.393   1.692   0.875  1.1302  0.5034 -0.7446
11947TIP3   OH257255   2.694   6.749  14.381 -0.9707  0.1561 -0.2371
11947TIP3    H157256   2.681   6.691  14.306 -2.3644 -1.0687  0.8856
11947TIP3    H257257   2.742   6.824  14.346  1.6794 -2.0140 -1.5694
11948TIP3   OH257258   5.179   2.671  16.544  0.5292 -0.1428 -0.3306
11948TIP3    H157259   5.185   2.578  16.566 -0.2736 -0.2573 -0.5482
11948TIP3    H257260   5.241   2.683  16.472  0.2785 -0.6259 -0.6380
11949TIP3   OH257261   0.499   0.187  17.156 -0.1189  0.1720  0.2145
11949TIP3    H157262   0.531   0.110  17.109 -1.6830 -1.3017  1.4204
11949TIP3    H257263   0.579   0.236  17.179  1.1635 -2.2523  1.3328
11950TIP3   OH257264   4.975   5.771   0.888 -0.9480 -0.1129  0.0875
11950TIP3    H157265   4.918   5.773   0.811 -0.7990  0.0239 -0.0183
11950TIP3    H257266   4.922   5.809   0.958 -1.3898 -0.9974  0.2603
11951TIP3   OH257267   6.538   3.554  15.503 -0.0082 -0.0707  0.6778
11951TIP3    H157268   6.507   3.567  15.593 -2.2760  1.2561 -0.1901
11951TIP3    H257269   6.594   3.630  15.486  0.2258 -0.1940  0.8973
11952TIP3   OH257270   3.610   0.111   2.471 -0.3758  0.0061  0.6810
11952TIP3    H157271   3.613   0.168   2.548 -0.2600  0.1603  0.5619
11952TIP3    H257272   3.596   0.023   2.507 -1.2804  0.1981  0.8289
11953TIP3   OH257273   3.788   6.054   2.601  0.0930 -0.1143 -0.8326
11953TIP3    H157274   3.860   5.995   2.623  0.9277  0.7233 -1.2612
11953TIP3    H257275   3.737   6.060   2.682 -0.0526 -1.4655 -0.8034
11954TIP3   OH257276   6.677   4.198  17.037  0.1685  0.0862  0.2346
11954TIP3    H157277   6.612   4.160  16.978  1.8231  0.1058 -1.7498
11954TIP3    H257278   6.748   4.133  17.039  0.7425  0.7137  1.1182
11955TIP3   OH257279   0.363   1.713   1.092  0.4618 -0.7341 -0.3037
11955TIP3    H157280   0.325   1.782   1.037 -1.0952 -0.7993  0.6379
11955TIP3    H257281   0.317   1.722   1.176  1.2391 -2.0324  0.2796
11956TIP3   OH257282   2.451   1.412  16.046  0.0210  0.6507 -0.1575
11956TIP3    H157283   2.509   1.357  15.992  1.0435 -2.8734  3.9832
11956TIP3    H257284   2.367   1.367  16.044  0.8204 -1.3502  3.1346
11957TIP3   OH257285   6.736   0.830   3.538  0.2657  0.2570 -0.0464
11957TIP3    H157286   6.673   0.827   3.610  0.2423  0.6173 -0.0535
11957TIP3    H257287   6.806   0.770   3.565  1.4312  2.1585  1.3658
11958TIP3   OH257288   1.435   5.802  11.769 -0.3139 -0.4496  0.1977
11958TIP3    H157289   1.448   5.896  11.758 -1.4001 -0.1369  1.4341
11958TIP3    H257290   1.351   5.794  11.814  1.6821 -1.7790  4.1588
11959TIP3   OH257291   1.705   1.541  12.062  0.4241 -0.3404 -0.3341
11959TIP3    H157292   1.672   1.626  12.033  1.8788  0.1919 -0.4985
11959TIP3    H257293   1.797   1.540  12.036  0.8622 -1.3153  1.1130
11960TIP3   OH257294   4.834   4.990  16.935 -0.4314  0.0479  0.3074
11960TIP3    H157295   4.926   4.966  16.930 -0.1615  0.6185  1.9293
11960TIP3    H257296   4.788   4.907  16.944 -0.0288 -0.2101  0.0137
11961TIP3   OH257297   2.189   1.475   5.597 -0.4632  0.2691  0.0105
11961TIP3    H157298   2.132   1.402   5.574 -0.0048 -0.1639  0.2106
11961TIP3    H257299   2.193   1.529   5.518 -0.5148 -0.1208 -0.2618
11962TIP3   OH257300   1.843   2.430   0.698  0.0648 -0.2175 -0.6033
11962TIP3    H157301   1.808   2.462   0.781  1.8836  0.2112  0.0509
11962TIP3    H257302   1.773   2.377   0.661 -0.9956  0.0488  0.9305
11963TIP3   OH257303   5.453   1.042   2.384  0.1108 -0.7151 -0.0633
11963TIP3    H157304   5.492   1.110   2.440 -1.2176 -0.9258  1.1899
11963TIP3    H257305   5.494   0.961   2.413 -1.2383 -0.9572  1.3589
11964TIP3   OH257306   5.946   4.071   1.785 -0.5360 -0.1331  0.1859
11964TIP3    H157307   5.952   4.038   1.695 -0.6853 -1.3293  0.5946
11964TIP3    H257308   5.860   4.112   1.790 -1.0510 -1.1560  0.1036
11965TIP3   OH257309   1.853   5.999   3.742  0.8336  0.1623  0.1127
11965TIP3    H157310   1.857   6.093   3.760  1.9104  0.0428  0.5238
11965TIP3    H257311   1.770   5.972   3.782  0.5588  0.9116  0.0774
11966TIP3   OH257312   4.123   1.495   5.749 -0.0570 -0.2883 -0.4969
11966TIP3    H157313   4.051   1.437   5.772  0.9662 -0.8203  1.6210
11966TIP3    H257314   4.132   1.487   5.654 -2.2557 -0.7797 -0.7075
11967TIP3   OH257315   4.554   4.175  14.746 -0.5389  0.3130  0.1687
11967TIP3    H157316   4.558   4.270  14.742 -0.2266  0.2695 -0.6754
11967TIP3    H257317   4.568   4.154  14.838 -0.6813  1.0844  0.3690
11968TIP3   OH257318   4.155   4.643   2.291 -0.4696  0.1351 -0.4401
11968TIP3    H157319   4.202   4.566   2.324  1.7036  1.0433 -1.3003
11968TIP3    H257320   4.215   4.685   2.230 -2.4615  1.3167 -1.7193
11969TIP3   OH257321   0.361   1.465  13.192  0.0620 -0.2352  0.1816
11969TIP3    H157322   0.427   1.531  13.212  1.1321 -0.6207 -1.8417
11969TIP3    H257323   0.376   1.396  13.257  0.4191  0.4905  0.8864
11970TIP3   OH257324   4.680   2.998  16.472 -0.1649  0.0245  0.4510
11970TIP3    H157325   4.740   2.929  16.444  1.8826  2.3952 -1.4869
11970TIP3    H257326   4.708   3.076  16.424 -2.3600  2.2578  2.4644
11971TIP3   OH257327   0.388   4.306   1.369 -0.2604  0.5399 -0.4488
11971TIP3    H157328   0.467   4.320   1.318  0.8649 -2.2884  0.3274
11971TIP3    H257329   0.420   4.282   1.456 -1.9886 -0.0728  0.0500
11972TIP3   OH257330   0.192   3.871   3.792  0.0567 -0.2023  0.2525
11972TIP3    H157331   0.268   3.894   3.845  0.6463 -1.0541 -0.1826
11972TIP3    H257332   0.118   3.910   3.837  0.7660  0.7516  0.6254
11973TIP3   OH257333   4.371   4.062  12.613 -0.7364 -0.4293 -0.7513
11973TIP3    H157334   4.449   4.060  12.558 -0.4738 -0.1731 -0.3961
11973TIP3    H257335   4.333   3.975  12.604  0.2519 -0.9519  0.0016
11974TIP3   OH257336   0.710   6.726   3.533  0.3302  0.4382  0.0400
11974TIP3    H157337   0.717   6.769   3.447  0.7693  0.5737  0.1413
11974TIP3    H257338   0.638   6.663   3.522  1.8226 -1.1633 -1.1135
11975TIP3   OH257339   2.061   3.960  13.592  0.6386  0.0969  1.3488
11975TIP3    H157340   2.106   3.944  13.509 -1.5730  1.1240 -0.1648
11975TIP3    H257341   2.000   3.887  13.601 -1.3762  1.5495  0.3298
11976TIP3   OH257342   5.429   2.918  13.985 -0.3176 -0.7337  0.0615
11976TIP3    H157343   5.515   2.931  14.026 -0.5493 -0.8377  0.5925
11976TIP3    H257344   5.444   2.932  13.892  0.0424  0.4238  0.2787
11977TIP3   OH257345   0.413   3.485  15.709  0.8758 -0.3846  0.0087
11977TIP3    H157346   0.350   3.526  15.650  0.0779  0.9186  1.6740
11977TIP3    H257347   0.474   3.439  15.651 -1.9815 -2.3551 -1.6847
11978TIP3   OH257348   2.795   5.520   5.139  0.6213 -0.0261 -0.1239
11978TIP3    H157349   2.735   5.586   5.174  2.2446  1.3861  0.0690
11978TIP3    H257350   2.809   5.460   5.212  1.7239  1.2983  0.8102
11979TIP3   OH257351   0.952   4.934   2.101  0.5658  0.1024 -0.5879
11979TIP3    H157352   0.952   5.006   2.038  0.3154  0.1272 -0.5576
11979TIP3    H257353   1.035   4.888   2.084  0.9433  0.6602 -0.3045
11980TIP3   OH257354   4.849   4.048  15.841 -0.2527 -0.2287 -0.3326
11980TIP3    H157355   4.764   4.020  15.875 -0.6364  1.5980  0.3404
11980TIP3    H257356   4.830   4.127  15.790  1.1261  0.8424  0.7277
11981TIP3   OH257357   6.164   2.722   4.186  0.7801 -0.0113  0.2178
11981TIP3    H157358   6.084   2.728   4.237  0.9298 -1.8227  0.7455
11981TIP3    H257359   6.154   2.789   4.118 -1.0844 -0.0498  0.3905
11982TIP3   OH257360   1.200   1.849   1.570 -0.4554 -0.1595 -0.2853
11982TIP3    H157361   1.195   1.929   1.518 -1.3045 -0.3111 -0.4601
11982TIP3    H257362   1.137   1.789   1.529  0.8718 -1.2861 -0.7636
11983TIP3   OH257363   0.940   6.137  14.785 -0.2971 -1.1163 -0.0987
11983TIP3    H157364   1.027   6.097  14.789 -1.0001 -2.8926 -1.1901
11983TIP3    H257365   0.940   6.203  14.855  1.6271 -1.6472  0.4524
11984TIP3   OH257366   6.193   6.322   3.311  0.2490  0.4745 -0.1175
11984TIP3    H157367   6.265   6.316   3.249  0.7346 -1.4797  0.5696
11984TIP3    H257368   6.134   6.387   3.273  1.1881  0.3325 -1.9170
11985TIP3   OH257369   6.551   5.710  16.966 -0.5991  0.4538 -0.4787
11985TIP3    H157370   6.597   5.756  16.896 -0.6683  1.1060 -0.1098
11985TIP3    H257371   6.493   5.776  17.004  1.7563  1.1259  2.3341
11986TIP3   OH257372   6.567   3.056  13.431 -0.1013  0.3036 -0.3693
11986TIP3    H157373   6.601   3.025  13.515 -0.3732 -0.2396 -0.4496
11986TIP3    H257374   6.479   3.088  13.451 -1.4262 -2.6258 -0.8901
11987TIP3   OH257375   4.614   0.935   5.508 -0.4626 -0.0877  0.8336
11987TIP3    H157376   4.694   0.971   5.547 -0.4160  0.6934  0.0551
11987TIP3    H257377   4.572   1.010   5.466 -0.2005 -0.9865 -1.1255
11988TIP3   OH257378   6.616   3.424   3.499  0.4037 -0.1708  0.1223
11988TIP3    H157379   6.643   3.408   3.408 -1.2311 -0.3624 -0.3643
11988TIP3    H257380   6.538   3.369   3.510  0.5129 -0.0517  1.6086
11989TIP3   OH257381   3.546   6.373   4.947 -0.9880  0.1851  0.1518
11989TIP3    H157382   3.506   6.297   4.989 -3.6040  1.2717 -0.1883
11989TIP3    H257383   3.536   6.356   4.853 -0.8797  0.5805  0.0676
11990TIP3   OH257384   4.454   4.282  15.508  0.4859 -0.3434 -0.0245
11990TIP3    H157385   4.454   4.257  15.600  0.3992  2.6513  0.8783
11990TIP3    H257386   4.431   4.201  15.461  1.4765 -2.1825  2.4539
11991TIP3   OH257387   4.937   0.042   4.007  0.4258  0.1365 -0.0793
11991TIP3    H157388   5.015  -0.007   3.978  1.1795  1.6930 -0.7831
11991TIP3    H257389   4.868   0.014   3.948  0.7811 -0.2684 -0.3121
11992TIP3   OH257390   3.863   3.781  14.054  0.3986 -0.2280  0.1128
11992TIP3    H157391   3.866   3.858  14.110 -0.2218  0.5385 -0.8799
11992TIP3    H257392   3.955   3.754  14.046  0.5024 -0.3318  1.4354
11993TIP3   OH257393   3.508   0.061  14.700  0.0874 -0.1330 -0.0528
11993TIP3    H157394   3.499   0.139  14.755 -0.6032  0.1967 -0.6172
11993TIP3    H257395   3.560  -0.000  14.753 -0.4901  0.2005  0.9178
11994TIP3   OH257396   0.323   6.356  12.579 -0.1056  0.0878 -0.2733
11994TIP3    H157397   0.228   6.357  12.578 -0.1351  1.7674  1.0109
11994TIP3    H257398   0.346   6.334  12.669  0.7119  0.3738 -0.4013
11995TIP3   OH257399   1.807   6.710   1.479  0.2471 -0.3836 -0.4368
11995TIP3    H157400   1.754   6.766   1.536 -0.0622 -2.3319  1.3368
11995TIP3    H257401   1.749   6.684   1.409  0.5576  1.8743 -1.6139
11996TIP3   OH257402   6.202   1.498  13.737  0.2984 -0.2516 -0.4382
11996TIP3    H157403   6.259   1.551  13.794 -1.4180  1.3679 -0.1142
11996TIP3    H257404   6.114   1.513  13.772 -0.3383 -3.0838 -0.5857
11997TIP3   OH257405   2.372   3.242   0.099 -0.5806  0.3679 -0.1493
11997TIP3    H157406   2.296   3.194   0.132 -2.6407  3.6668  0.3750
11997TIP3    H257407   2.427   3.257   0.177 -0.7085  0.1870 -0.0241
11998TIP3   OH257408   1.099   2.000  16.907 -0.3000 -0.5309 -0.5265
11998TIP3    H157409   1.144   1.928  16.861  0.3759 -1.9511  2.1482
11998TIP3    H257410   1.016   1.962  16.935  0.0660 -0.3191  0.9189
11999TIP3   OH257411   1.403   4.201   3.321 -0.0651 -0.0983  0.0337
11999TIP3    H157412   1.330   4.217   3.380 -0.0739  0.5046 -0.1372
11999TIP3    H257413   1.472   4.165   3.377  0.4601  1.8462  0.7217
12000TIP3   OH257414   2.308   2.254  16.164 -0.1287  0.0843  0.4914
12000TIP3    H157415   2.317   2.341  16.125  1.3418 -0.3525 -0.2330
12000TIP3    H257416   2.223   2.222  16.133  1.0740 -0.3474 -2.6835
12001TIP3   OH257417   5.317   0.926  13.706  0.2042 -0.2482 -0.4875
12001TIP3    H157418   5.290   0.852  13.652 -0.6182 -0.7863  0.6083
12001TIP3    H257419   5.412   0.927  13.701  0.1660 -0.5204 -1.6016
12002TIP3   OH257420   2.189   5.182  16.749 -0.8036  0.5339 -0.3752
12002TIP3    H157421   2.255   5.162  16.816  0.9694  0.9537 -1.9269
12002TIP3    H257422   2.125   5.236  16.795  1.6143  2.8898  0.4762
12003TIP3   OH257423   4.494   5.031   1.555 -0.5019 -0.0480 -0.1366
12003TIP3    H157424   4.590   5.028   1.559 -0.5217 -1.9540 -0.3058
12003TIP3    H257425   4.475   5.058   1.466 -0.1988  4.0110  0.8075
12004TIP3   OH257426   4.828   5.195   5.838  0.4737  0.4134 -0.1919
12004TIP3    H157427   4.834   5.111   5.884  0.2835  0.3158 -0.3412
12004TIP3    H257428   4.737   5.199   5.807 -0.1115  1.5971  1.5374
12005TIP3   OH257429   4.250   2.227  12.092  0.2387 -0.1717 -0.0933
12005TIP3    H157430   4.309   2.300  12.108  0.6208 -0.2991 -0.8615
12005TIP3    H257431   4.308   2.153  12.074 -0.1270 -0.2056 -1.2628
12006TIP3   OH257432   6.302   1.777   1.990 -0.4709  0.9043 -0.1209
12006TIP3    H157433   6.262   1.783   1.903 -1.8586  0.3131  0.4558
12006TIP3    H257434   6.396   1.776   1.972 -0.6820  2.0781 -1.5287
12007TIP3   OH257435   3.303   2.458   0.652 -1.0300  0.2476 -0.6538
12007TIP3    H157436   3.317   2.388   0.716  0.3787 -1.1062 -2.3361
12007TIP3    H257437   3.310   2.414   0.567 -2.5044  2.0418 -1.7610
12008TIP3   OH257438   0.882   3.512   0.236 -0.5744 -0.7284 -0.2346
12008TIP3    H157439   0.822   3.506   0.311 -0.0853 -3.4004  0.0639
12008TIP3    H257440   0.959   3.557   0.270 -1.2505  0.1282  0.1984
12009TIP3   OH257441   5.040   1.798   1.105 -0.3490 -0.2478  0.1664
12009TIP3    H157442   5.066   1.871   1.161  1.2736 -0.8438  0.2668
12009TIP3    H257443   5.074   1.822   1.018  1.2503 -1.3386  0.4328
12010TIP3   OH257444   6.204   3.744  15.801  0.3058 -0.0757 -0.4274
12010TIP3    H157445   6.249   3.752  15.885 -2.0241  0.0285  0.9049
12010TIP3    H257446   6.179   3.833  15.779  0.7328 -0.1296 -1.1338
12011TIP3   OH257447   5.484   3.609   1.222  0.0567 -0.3676  0.3558
12011TIP3    H157448   5.557   3.549   1.239  0.7072  0.2111 -0.3178
12011TIP3    H257449   5.428   3.601   1.299  0.8090 -0.8489  0.8681
12012TIP3   OH257450   0.633   5.148   1.375  0.6835  0.3588  0.2657
12012TIP3    H157451   0.710   5.092   1.377 -0.8543 -1.8907  0.9370
12012TIP3    H257452   0.566   5.098   1.423 -1.7852  1.2204 -2.0369
12013TIP3   OH257453   1.055   5.645   0.551 -0.2409 -0.3484  0.4005
12013TIP3    H157454   1.133   5.666   0.603  0.8714  0.0391 -1.3500
12013TIP3    H257455   1.087   5.586   0.482 -1.7743 -1.2690  0.4441
12014TIP3   OH257456   0.677   0.596  15.230  0.2903 -0.7226 -0.0779
12014TIP3    H157457   0.647   0.680  15.193 -0.4615 -0.7106  0.5257
12014TIP3    H257458   0.730   0.557  15.161 -2.2001 -1.3636 -1.7970
12015TIP3   OH257459   2.122   1.097  12.179  0.5661  0.2536  0.2703
12015TIP3    H157460   2.176   1.076  12.256  1.0219  0.6037  0.0552
12015TIP3    H257461   2.033   1.105  12.214  1.0026  2.1167  1.0964
12016TIP3   OH257462   1.280   2.995  15.410 -0.0851 -0.0132 -0.2242
12016TIP3    H157463   1.330   3.016  15.489 -2.9019 -2.1929  2.3789
12016TIP3    H257464   1.228   3.074  15.393  0.9847  0.6876 -0.3124
12017TIP3   OH257465   6.254   3.855  13.563  0.2901 -0.2736 -0.2553
12017TIP3    H157466   6.189   3.895  13.621  0.3837  0.7545 -0.8474
12017TIP3    H257467   6.229   3.884  13.476  1.3084 -0.2129 -0.5333
12018TIP3   OH257468   1.837   5.486  12.777 -0.7095 -0.5670 -0.2576
12018TIP3    H157469   1.770   5.516  12.838  1.7049 -1.3612  3.0666
12018TIP3    H257470   1.902   5.556  12.776  0.8879 -1.9753  0.8196
12019TIP3   OH257471   6.321   5.270   1.368 -0.6770 -0.5204 -0.0960
12019TIP3    H157472   6.371   5.336   1.320 -0.0735 -0.0858  1.1024
12019TIP3    H257473   6.380   5.195   1.375 -1.0811 -0.9120 -0.7737
12020TIP3   OH257474   1.601   2.936   0.354  0.7046  0.3070 -0.1628
12020TIP3    H157475   1.616   2.845   0.379  0.9884  0.4050  0.0333
12020TIP3    H257476   1.682   2.963   0.310  0.6535  0.4867 -0.1492
12021TIP3   OH257477   6.421   1.794  16.697  0.2634 -0.0545 -0.0918
12021TIP3    H157478   6.433   1.851  16.773  0.3818 -0.3625  0.1197
12021TIP3    H257479   6.433   1.853  16.622  1.3491  0.0195  0.1189
12022TIP3   OH257480   0.720   1.030  12.440  0.2517 -0.8653  0.0834
12022TIP3    H157481   0.668   0.953  12.416 -1.8256 -0.8066  3.6540
12022TIP3    H257482   0.810   1.001  12.435 -0.3136 -2.5450 -1.5304
12023TIP3   OH257483   5.170   0.272   1.001  0.0526  0.2043  0.7898
12023TIP3    H157484   5.199   0.363   1.010  0.8297  0.0761 -0.1869
12023TIP3    H257485   5.232   0.221   1.053  0.7180  0.0795 -0.0900
12024TIP3   OH257486   0.245   1.999   4.904 -0.9230  0.1652 -0.6725
12024TIP3    H157487   0.260   1.923   4.960 -2.3941 -0.4169 -1.0340
12024TIP3    H257488   0.242   2.073   4.964 -2.6424 -0.4654  0.0752
12025TIP3   OH257489   0.565   4.525   4.723 -0.4181  0.1389  0.1409
12025TIP3    H157490   0.631   4.483   4.668 -1.1328 -1.9533  0.7842
12025TIP3    H257491   0.545   4.607   4.679  2.6856  0.9491  0.0060
12026TIP3   OH257492   1.706   5.555   5.746  0.0986  0.5707  0.6899
12026TIP3    H157493   1.626   5.511   5.775 -0.6286  0.3680 -1.4343
12026TIP3    H257494   1.716   5.529   5.654  2.8011  0.3370  0.9627
12027TIP3   OH257495   0.973   3.158  12.262 -0.3306 -0.0868  1.2324
12027TIP3    H157496   0.985   3.158  12.357 -1.3573 -2.1497  1.4177
12027TIP3    H257497   0.879   3.161  12.250 -0.3487 -2.4974  0.3919
12028TIP3   OH257498   2.771   1.117   5.168 -0.0765  0.0795 -0.6518
12028TIP3    H157499   2.803   1.036   5.207 -0.9154 -0.4358 -1.0013
12028TIP3    H257500   2.825   1.129   5.089  3.0542  2.2153  1.5587
12029TIP3   OH257501   3.506   5.182   3.533  0.4789  0.4416 -0.8888
12029TIP3    H157502   3.596   5.173   3.563 -0.0181 -0.9509  0.3120
12029TIP3    H257503   3.486   5.099   3.490 -0.7207  0.0474  0.3422
12030TIP3   OH257504   4.801   4.004   3.382 -0.7746  0.1989 -0.0959
12030TIP3    H157505   4.859   4.080   3.389 -2.9146  1.8174  2.2544
12030TIP3    H257506   4.721   4.039   3.344 -1.9386 -0.7427  1.3880
12031TIP3   OH257507   2.337   0.391   3.979  0.2793 -0.0598 -0.2692
12031TIP3    H157508   2.319   0.409   4.071  1.3180 -0.2809 -0.0169
12031TIP3    H257509   2.427   0.360   3.977  0.2806 -0.0328 -1.3679
12032TIP3   OH257510   4.242   4.530  12.005  0.4554 -0.5729  0.0364
12032TIP3    H157511   4.196   4.606  12.040  0.9380 -0.1906 -0.1548
12032TIP3    H257512   4.278   4.560  11.922  2.3121 -0.4115  0.8580
12033TIP3   OH257513   1.760   6.237  14.358  0.1370 -0.5087  0.1966
12033TIP3    H157514   1.815   6.303  14.316  1.6447 -1.0097  1.3174
12033TIP3    H257515   1.723   6.187  14.285 -0.5247  1.1249 -0.6500
12034TIP3   OH257516   0.820   4.192  12.666  0.2935  0.2939 -0.0623
12034TIP3    H157517   0.741   4.139  12.656  0.1146  0.0508  2.1583
12034TIP3    H257518   0.885   4.151  12.609 -1.1146  0.4604 -1.8753
12035TIP3   OH257519   2.501   0.455  11.397  0.0356 -0.2671 -0.2999
12035TIP3    H157520   2.589   0.452  11.359 -0.5520  0.6707 -1.7901
12035TIP3    H257521   2.507   0.397  11.473  1.3967 -1.8328 -1.5108
12036TIP3   OH257522   4.563   1.436   5.480 -0.7143 -0.2900 -0.3540
12036TIP3    H157523   4.525   1.357   5.441  1.6739 -1.6362 -0.1455
12036TIP3    H257524   4.617   1.404   5.553  0.7697  1.4551 -0.5992
12037TIP3   OH257525   3.846   5.651   3.219  0.6667 -0.1234  0.2369
12037TIP3    H157526   3.899   5.727   3.242  0.4358 -0.1516  0.8739
12037TIP3    H257527   3.757   5.684   3.217  0.5953 -0.3148  0.2500
12038TIP3   OH257528   3.319   2.774   5.263  0.1026 -0.4629 -0.0158
12038TIP3    H157529   3.410   2.803   5.263  0.1813 -0.7051 -0.1624
12038TIP3    H257530   3.271   2.843   5.219  0.3731 -0.8203 -0.8961
12039TIP3   OH257531   0.509   0.596   5.002  0.5440 -0.7451 -0.2371
12039TIP3    H157532   0.475   0.608   4.913 -0.4423 -1.4061  0.0383
12039TIP3    H257533   0.602   0.575   4.989 -0.1866 -3.7268 -1.3227
12040TIP3   OH257534   4.301   2.292  17.132 -0.0363 -0.1687 -0.3924
12040TIP3    H157535   4.327   2.225  17.195 -1.2915 -0.0541  0.2890
12040TIP3    H257536   4.280   2.369  17.186  0.0617  0.3247 -1.0490
12041TIP3   OH257537   3.730   4.210   2.766  0.7061  0.0009  0.3779
12041TIP3    H157538   3.714   4.154   2.841  0.6819 -1.6134 -0.7839
12041TIP3    H257539   3.677   4.288   2.782 -0.2116 -0.8247  1.4743
12042TIP3   OH257540   3.068   3.684   5.526  0.3800 -0.3701 -0.6008
12042TIP3    H157541   3.004   3.641   5.582  0.3275  0.4507 -0.0063
12042TIP3    H257542   3.143   3.700   5.584 -0.1807  1.6860 -0.3545
12043TIP3   OH257543   4.937   1.604  16.432 -0.1298 -0.6369 -0.5426
12043TIP3    H157544   4.867   1.622  16.494  0.9044  1.9867 -0.0095
12043TIP3    H257545   5.006   1.563  16.486 -0.7783 -2.1887 -0.8466
12044TIP3   OH257546   5.443   1.879  15.491 -0.1563  0.2930 -0.2888
12044TIP3    H157547   5.463   1.920  15.407  0.7572  1.7671  0.6097
12044TIP3    H257548   5.495   1.928  15.555 -0.8599 -0.7610  1.1526
12045TIP3   OH257549   2.397   5.103   1.732  0.0102  0.0105 -0.2248
12045TIP3    H157550   2.447   5.182   1.755  0.6360  0.1585 -1.9272
12045TIP3    H257551   2.320   5.137   1.686 -2.4015 -0.1440  3.3269
12046TIP3   OH257552   4.866   2.796  16.410  0.0563  0.4182 -0.0551
12046TIP3    H157553   4.885   2.709  16.444 -0.7003 -0.5511 -1.9475
12046TIP3    H257554   4.951   2.837  16.400  0.5492 -0.6561 -0.4658
12047TIP3   OH257555   2.227   2.185   3.681  0.1495  0.4177 -0.2253
12047TIP3    H157556   2.239   2.279   3.697 -2.6120  0.5154  2.0482
12047TIP3    H257557   2.252   2.143   3.764 -2.5537 -0.3789  0.2699
12048TIP3   OH257558   6.644   4.508  15.574  0.1818  0.3980  0.2685
12048TIP3    H157559   6.591   4.559  15.634  1.0527  0.5090  0.9665
12048TIP3    H257560   6.717   4.566  15.551 -2.1097  1.9496 -4.1092
12049TIP3   OH257561   5.015   1.780   5.536  0.6594 -0.0414  0.2707
12049TIP3    H157562   5.028   1.771   5.441  1.0887  1.9730  0.1059
12049TIP3    H257563   4.940   1.723   5.555 -0.7109  1.0090 -1.6306
12050TIP3   OH257564   1.189   4.151  12.038 -0.8947 -0.3872  0.2373
12050TIP3    H157565   1.186   4.246  12.028 -3.4158 -0.5019 -0.9369
12050TIP3    H257566   1.226   4.119  11.956 -0.4509 -0.4561  0.4603
12051TIP3   OH257567   5.137   4.917  12.844 -0.2408 -0.0332  0.3379
12051TIP3    H157568   5.185   4.999  12.852 -1.3303  0.4926  1.9720
12051TIP3    H257569   5.087   4.926  12.763  1.5170 -0.1610 -0.8204
12052TIP3   OH257570   6.194   4.358  14.658  0.5885  0.5661 -0.3549
12052TIP3    H157571   6.153   4.338  14.742  2.1484  1.7890  0.7631
12052TIP3    H257572   6.269   4.299  14.652  1.3050  1.4307 -0.1908
12053TIP3   OH257573   0.890   4.359  13.029  0.1249 -1.2212  0.0995
12053TIP3    H157574   0.844   4.326  12.951 -1.0267 -0.1560  0.2921
12053TIP3    H257575   0.926   4.443  13.002  1.2215 -1.6303  0.2336
12054TIP3   OH257576   4.125   3.700  14.056  0.1168  0.6943 -0.2800
12054TIP3    H157577   4.158   3.656  14.134  0.3672 -0.3481 -0.9500
12054TIP3    H257578   4.148   3.792  14.068  0.9891  0.3910  0.4435
12055TIP3   OH257579   0.375   0.922  12.460  0.6138  0.4628 -0.2524
12055TIP3    H157580   0.318   0.845  12.449  1.0521  0.0458  0.3364
12055TIP3    H257581   0.406   0.915  12.550  0.0596  1.7468  0.0562
12056TIP3   OH257582   0.331   5.589  10.691  0.0259 -0.6174  0.8846
12056TIP3    H157583   0.270   5.527  10.731 -0.8717 -0.0729  0.3877
12056TIP3    H257584   0.288   5.617  10.610  0.6713  0.2231  0.8136
12057TIP3   OH257585   0.374   2.779   0.837 -0.5080  0.1251  0.1864
12057TIP3    H157586   0.349   2.790   0.929  0.1298  0.5091  0.3192
12057TIP3    H257587   0.298   2.812   0.789  0.3591  3.0120  0.5920
12058TIP3   OH257588   0.648   6.003   6.289 -0.6061 -0.2118 -0.0553
12058TIP3    H157589   0.619   6.077   6.235 -1.6647  0.0243  0.8117
12058TIP3    H257590   0.636   6.033   6.379 -4.6403 -2.6210  0.4534
12059TIP3   OH257591   6.206   2.668   3.309  0.4200 -0.2593  0.4330
12059TIP3    H157592   6.275   2.642   3.370  0.6562 -1.0943 -0.1549
12059TIP3    H257593   6.221   2.612   3.232 -0.6540 -0.1509  0.1324
12060TIP3   OH257594   6.557   3.250   2.844  0.2564 -0.0127  0.2228
12060TIP3    H157595   6.488   3.259   2.910 -0.6702 -0.2133 -0.6893
12060TIP3    H257596   6.578   3.341   2.820  0.9276  0.0754  1.1130
12061TIP3   OH257597   5.367   3.032  16.519  0.4660  0.1708  0.0425
12061TIP3    H157598   5.295   3.028  16.583  1.0903 -1.2640  0.6906
12061TIP3    H257599   5.433   3.088  16.561 -0.3924  1.8295 -0.7275
12062TIP3   OH257600   6.394   4.835   1.483  0.2852  0.1824  0.0873
12062TIP3    H157601   6.309   4.823   1.524 -0.9242 -0.6742 -2.4548
12062TIP3    H257602   6.376   4.834   1.389  2.8865  1.8119 -0.5385
12063TIP3   OH257603   1.397   0.385  14.771 -0.0860  0.0657  0.3187
12063TIP3    H157604   1.418   0.292  14.767  0.6392  0.2144  0.4934
12063TIP3    H257605   1.415   0.417  14.683 -1.1450 -0.1154  0.0229
12064TIP3   OH257606   2.145   2.675   5.077 -0.1743 -0.0196  0.0586
12064TIP3    H157607   2.207   2.720   5.020  0.5752  0.4521  1.2088
12064TIP3    H257608   2.071   2.736   5.085  0.3110  0.4969  0.6585
12065TIP3   OH257609   5.993   0.422  15.133  0.3526  0.3925  0.0365
12065TIP3    H157610   5.946   0.424  15.216  0.1118 -0.0662 -0.0818
12065TIP3    H257611   6.082   0.398  15.157  0.6520  1.7234  0.3098
12066TIP3   OH257612   0.836   4.080  16.060 -0.3727  0.1098 -0.4796
12066TIP3    H157613   0.883   3.999  16.040 -2.0384 -0.7836 -0.9918
12066TIP3    H257614   0.903   4.148  16.057  1.5370 -1.4702  2.2267
12067TIP3   OH257615   2.114   0.464  15.041  0.0649  0.2434 -0.6222
12067TIP3    H157616   2.022   0.466  15.012  0.3731  0.6582 -1.6337
12067TIP3    H257617   2.164   0.476  14.960  1.0289 -0.5410 -0.1574
12068TIP3   OH257618   1.048   0.474   5.205  0.1697 -0.1865 -0.0098
12068TIP3    H157619   1.043   0.465   5.110  0.0578 -2.1922  0.1431
12068TIP3    H257620   0.964   0.442   5.238  0.7308 -0.8541  0.8255
12069TIP3   OH257621   5.787   0.339  11.237  0.0047 -0.1664  0.0981
12069TIP3    H157622   5.785   0.370  11.328  0.7755 -1.6442  0.6542
12069TIP3    H257623   5.879   0.317  11.222 -0.5024 -2.2721 -0.1927
12070TIP3   OH257624   1.821   0.558   4.443 -0.1315 -0.2938 -0.3426
12070TIP3    H157625   1.838   0.582   4.534  0.0319  1.7199 -0.8397
12070TIP3    H257626   1.735   0.516   4.444  0.1537 -0.8686  0.8115
12071TIP3   OH257627   1.709   0.410  15.200 -0.3482 -0.3547  0.5893
12071TIP3    H157628   1.681   0.490  15.245 -0.0057 -0.5620  1.1817
12071TIP3    H257629   1.761   0.362  15.265 -0.6359 -1.1115  0.2817
12072TIP3   OH257630   4.448   2.250   3.190 -0.3478  0.4828  0.9026
12072TIP3    H157631   4.496   2.190   3.246 -0.2125 -0.2585  0.0258
12072TIP3    H257632   4.493   2.244   3.105 -0.9198  1.1002  0.5485
12073TIP3   OH257633   0.991   1.522   1.475 -0.6714  0.2837  0.4461
12073TIP3    H157634   0.924   1.460   1.444 -0.0007  0.7308 -2.1668
12073TIP3    H257635   0.954   1.608   1.456  0.1493  0.5573  0.0266
12074TIP3   OH257636   6.030   6.518   3.138 -0.3008 -0.4599 -0.2537
12074TIP3    H157637   6.079   6.588   3.095 -0.3548 -0.6163 -0.5744
12074TIP3    H257638   5.971   6.564   3.197  1.2332 -0.3192  1.2316
12075TIP3   OH257639   2.932   4.973   1.125  1.0902 -0.7364  0.2943
12075TIP3    H157640   2.969   5.061   1.116  2.6225 -1.2879  1.0325
12075TIP3    H257641   2.838   4.986   1.112  1.2566  1.0542  0.6296
12076TIP3   OH257642   0.177   1.468  11.199 -0.2380 -0.4773 -0.1624
12076TIP3    H157643   0.138   1.556  11.207 -0.5162 -0.5610 -0.5390
12076TIP3    H257644   0.203   1.445  11.288  1.2848  0.6328 -0.2882
12077TIP3   OH257645   3.056   0.565  13.997 -0.3280 -0.2101 -0.5110
12077TIP3    H157646   3.110   0.593  13.924  1.2417  2.6337  1.5619
12077TIP3    H257647   2.979   0.622  13.993 -0.5602 -0.5090 -0.3215
12078TIP3   OH257648   6.630   4.546  12.539  0.2083 -0.3586  0.4571
12078TIP3    H157649   6.628   4.530  12.445  0.6336  0.1806  0.3563
12078TIP3    H257650   6.721   4.568  12.558  0.0669 -0.1914  0.9512
12079TIP3   OH257651   6.748   2.569  10.932 -0.0824  0.0660 -0.3513
12079TIP3    H157652   6.802   2.647  10.948  0.4634 -0.0298 -1.6538
12079TIP3    H257653   6.793   2.522  10.863 -0.9015 -0.9482 -0.2156
12080TIP3   OH257654   0.917   4.936   1.754 -0.5222  0.4403 -0.1870
12080TIP3    H157655   0.906   4.965   1.844 -1.1095  0.5668 -0.2961
12080TIP3    H257656   0.845   4.978   1.706 -0.9081 -0.5612 -0.4939
12081TIP3   OH257657   4.834   2.350   0.248  0.2072  0.1348 -0.7005
12081TIP3    H157658   4.859   2.323   0.160  1.8006 -1.3294  0.1398
12081TIP3    H257659   4.843   2.271   0.301 -1.8510  0.6931  0.5930
12082TIP3   OH257660   3.020   4.841  11.533  0.3570 -0.1309 -0.1020
12082TIP3    H157661   3.014   4.930  11.498 -0.4438  1.1049  2.9277
12082TIP3    H257662   2.968   4.788  11.472 -1.8047  2.0540 -0.3039
12083TIP3   OH257663   0.798   5.862  11.370 -0.8976 -0.3207  0.3621
12083TIP3    H157664   0.815   5.871  11.276  1.8311  2.0057  0.9466
12083TIP3    H257665   0.807   5.768  11.387  0.3533 -0.5786 -1.4255
12084TIP3   OH257666   6.136   4.306  13.582  0.0076 -0.0930 -0.3291
12084TIP3    H157667   6.045   4.280  13.568  0.7462 -1.9982 -2.1560
12084TIP3    H257668   6.154   4.283  13.673 -1.5130  0.9888  0.2776
12085TIP3   OH257669   1.244   3.369   5.014  0.1521  0.3629  0.2588
12085TIP3    H157670   1.306   3.319   4.962  0.7442  1.1371  0.2015
12085TIP3    H257671   1.159   3.330   4.995  0.5349 -0.2533 -0.2094
12086TIP3   OH257672   0.574   1.254   0.254  0.2150 -0.0868  0.4810
12086TIP3    H157673   0.586   1.347   0.236  2.3872 -0.0815  1.5994
12086TIP3    H257674   0.552   1.250   0.347 -0.5631 -0.6812  0.2870
12087TIP3   OH257675   1.962   5.897   1.524  0.0666 -0.6654 -0.3787
12087TIP3    H157676   1.867   5.899   1.509  0.0517  0.0362 -0.2341
12087TIP3    H257677   1.981   5.805   1.544 -0.3560 -1.0904 -1.8043
12088TIP3   OH257678   5.600   0.655  14.402 -0.3468 -0.3171  0.1932
12088TIP3    H157679   5.565   0.744  14.393  0.2092 -0.0008  1.0156
12088TIP3    H257680   5.613   0.644  14.496  0.2015 -1.0258  0.0401
12089TIP3   OH257681   6.052   6.115  11.468 -0.4721  0.6279  0.2252
12089TIP3    H157682   6.119   6.143  11.405 -0.3852  1.8560  0.8339
12089TIP3    H257683   6.034   6.024  11.445  0.4551  0.6797 -0.7840
12090TIP3   OH257684   5.896   0.335   4.528  0.0919  0.3999 -0.7633
12090TIP3    H157685   5.909   0.352   4.434  0.1863 -0.2896 -0.8835
12090TIP3    H257686   5.966   0.384   4.571  0.0940  0.6629 -1.0558
12091TIP3   OH257687   0.300   0.482  11.114  0.0958  0.6272 -0.7145
12091TIP3    H157688   0.240   0.535  11.062  1.2352  1.1606 -1.5347
12091TIP3    H257689   0.357   0.546  11.157  0.6968  0.1044 -0.7243
12092TIP3   OH257690   3.769   1.449   1.179  0.0205 -0.6285  0.1991
12092TIP3    H157691   3.834   1.391   1.220  0.3539  0.4123  1.2078
12092TIP3    H257692   3.739   1.401   1.103  0.1580 -2.2047  1.0966
12093TIP3   OH257693   5.825   5.906   3.281 -0.7371 -0.5840 -0.6950
12093TIP3    H157694   5.791   5.971   3.219  1.9240  0.0929 -1.5615
12093TIP3    H257695   5.908   5.878   3.243  1.5551  0.5935  3.0177
12094TIP3   OH257696   0.431   0.109  14.923  0.3246 -0.0459  0.1136
12094TIP3    H157697   0.473   0.112  14.837 -0.0912  0.6359 -0.0670
12094TIP3    H257698   0.491   0.056  14.977 -0.0030 -1.5102 -0.8941
12095TIP3   OH257699   0.417   0.157  15.532  0.3407  0.3871  0.0700
12095TIP3    H157700   0.418   0.170  15.627 -0.2598 -0.8775  0.2767
12095TIP3    H257701   0.358   0.225  15.499 -1.6033 -0.7806  0.9223
12096TIP3   OH257702   6.174   6.072  16.556  0.2240  0.1598 -0.0962
12096TIP3    H157703   6.107   6.125  16.514 -0.3943 -0.8155 -0.3767
12096TIP3    H257704   6.131   5.988  16.572  1.0972 -0.1714  0.5706
12097TIP3   OH257705   4.718   6.061   4.454  0.0343  0.0953  0.0794
12097TIP3    H157706   4.686   6.105   4.533 -1.1257  0.3354 -0.4873
12097TIP3    H257707   4.812   6.076   4.454  0.1176 -0.2819  1.6326
12098TIP3   OH257708   4.577   1.180   1.818 -0.6361  0.1384  0.3660
12098TIP3    H157709   4.592   1.097   1.863 -0.7004 -0.6585 -1.0303
12098TIP3    H257710   4.627   1.173   1.737 -1.5032  1.0210 -0.2690
12099TIP3   OH257711   0.225   6.618  15.758 -0.0142 -0.1038 -0.1277
12099TIP3    H157712   0.191   6.545  15.810 -0.0212  0.7545  1.1156
12099TIP3    H257713   0.153   6.640  15.698  0.4405 -1.8967 -1.4230
12100TIP3   OH257714   0.004   0.299   0.649 -0.5097  0.5656  0.6846
12100TIP3    H157715   0.082   0.246   0.634 -0.6670  0.3631  0.5720
12100TIP3    H257716  -0.002   0.355   0.571 -1.7792 -1.0498 -0.4656
12101TIP3   OH257717   2.112   5.279   3.913  0.1021  0.0729  0.0637
12101TIP3    H157718   2.164   5.210   3.954 -0.0395 -0.7771 -1.1275
12101TIP3    H257719   2.118   5.353   3.973 -0.9675 -1.4280  2.1688
12102TIP3   OH257720   3.532   0.376  15.211 -0.2130 -0.2346 -0.5608
12102TIP3    H157721   3.456   0.395  15.265 -0.5171 -0.9327 -0.7337
12102TIP3    H257722   3.497   0.359  15.124  0.2800  0.9511 -1.0147
12103TIP3   OH257723   3.892   1.617  16.660 -0.0044 -0.2857  0.5801
12103TIP3    H157724   3.913   1.605  16.567  0.1935 -1.6510  0.7839
12103TIP3    H257725   3.798   1.636  16.661 -0.0992 -0.7090  0.1259
12104TIP3   OH257726   3.066   5.181   6.422 -0.4379  0.6557  0.0729
12104TIP3    H157727   3.102   5.136   6.498 -1.0405  0.8667  0.4845
12104TIP3    H257728   3.101   5.270   6.428  0.7477  0.2697 -0.7366
12105TIP3   OH257729   2.813   6.117  10.920 -0.3397 -0.5008  0.0525
12105TIP3    H157730   2.784   6.208  10.916 -0.9044 -0.6916 -0.3090
12105TIP3    H257731   2.758   6.076  10.986 -1.0264 -0.9016 -0.7451
12106TIP3   OH257732   5.983   2.320   4.848 -0.7270 -0.6308  0.5507
12106TIP3    H157733   5.934   2.294   4.926  0.7285  1.2437  2.1993
12106TIP3    H257734   5.922   2.375   4.799 -0.8288  0.4100  1.7835
12107TIP3   OH257735   2.434   6.326  13.935  0.4128 -0.3647 -0.1201
12107TIP3    H157736   2.449   6.345  14.028 -1.2510 -1.1193  0.3543
12107TIP3    H257737   2.483   6.394  13.888  1.9295 -0.4343  1.2715
12108TIP3   OH257738   2.106   6.738  14.412  0.0670  0.2373 -0.4497
12108TIP3    H157739   2.100   6.786  14.494  0.5481  0.7151 -0.6881
12108TIP3    H257740   2.093   6.646  14.437 -0.3070  0.4317  0.0832
12109TIP3   OH257741   6.203   3.981  16.860 -0.3440  0.0249  0.1528
12109TIP3    H157742   6.288   4.014  16.831 -0.9010  1.0768 -0.3256
12109TIP3    H257743   6.163   4.054  16.907 -0.9427 -0.4985  0.4784
12110TIP3   OH257744   4.664   2.429  13.987  0.0297  0.0854 -0.1476
12110TIP3    H157745   4.637   2.376  13.913  0.8677  0.3733 -0.6818
12110TIP3    H257746   4.644   2.519  13.961  2.0333  0.3846 -0.8604
12111TIP3   OH257747   5.300   1.171   6.392 -0.0678  0.3859 -0.2543
12111TIP3    H157748   5.315   1.162   6.487  1.5787 -1.5472 -0.6290
12111TIP3    H257749   5.375   1.222   6.361  1.2267 -1.7750 -0.9094
12112TIP3   OH257750   2.853   1.173  15.963 -0.5118 -0.2600 -0.0044
12112TIP3    H157751   2.784   1.128  16.011  0.0874 -1.4107 -0.2014
12112TIP3    H257752   2.933   1.127  15.987  0.1757  0.9362  0.0742
12113TIP3   OH257753   4.936   4.864   5.445  0.0869  0.2222  0.1359
12113TIP3    H157754   5.018   4.855   5.492 -0.2268 -0.4862  0.5631
12113TIP3    H257755   4.953   4.931   5.379  1.6744 -1.4324 -1.2332
12114TIP3   OH257756   5.582   3.120  10.460 -0.8169  0.7186  0.6935
12114TIP3    H157757   5.511   3.127  10.396 -0.9237  0.7257  0.8127
12114TIP3    H257758   5.626   3.037  10.438  0.5804  1.7907 -0.8538
12115TIP3   OH257759   5.879   0.728  15.048 -0.4981 -0.0729 -0.0254
12115TIP3    H157760   5.914   0.650  15.090  0.8950  0.6994  0.3180
12115TIP3    H257761   5.891   0.798  15.113 -0.1463  0.7436 -0.9424
12116TIP3   OH257762   6.265   5.995   4.230 -0.3698 -0.1246 -0.8314
12116TIP3    H157763   6.274   5.908   4.270 -1.0051  1.1357  2.3619
12116TIP3    H257764   6.178   5.992   4.189 -1.6134 -0.2667  1.5892
12117TIP3   OH257765   1.848   4.283   4.828  0.1146 -0.3978  0.1222
12117TIP3    H157766   1.859   4.366   4.874 -0.6297 -0.5772  0.6452
12117TIP3    H257767   1.813   4.307   4.742 -0.9449 -0.2116  0.5913
12118TIP3   OH257768   1.774   0.455   2.868 -0.0909  0.2833  0.3634
12118TIP3    H157769   1.758   0.516   2.796  0.0186  0.3299  0.3775
12118TIP3    H257770   1.735   0.373   2.840 -0.3764  0.4007  0.4083
12119TIP3   OH257771   4.206   2.848  14.178 -0.0741  0.4372 -0.1558
12119TIP3    H157772   4.292   2.889  14.172 -0.6623  1.8530  0.8062
12119TIP3    H257773   4.211   2.795  14.258 -0.9976  2.8797  1.6522
12120TIP3   OH257774   6.069   0.779   1.418 -0.5623 -0.0035 -0.2227
12120TIP3    H157775   6.146   0.785   1.361 -0.3756  0.5344  0.0775
12120TIP3    H257776   6.071   0.689   1.451  2.0469  0.9162  2.6478
12121TIP3   OH257777   5.637   4.532  15.566 -0.1647  0.0384 -0.5295
12121TIP3    H157778   5.630   4.596  15.495  0.0103  0.7034  0.0417
12121TIP3    H257779   5.720   4.487  15.549  1.3864  2.1704  0.8075
12122TIP3   OH257780   1.051   2.644   1.697 -0.2781 -0.0611 -0.3655
12122TIP3    H157781   1.117   2.668   1.762 -1.4448  0.0184  0.8397
12122TIP3    H257782   1.072   2.697   1.620  0.5425  0.5945  0.2962
12123TIP3   OH257783   5.267   6.584   6.276 -0.1710 -0.1000 -0.4243
12123TIP3    H157784   5.288   6.658   6.220 -1.3142 -0.7590 -1.7847
12123TIP3    H257785   5.287   6.615   6.365  0.4170  1.4316 -1.0569
12124TIP3   OH257786   2.032   2.446  13.195  0.1638  0.2969  0.1499
12124TIP3    H157787   1.977   2.449  13.116 -0.9699 -0.5691  0.8841
12124TIP3    H257788   2.032   2.354  13.221  0.6914  0.5410  1.0511
12125TIP3   OH257789   1.922   6.582   0.679 -0.0486  0.2467 -0.5922
12125TIP3    H157790   1.941   6.504   0.731 -0.2043 -0.6865 -1.8802
12125TIP3    H257791   1.897   6.648   0.743 -0.9322 -1.0668  0.4760
12126TIP3   OH257792   5.277   5.536   5.128  0.7656  0.1786  0.4730
12126TIP3    H157793   5.325   5.475   5.184  0.0736 -0.0192  0.8651
12126TIP3    H257794   5.280   5.496   5.041  1.4964  0.2829  0.4401
12127TIP3   OH257795   2.249   3.880   4.336  0.0063 -0.5919  0.3100
12127TIP3    H157796   2.227   3.813   4.271  0.0588  0.9035 -1.3233
12127TIP3    H257797   2.336   3.911   4.311  0.1929 -0.2356  1.3387
12128TIP3   OH257798   2.168   1.161   3.224  0.0576 -0.0762  0.6303
12128TIP3    H157799   2.171   1.084   3.281  0.7949  0.0405  0.7562
12128TIP3    H257800   2.260   1.184   3.210 -0.1558  0.6943  0.4737
12129TIP3   OH257801   3.535   4.533  12.324 -0.0784 -0.0393  0.2466
12129TIP3    H157802   3.465   4.497  12.379  0.1921 -0.1366  0.5268
12129TIP3    H257803   3.585   4.456  12.296 -1.4317 -0.2381 -1.8572
12130TIP3   OH257804   5.189   0.496  12.354  0.1637 -0.1012  0.2390
12130TIP3    H157805   5.243   0.505  12.276  0.8468 -1.7141  0.4857
12130TIP3    H257806   5.121   0.434  12.329 -0.9789  1.0865  0.2642
12131TIP3   OH257807   2.804   3.181   4.257  0.2383 -0.0767 -0.2681
12131TIP3    H157808   2.728   3.236   4.277  0.0927  0.1079 -1.3147
12131TIP3    H257809   2.766   3.095   4.237  0.5600 -1.5056  4.0276
12132TIP3   OH257810   1.652   2.245   5.178  0.2958  0.3103 -0.3937
12132TIP3    H157811   1.692   2.261   5.092 -1.1316 -0.0371 -1.1579
12132TIP3    H257812   1.664   2.326   5.226 -2.0344  1.8874 -2.2393
12133TIP3   OH257813   4.414   0.573  10.553 -0.7925 -0.8107  0.2819
12133TIP3    H157814   4.387   0.486  10.526 -2.2397  0.1169 -1.4623
12133TIP3    H257815   4.341   0.606  10.606  0.1554 -0.9703  1.7476
12134TIP3   OH257816   2.268   0.824  13.454  0.3374  0.0390 -0.3500
12134TIP3    H157817   2.232   0.748  13.410 -0.5907  0.5335 -0.4637
12134TIP3    H257818   2.333   0.858  13.393  1.5343 -1.2535  0.1482
12135TIP3   OH257819   0.393   1.603   1.492 -0.0517 -0.7713 -0.6104
12135TIP3    H157820   0.368   1.562   1.575  0.5275  1.2102  0.6184
12135TIP3    H257821   0.312   1.642   1.459 -0.4210 -2.1119 -1.3453
12136TIP3   OH257822   2.138   1.287  15.014  0.1267  0.3512  0.8559
12136TIP3    H157823   2.067   1.289  15.079  0.9697 -0.8764  1.8620
12136TIP3    H257824   2.103   1.337  14.940 -1.9771 -0.5794  1.1366
12137TIP3   OH257825   2.909   2.801   5.216 -0.0621 -0.1693  0.3599
12137TIP3    H157826   2.874   2.798   5.127 -1.3260  0.4128  0.8155
12137TIP3    H257827   2.871   2.725   5.260 -1.9327  1.1966  1.2404
12138TIP3   OH257828   1.797   4.892   1.593  0.0776  0.0010 -0.1159
12138TIP3    H157829   1.701   4.888   1.600  0.1000  1.1636  1.4512
12138TIP3    H257830   1.813   4.924   1.505 -1.0438  1.2194  0.0931
12139TIP3   OH257831   2.335   1.742   4.560 -0.2816  1.0848  0.2457
12139TIP3    H157832   2.349   1.728   4.654  0.3935 -2.7910 -0.2716
12139TIP3    H257833   2.240   1.742   4.550 -0.3707 -0.8883  0.7406
12140TIP3   OH257834   6.029   4.403   5.981  0.0381 -0.1643 -0.3803
12140TIP3    H157835   6.060   4.386   6.071  1.5524 -1.6775 -1.1158
12140TIP3    H257836   5.939   4.370   5.980 -1.4695  3.3397  1.5323
12141TIP3   OH257837   3.518   1.708  12.227  0.1415  0.1110  0.1017
12141TIP3    H157838   3.424   1.691  12.216 -0.0493  2.2036 -2.2295
12141TIP3    H257839   3.528   1.729  12.320 -1.7685  0.2524  0.3154
12142TIP3   OH257840   5.903   4.368   0.635  0.5512  0.1340 -0.0364
12142TIP3    H157841   5.907   4.414   0.552 -0.3056  0.7207  0.2413
12142TIP3    H257842   5.952   4.423   0.696  0.0453  0.3861  0.1517
12143TIP3   OH257843   6.430   4.545  17.244  0.0349 -0.2352 -0.0521
12143TIP3    H157844   6.345   4.517  17.211  0.4490 -1.8319  0.1486
12143TIP3    H257845   6.483   4.465  17.245  1.1389  0.4709  1.0534
12144TIP3   OH257846   2.379   3.932   1.030  0.5274 -0.1829  0.0199
12144TIP3    H157847   2.328   4.012   1.038 -1.9205 -1.8009  1.8893
12144TIP3    H257848   2.375   3.910   0.937  1.7165  2.0527 -0.6345
12145TIP3   OH257849   5.643   4.659  13.177  0.4079 -0.7143 -0.4376
12145TIP3    H157850   5.632   4.748  13.142  0.6225 -0.6807 -0.4226
12145TIP3    H257851   5.557   4.636  13.212  0.9226  0.4423  1.7554
12146TIP3   OH257852   4.475   2.167  15.350  0.7176  0.2602  0.0984
12146TIP3    H157853   4.484   2.217  15.269  0.0812  0.5857  0.2202
12146TIP3    H257854   4.417   2.221  15.404 -0.8876 -1.1256 -0.1808
12147TIP3   OH257855   2.734   6.005  13.486  0.4491 -0.0399  0.1306
12147TIP3    H157856   2.708   6.080  13.540  0.8230  0.4392 -0.3369
12147TIP3    H257857   2.830   6.005  13.491  0.4640 -0.2845 -0.1442
12148TIP3   OH257858   0.648   6.278   0.376 -0.0827 -0.0792  0.5637
12148TIP3    H157859   0.678   6.190   0.354 -0.3628 -0.3369  1.1977
12148TIP3    H257860   0.553   6.275   0.360  0.2791  0.9808 -2.2938
12149TIP3   OH257861   4.072   0.114  15.096 -0.1568  0.3861  0.1549
12149TIP3    H157862   4.089   0.084  15.006  1.4541  1.6831 -0.0180
12149TIP3    H257863   3.979   0.093  15.110 -0.0330 -1.3782 -1.1826
12150TIP3   OH257864   2.737   4.896   5.963  0.2540 -0.2493 -0.1108
12150TIP3    H157865   2.817   4.873   6.011 -0.2669 -1.7073  0.1049
12150TIP3    H257866   2.683   4.942   6.026  0.6281  0.1189 -0.0533
12151TIP3   OH257867   3.664   4.904  11.901 -0.0017 -0.6401 -0.2290
12151TIP3    H157868   3.751   4.893  11.864  0.9969  2.3050  0.9783
12151TIP3    H257869   3.605   4.885  11.828  1.7053 -0.6198 -1.6798
12152TIP3   OH257870   1.206   6.225   0.857 -0.0795  0.1071  0.0117
12152TIP3    H157871   1.157   6.165   0.800 -3.3607  2.8631 -0.4169
12152TIP3    H257872   1.138   6.276   0.902  2.4246  0.5502  3.7278
12153TIP3   OH257873   0.930   3.656   4.848  0.1593 -0.3289 -0.1754
12153TIP3    H157874   0.940   3.751   4.837 -2.1403  0.0277  0.3584
12153TIP3    H257875   0.998   3.632   4.911  1.6114  0.7110 -1.2680
12154TIP3   OH257876   5.078   1.129  16.797  0.5496 -0.0778 -0.1823
12154TIP3    H157877   5.166   1.132  16.758  0.3148 -0.3415 -0.7425
12154TIP3    H257878   5.027   1.075  16.737  0.0101  0.0488  0.1563
12155TIP3   OH257879   2.691   1.462   6.086 -0.7937 -0.1735 -0.2958
12155TIP3    H157880   2.622   1.528   6.075 -1.1670 -0.2179  1.4058
12155TIP3    H257881   2.767   1.511   6.117 -1.4665 -0.5927  2.3118
12156TIP3   OH257882   6.430   4.875   6.791 -0.1890 -0.6320  0.1606
12156TIP3    H157883   6.433   4.966   6.822  0.4502 -0.2342 -1.0065
12156TIP3    H257884   6.513   4.837   6.820 -0.0223 -0.5473 -0.1987
12157TIP3   OH257885   2.623   2.420  15.627 -0.5534 -0.0258  0.1046
12157TIP3    H157886   2.634   2.409  15.533 -0.6768 -2.6861  0.3300
12157TIP3    H257887   2.696   2.478  15.653  0.5652 -0.7066 -1.3629
12158TIP3   OH257888   4.906   3.072   1.513 -0.0538  0.1924  0.4953
12158TIP3    H157889   4.821   3.062   1.472  1.3578 -0.8434 -2.4439
12158TIP3    H257890   4.948   2.986   1.503  2.6785  1.6121 -1.6198
12159TIP3   OH257891   5.140   2.427   5.453 -0.5932 -0.0490  0.6983
12159TIP3    H157892   5.094   2.347   5.477 -0.1663 -0.0713  1.4898
12159TIP3    H257893   5.212   2.398   5.397 -0.8861 -0.1282  0.3567
12160TIP3   OH257894   4.872   2.950  11.070  0.3323  0.5560  0.2816
12160TIP3    H157895   4.790   2.996  11.056  1.0477  1.7887  0.0474
12160TIP3    H257896   4.888   2.903  10.988 -0.6598 -0.5895  0.7064
12161TIP3   OH257897   2.226   6.344  16.418 -0.0417 -0.4287  0.7220
12161TIP3    H157898   2.316   6.321  16.443 -0.0480 -0.9071  0.3193
12161TIP3    H257899   2.212   6.299  16.334 -1.0759 -1.3737  1.3671
12162TIP3   OH257900   4.603   0.026   0.830 -0.1139 -0.1598  0.3453
12162TIP3    H157901   4.644   0.112   0.830  1.0619 -0.7097 -0.3972
12162TIP3    H257902   4.525   0.037   0.885  0.1639  1.2985  0.4775
12163TIP3   OH257903   3.752   2.302   6.432 -0.2894  0.0929  0.5530
12163TIP3    H157904   3.743   2.368   6.502 -0.9004  3.8436 -2.6742
12163TIP3    H257905   3.843   2.309   6.405 -0.4848  0.0564 -0.1435
12164TIP3   OH257906   3.527   4.453  13.224 -0.4885  0.1966 -0.6663
12164TIP3    H157907   3.463   4.511  13.183 -2.1603 -1.0195  0.0974
12164TIP3    H257908   3.553   4.497  13.304 -1.3953  0.1206 -0.3201
12165TIP3   OH257909   6.105   1.160   5.489 -0.1753  0.1870  0.1929
12165TIP3    H157910   6.061   1.076   5.497 -0.9445  0.5949  0.3972
12165TIP3    H257911   6.190   1.140   5.451 -0.0787 -0.7616  0.8765
12166TIP3   OH257912   1.203   0.630   2.129 -0.2936 -0.1219  0.4631
12166TIP3    H157913   1.254   0.702   2.165  0.3627 -0.7281  0.7697
12166TIP3    H257914   1.122   0.670   2.100 -0.1560  0.6506  1.1210
12167TIP3   OH257915   5.833   3.883   0.058 -0.3066  0.1623  0.5026
12167TIP3    H157916   5.798   3.805   0.102 -1.6152 -0.1661 -1.0165
12167TIP3    H257917   5.767   3.905  -0.008  1.5596  0.5822 -1.3524
12168TIP3   OH257918   1.398   4.185   3.771  0.3476  0.4748  0.3861
12168TIP3    H157919   1.381   4.145   3.856 -0.4928 -1.5054 -0.6423
12168TIP3    H257920   1.410   4.278   3.790  0.8357 -0.0126  2.7240
12169TIP3   OH257921   5.759   0.807  13.980 -0.3181 -0.6914  0.4080
12169TIP3    H157922   5.791   0.824  13.891 -1.5549 -0.2431  0.0375
12169TIP3    H257923   5.732   0.715  13.979  0.7414 -1.0247  0.6746
12170TIP3   OH257924   3.865   3.109  12.211  0.1154 -0.6731 -0.1275
12170TIP3    H157925   3.917   3.032  12.235  0.2323 -0.5452  0.0292
12170TIP3    H257926   3.782   3.097  12.256  0.1008 -0.7519 -0.1750
12171TIP3   OH257927   3.512   0.961   5.458 -0.1500  0.0293 -0.2944
12171TIP3    H157928   3.419   0.971   5.437 -0.1898 -2.1347 -1.4590
12171TIP3    H257929   3.548   0.912   5.383  1.6843 -0.1479  0.6491
12172TIP3   OH257930   3.044   1.217   6.114 -0.0112  0.0196 -0.6884
12172TIP3    H157931   3.024   1.305   6.081  1.5433  0.9939  0.7729
12172TIP3    H257932   2.968   1.164   6.091 -1.1974  1.8712 -1.1938
12173TIP3   OH257933   2.027   4.660   3.253  0.3645 -0.9311  0.1554
12173TIP3    H157934   2.098   4.721   3.275 -0.4991  0.3073 -0.3853
12173TIP3    H257935   1.965   4.712   3.203  0.0641 -2.5111 -1.2350
12174TIP3   OH257936   1.535   5.743  14.367  0.0351  0.0476  0.1608
12174TIP3    H157937   1.461   5.749  14.427 -0.0577  0.4337  0.0130
12174TIP3    H257938   1.612   5.756  14.423 -0.0978  1.4559  0.0564
12175TIP3   OH257939   4.034   6.304   4.652 -0.3652  0.0940  0.3608
12175TIP3    H157940   4.000   6.225   4.608  0.1620 -0.0905  0.2807
12175TIP3    H257941   3.990   6.305   4.737 -2.0793  0.9347 -0.4883
12176TIP3   OH257942   4.042   4.429   2.793  0.2623  0.1101  0.5812
12176TIP3    H157943   4.047   4.339   2.761  1.0001 -0.1281  1.3320
12176TIP3    H257944   3.999   4.421   2.879 -1.2037  0.6783 -0.0677
12177TIP3   OH257945   0.884   5.003  13.313  0.0170  0.6874  0.7354
12177TIP3    H157946   0.917   4.922  13.352  1.7593  0.9929 -0.0197
12177TIP3    H257947   0.881   5.065  13.387  0.9193  0.5679  0.8851
12178TIP3   OH257948   1.960   3.065   2.426  0.4688 -0.5374  0.2385
12178TIP3    H157949   1.974   3.088   2.517  1.3511 -0.2625  0.0427
12178TIP3    H257950   2.006   2.982   2.414  2.3412  0.5419 -0.4972
12179TIP3   OH257951   0.357   3.624  15.919  0.3730 -0.4745 -0.1826
12179TIP3    H157952   0.450   3.636  15.941  0.5840 -1.3463 -0.5505
12179TIP3    H257953   0.358   3.577  15.836 -0.4129  0.5881 -0.8154
12180TIP3   OH257954   0.498   0.282   1.438 -0.1248  0.1402  0.1514
12180TIP3    H157955   0.436   0.342   1.479  1.5232  1.6833  0.5109
12180TIP3    H257956   0.532   0.330   1.362  2.2723  0.3411  1.2448
12181TIP3   OH257957   2.666   6.212   5.061 -0.0035 -0.1064  0.5737
12181TIP3    H157958   2.609   6.185   5.133 -0.0132  0.3856  0.7506
12181TIP3    H257959   2.721   6.280   5.098 -1.7700  2.0643 -0.5424
12182TIP3   OH257960   3.657   5.810  17.052 -0.0040 -0.0739 -0.7038
12182TIP3    H157961   3.581   5.785  16.999 -1.3050  0.8273  0.6656
12182TIP3    H257962   3.726   5.828  16.987 -1.3166  0.2771 -2.0537
12183TIP3   OH257963   6.319   0.781   5.344 -0.2183  0.5374  0.1272
12183TIP3    H157964   6.326   0.832   5.263 -0.4387  0.8066  0.2779
12183TIP3    H257965   6.235   0.736   5.338  0.5368 -0.8813 -0.6188
12184TIP3   OH257966   3.309   0.421  15.343  0.0916  0.3134 -0.1568
12184TIP3    H157967   3.261   0.352  15.388 -0.2050  0.3873 -0.3572
12184TIP3    H257968   3.253   0.498  15.349  0.8045  0.7747  0.8159
12185TIP3   OH257969   0.666   4.267  15.440  0.1296 -0.7218  0.3645
12185TIP3    H157970   0.575   4.254  15.469  0.1299 -3.4382 -0.5665
12185TIP3    H257971   0.661   4.339  15.377 -1.4075 -0.9428  0.1914
12186TIP3   OH257972   2.874   2.647  13.850 -0.1136 -0.6731  0.0891
12186TIP3    H157973   2.905   2.575  13.794  1.1245  0.1073 -0.2771
12186TIP3    H257974   2.903   2.726  13.805 -2.6634  0.1463 -0.2338
12187TIP3   OH257975   5.845   4.697   1.371  0.5455  0.5128  0.2727
12187TIP3    H157976   5.848   4.762   1.301  0.5196  0.6717  0.4198
12187TIP3    H257977   5.763   4.649   1.356  1.1154 -0.2499 -0.5214
12188TIP3   OH257978   3.111   1.421   2.162  0.2631  0.0704 -0.5159
12188TIP3    H157979   3.181   1.384   2.217  0.2004  0.8169  0.0907
12188TIP3    H257980   3.132   1.393   2.074  1.4182  0.3977 -0.3580
12189TIP3   OH257981   1.342   1.628  16.458  0.1646  0.3920  0.1899
12189TIP3    H157982   1.427   1.645  16.416  0.2056 -1.8729 -0.8031
12189TIP3    H257983   1.364   1.585  16.541  0.0173 -1.0593 -0.4963
12190TIP3   OH257984   5.002   6.091   0.860  0.0602  0.0138 -0.9200
12190TIP3    H157985   4.978   6.054   0.945 -2.9481 -0.2332 -1.7568
12190TIP3    H257986   5.082   6.044   0.835  0.4663 -0.5850  1.3057
12191TIP3   OH257987   6.491   3.451   1.070 -0.4634  0.1985 -0.0166
12191TIP3    H157988   6.557   3.475   1.005 -0.3838 -0.8868 -0.3650
12191TIP3    H257989   6.456   3.368   1.038 -3.2890  1.5589 -0.8223
12192TIP3   OH257990   5.602   4.886   3.489  0.0097  0.3759  0.3685
12192TIP3    H157991   5.694   4.881   3.463 -0.1136  3.7863 -1.4192
12192TIP3    H257992   5.587   4.809   3.543  3.1167 -1.8833 -1.6755
12193TIP3   OH257993   5.524   1.201   4.017 -0.3070 -0.1605 -0.5026
12193TIP3    H157994   5.441   1.171   3.980  0.2041 -1.2473 -0.8060
12193TIP3    H257995   5.556   1.127   4.068  0.5609  0.1731 -0.5415
12194TIP3   OH257996   3.133   5.245   0.185  0.8314  0.3704  0.0494
12194TIP3    H157997   3.103   5.156   0.169  1.4953  0.3761 -1.3955
12194TIP3    H257998   3.135   5.254   0.280  0.7702 -1.1564  0.2063
12195TIP3   OH257999   5.963   0.916   0.759  0.6236  0.2825 -0.2088
12195TIP3    H158000   5.943   0.866   0.838 -0.2582  0.7478 -0.1298
12195TIP3    H258001   5.998   0.999   0.790  0.1789  0.5073 -0.2975
12196TIP3   OH258002   4.158   3.574  15.015  0.0460 -0.0572  0.0636
12196TIP3    H158003   4.103   3.499  14.991  0.8729 -0.1778 -1.6397
12196TIP3    H258004   4.107   3.651  14.988  0.7513 -0.1767 -1.7782
12197TIP3   OH258005   0.364   2.251   5.313  0.0358 -0.1698 -0.1413
12197TIP3    H158006   0.317   2.168   5.307  0.0726 -0.1634 -0.5373
12197TIP3    H258007   0.381   2.276   5.222 -0.9322  0.8034 -0.0822
12198TIP3   OH258008   1.471   6.626  16.037 -0.2478 -0.1591  0.3055
12198TIP3    H158009   1.481   6.626  16.132  2.8833 -0.2471  0.0813
12198TIP3    H258010   1.459   6.534  16.014  0.8954 -0.3799  0.5209
12199TIP3   OH258011   3.789   2.551   6.588 -0.4707 -0.0702  0.0751
12199TIP3    H158012   3.734   2.594   6.522  1.4584  1.6715 -0.4756
12199TIP3    H258013   3.860   2.512   6.538 -0.7671 -1.6726  0.8550
12200TIP3   OH258014   5.769   1.419  10.480 -0.6814 -0.0939  0.0539
12200TIP3    H158015   5.855   1.428  10.520  0.3708 -2.4262 -1.4909
12200TIP3    H258016   5.770   1.479  10.405 -1.2071  1.3666  1.1722
12201TIP3   OH258017   0.480   4.977  11.507  0.1099  0.4301  0.5464
12201TIP3    H158018   0.503   5.064  11.474  0.5319  0.0878 -0.0871
12201TIP3    H258019   0.505   4.917  11.436 -0.9745 -0.1369  0.6194
12202TIP3   OH258020   0.976   5.048   6.143  0.4187 -0.0728  0.0670
12202TIP3    H158021   0.944   5.129   6.183 -1.4495 -0.6696 -0.1179
12202TIP3    H258022   0.898   5.010   6.100  1.0346 -2.3940  0.8706
12203TIP3   OH258023   6.002   5.986  15.831  0.6950 -0.0831 -0.6398
12203TIP3    H158024   5.987   6.060  15.772  1.5000  1.2439  0.7315
12203TIP3    H258025   6.096   5.984  15.844  0.6761 -1.3374 -0.6194
12204TIP3   OH258026   4.544   0.995  15.718 -0.1830  0.0532  0.0632
12204TIP3    H158027   4.603   0.926  15.749 -1.3359 -1.0621 -0.1457
12204TIP3    H258028   4.576   1.074  15.761  1.4800 -0.4997 -0.0727
12205TIP3   OH258029   0.898   1.410   6.454  0.1318 -0.5016 -0.0212
12205TIP3    H158030   0.820   1.407   6.510 -0.2444 -1.8633 -0.5519
12205TIP3    H258031   0.932   1.320   6.456  2.1824  0.2418  0.8400
12206TIP3   OH258032   5.484   6.563  12.621  0.3005  0.5758 -0.4345
12206TIP3    H158033   5.442   6.480  12.645 -0.3458  0.9282 -0.3385
12206TIP3    H258034   5.512   6.550  12.530 -0.7053  0.6002 -0.7628
12207TIP3   OH258035   6.322   1.606  13.970  0.1939 -0.3164 -0.7254
12207TIP3    H158036   6.416   1.600  13.991 -0.0534 -0.0139  0.5956
12207TIP3    H258037   6.279   1.595  14.055 -0.9998 -1.1748 -1.4307
12208TIP3   OH258038   1.269   2.370  16.123  0.0768 -0.1088  0.3904
12208TIP3    H158039   1.291   2.451  16.077 -1.5095  0.6266  0.8699
12208TIP3    H258040   1.353   2.338  16.156  0.6382  1.7877  0.9222
12209TIP3   OH258041   6.378   5.465   1.064 -0.1866  0.2235  0.0963
12209TIP3    H158042   6.462   5.509   1.060 -0.9121  1.5921 -1.9077
12209TIP3    H258043   6.313   5.536   1.060 -1.3992 -0.8866 -2.5211
12210TIP3   OH258044   0.411   2.413  16.362  0.9775 -0.5225  0.8269
12210TIP3    H158045   0.427   2.422  16.456 -1.9487 -0.0770  1.3895
12210TIP3    H258046   0.347   2.342  16.355  0.3667  0.1264 -0.7348
12211TIP3   OH258047   6.430   6.013  16.614  0.5627  0.1489  0.0589
12211TIP3    H158048   6.462   5.937  16.567  0.4871 -0.0102  0.2622
12211TIP3    H258049   6.359   6.047  16.559  1.4871  0.8892 -0.7171
12212TIP3   OH258050   2.208   3.636   3.007  0.0179 -0.1013 -0.1006
12212TIP3    H158051   2.123   3.649   2.966  0.4942  0.8312 -0.8325
12212TIP3    H258052   2.267   3.696   2.961  0.5064  1.3576  2.2140
12213TIP3   OH258053   3.151   5.861  14.592  0.6042  0.3875 -0.4534
12213TIP3    H158054   3.104   5.782  14.564  0.2024  0.3564  0.2603
12213TIP3    H258055   3.091   5.903  14.654  0.4613  1.7098 -1.4694
12214TIP3   OH258056   0.899   0.988  16.171 -0.4082 -0.3604 -0.0283
12214TIP3    H158057   0.995   0.992  16.163 -0.3168 -0.5379  0.9070
12214TIP3    H258058   0.873   0.924  16.105  0.2935 -1.6577  0.9125
12215TIP3   OH258059   5.371   5.869   1.591  0.0841 -0.3273 -0.7137
12215TIP3    H158060   5.325   5.938   1.542 -0.9286 -2.0857 -2.4430
12215TIP3    H258061   5.439   5.839   1.531  0.1418 -1.1758 -0.2405
12216TIP3   OH258062   1.300   1.025   5.545 -0.0030  0.4460  0.2607
12216TIP3    H158063   1.366   1.090   5.568 -0.4581  0.5502  1.3921
12216TIP3    H258064   1.242   1.023   5.622 -1.0488  0.0409 -0.5122
12217TIP3   OH258065   3.377   5.717  12.076 -0.1180 -0.1505 -0.3965
12217TIP3    H158066   3.323   5.773  12.131  0.4784 -0.3086  0.3590
12217TIP3    H258067   3.316   5.652  12.041 -0.4384 -0.2789  0.3763
12218TIP3   OH258068   6.669   6.228   4.062  0.1609 -0.2055  0.5789
12218TIP3    H158069   6.661   6.227   3.967 -1.4633 -0.7866  0.6953
12218TIP3    H258070   6.587   6.191   4.094 -0.1547  1.7606  2.2773
12219TIP3   OH258071   4.100   1.452  11.283 -0.2139 -0.0311 -0.2449
12219TIP3    H158072   4.162   1.384  11.312 -1.5685 -0.6046  1.4462
12219TIP3    H258073   4.142   1.491  11.206  1.1876 -1.9413 -0.5253
12220TIP3   OH258074   2.069   4.342  12.058  0.4185  0.0645  0.1567
12220TIP3    H158075   2.026   4.269  12.103  0.4383 -0.7143 -1.0461
12220TIP3    H258076   2.160   4.337  12.086  0.4882 -0.5809 -0.1585
12221TIP3   OH258077   6.178   3.348  13.717 -0.7438  0.0825 -0.6441
12221TIP3    H158078   6.102   3.313  13.670  0.3050 -0.0716 -2.3297
12221TIP3    H258079   6.172   3.443  13.705  1.0681 -0.0496 -3.8565
12222TIP3   OH258080   5.433   6.745  14.454 -0.5735 -0.2489  0.5680
12222TIP3    H158081   5.494   6.716  14.386  0.1858  0.2668  1.0169
12222TIP3    H258082   5.432   6.672  14.517  2.1879  1.0131  2.2620
12223TIP3   OH258083   4.197   1.446  16.686  0.4018 -0.1405 -0.4511
12223TIP3    H158084   4.190   1.523  16.629 -0.8047  0.0594 -0.0469
12223TIP3    H258085   4.137   1.382  16.647 -1.8155  0.6094  1.5231
12224TIP3   OH258086   2.231   3.109  13.563 -0.0328  0.5893  0.0331
12224TIP3    H158087   2.258   3.138  13.476 -1.1348 -2.1203 -1.3408
12224TIP3    H258088   2.137   3.096  13.555  0.1250 -1.5150  0.9984
12225TIP3   OH258089   6.268   5.887   1.201  0.6240  0.1215  0.0976
12225TIP3    H158090   6.210   5.960   1.180  1.2975  0.6363 -0.0060
12225TIP3    H258091   6.317   5.916   1.278  0.4770 -0.4636  0.4204
12226TIP3   OH258092   5.069   1.124   1.571 -0.5416 -0.1332 -0.3655
12226TIP3    H158093   5.057   1.045   1.623 -0.3282  0.7310  1.0560
12226TIP3    H258094   5.084   1.093   1.481 -0.0902 -1.6969  0.2331
12227TIP3   OH258095   6.565   6.477  12.625 -0.1378 -0.1799  0.5033
12227TIP3    H158096   6.523   6.402  12.667  0.0305 -0.3374  0.3914
12227TIP3    H258097   6.522   6.484  12.540  1.9579 -2.1008 -0.8353
12228TIP3   OH258098   5.530   5.732   5.840  0.4541  0.2289  0.3779
12228TIP3    H158099   5.518   5.637   5.836  2.4707 -0.1502  1.7458
12228TIP3    H258100   5.478   5.759   5.916 -0.5337  0.3167 -0.3176
12229TIP3   OH258101   4.893   5.751   2.302 -0.3342 -0.1870  0.4202
12229TIP3    H158102   4.884   5.800   2.384  2.1158  0.7776  0.2114
12229TIP3    H258103   4.985   5.728   2.299 -0.8638 -2.3222 -0.9473
12230TIP3   OH258104   3.628   0.461  16.099 -0.0163  0.0365  0.8761
12230TIP3    H158105   3.542   0.456  16.057  0.4904 -2.5375 -0.0507
12230TIP3    H258106   3.609   0.457  16.193 -0.9140 -0.9293  0.6768
12231TIP3   OH258107   3.942   2.157   0.428  0.1505  0.4462  0.1862
12231TIP3    H158108   4.016   2.217   0.430  0.3517  0.2604  3.7178
12231TIP3    H258109   3.946   2.110   0.511 -0.8137 -3.5377 -1.7478
12232TIP3   OH258110   1.885   5.046  12.567 -0.2060 -0.4899 -0.5997
12232TIP3    H158111   1.806   5.041  12.621  1.2710  0.9330  1.8296
12232TIP3    H258112   1.873   4.977  12.501 -2.4858 -1.7420  0.9982
12233TIP3   OH258113   5.071   3.454  13.955 -0.1143  0.1948  0.3266
12233TIP3    H158114   4.993   3.465  14.009 -0.0488 -0.9486  0.6973
12233TIP3    H258115   5.126   3.393  14.005 -0.7217 -2.1659 -1.6546
12234TIP3   OH258116   4.069   4.181   3.609  0.2803 -0.1837  0.4045
12234TIP3    H158117   3.990   4.202   3.659  0.0415  0.2585 -0.1570
12234TIP3    H258118   4.043   4.188   3.518  0.8704 -0.4277  0.2106
12235TIP3   OH258119   5.051   3.844   3.021  0.0801  0.1280  0.1334
12235TIP3    H158120   4.991   3.813   3.089  0.5600 -0.5244  0.2662
12235TIP3    H258121   5.104   3.910   3.064 -0.0727  0.2066  0.2031
12236TIP3   OH258122   5.313   0.672  13.970 -0.4263  0.2978 -0.2732
12236TIP3    H158123   5.239   0.614  13.991 -0.2998  0.7727  1.6177
12236TIP3    H258124   5.347   0.700  14.055  1.3968  0.7959 -1.1183
12237TIP3   OH258125   1.460   4.354   2.828  0.2278 -0.3926  0.0174
12237TIP3    H158126   1.448   4.299   2.905  1.1344  0.6189  0.9187
12237TIP3    H258127   1.438   4.298   2.754  0.0596 -1.6103  0.9676
12238TIP3   OH258128   2.879   6.529  14.723 -0.0146  0.2299  0.4600
12238TIP3    H158129   2.809   6.495  14.666 -0.4085 -1.0322  1.6340
12238TIP3    H258130   2.874   6.624  14.712 -1.2090  0.1100 -0.2991
12239TIP3   OH258131   0.501   4.222   1.614 -0.0511 -0.2163 -0.0107
12239TIP3    H158132   0.561   4.147   1.617  0.7002  0.3606 -0.4645
12239TIP3    H258133   0.427   4.195   1.669 -0.5914 -1.9638 -1.5026
12240TIP3   OH258134   5.718   0.540   6.144  0.1303 -0.3720  0.0445
12240TIP3    H158135   5.773   0.514   6.218  1.7223  1.8810 -0.2276
12240TIP3    H258136   5.676   0.459   6.115  1.1208 -1.6850  2.0569
12241TIP3   OH258137   0.643   0.478   0.208 -0.3705 -0.2079  0.0574
12241TIP3    H158138   0.721   0.431   0.239 -1.2306 -0.3681  2.0969
12241TIP3    H258139   0.591   0.411   0.164  0.8505  0.0196 -1.8779
12242TIP3   OH258140   1.586   0.495   3.783  0.4603 -0.1089 -0.3038
12242TIP3    H158141   1.565   0.480   3.875 -2.8956  1.0736 -0.7199
12242TIP3    H258142   1.641   0.573   3.784 -1.6996  1.5275  0.7007
12243TIP3   OH258143   1.907   6.714  12.993 -0.1863  0.4003  0.1934
12243TIP3    H158144   1.936   6.635  12.945 -0.2250  1.4002 -1.5694
12243TIP3    H258145   1.822   6.689  13.030 -0.1056 -0.4548 -0.1573
12244TIP3   OH258146   4.091   6.698   3.440 -0.0393 -0.3265  0.1832
12244TIP3    H158147   4.016   6.705   3.499  2.0453 -0.0254  3.0091
12244TIP3    H258148   4.102   6.786   3.405 -0.5635 -0.1974  0.3309
12245TIP3   OH258149   2.698   3.551  15.722 -0.1984 -0.6009 -0.0213
12245TIP3    H158150   2.658   3.485  15.667  1.1637 -1.2085 -0.3356
12245TIP3    H258151   2.784   3.514  15.745  0.4946  0.9327  0.0019
12246TIP3   OH258152   4.422   0.242   2.858  0.4789  0.0752  0.2831
12246TIP3    H158153   4.474   0.316   2.827 -0.3345  0.7421  0.4571
12246TIP3    H258154   4.385   0.203   2.779  2.3416 -1.2723  0.0382
12247TIP3   OH258155   6.383   2.522   1.977  0.9409 -0.1607  0.0489
12247TIP3    H158156   6.392   2.430   2.003 -0.5959  0.0438  1.4568
12247TIP3    H258157   6.290   2.541   1.983  1.3633  1.9533  1.6047
12248TIP3   OH258158   1.911   2.391   5.839  0.6076 -0.7673 -0.2837
12248TIP3    H158159   1.926   2.484   5.855 -1.5947 -0.1151 -1.6261
12248TIP3    H258160   1.929   2.379   5.746  1.4080 -1.8463 -0.0198
12249TIP3   OH258161   2.649   5.796   3.397 -0.1301 -0.5539  0.0769
12249TIP3    H158162   2.561   5.825   3.372  0.1568 -1.1346 -1.7792
12249TIP3    H258163   2.642   5.701   3.404  0.3543 -0.6112 -0.1738
12250TIP3   OH258164   0.128   1.982  14.037  0.2756  0.1378  0.0349
12250TIP3    H158165   0.219   1.997  14.060 -0.1599  3.1349  0.1159
12250TIP3    H258166   0.127   1.974  13.942  0.5731  0.5555 -0.0032
12251TIP3   OH258167   3.697   3.510   1.202 -0.0845  0.1976 -0.2480
12251TIP3    H158168   3.714   3.521   1.108  0.2638 -1.5463 -0.4190
12251TIP3    H258169   3.612   3.553   1.216 -1.3039 -1.5339 -1.8543
12252TIP3   OH258170   1.230   3.901   1.349  0.0339  0.4568 -0.6165
12252TIP3    H158171   1.274   3.946   1.421  1.3828 -2.4335  0.5563
12252TIP3    H258172   1.299   3.889   1.283  0.3044 -1.5436 -0.0318
12253TIP3   OH258173   4.780   6.457   1.776 -0.4263  0.6481  0.1741
12253TIP3    H158174   4.728   6.485   1.851 -1.2433  0.9935 -0.5101
12253TIP3    H258175   4.716   6.417   1.716  0.1963  0.4805 -0.3871
12254TIP3   OH258176   6.112   5.351   2.426 -0.0345 -0.5760 -0.0522
12254TIP3    H158177   6.121   5.256   2.416  0.6403 -0.3158 -2.7873
12254TIP3    H258178   6.200   5.385   2.416 -0.5747  0.4455 -2.0660
12255TIP3   OH258179   3.441   3.527  12.636 -0.1880  0.5740 -0.0568
12255TIP3    H158180   3.419   3.619  12.619 -0.3342  0.9413  1.9131
12255TIP3    H258181   3.357   3.485  12.651 -0.0403  0.3642  0.1765
12256TIP3   OH258182   6.491   6.668  13.542 -0.6278 -0.1817 -0.1347
12256TIP3    H158183   6.411   6.712  13.570 -0.4401  0.1007 -0.0506
12256TIP3    H258184   6.533   6.641  13.623 -0.6751 -0.3992 -0.1818
12257TIP3   OH258185   3.567   6.613   0.972 -0.4276  0.0015  0.3016
12257TIP3    H158186   3.487   6.569   0.998  0.0309 -1.4025 -0.5862
12257TIP3    H258187   3.567   6.694   1.023 -0.8272 -1.4099  2.6894
12258TIP3   OH258188   0.146   2.305   0.899  0.4241  0.3303 -0.2605
12258TIP3    H158189   0.178   2.393   0.917 -0.3360  0.5386  0.1277
12258TIP3    H258190   0.140   2.301   0.803  1.1654  0.4359 -0.3158
12259TIP3   OH258191   4.218   1.447  13.693  0.2458  0.0060  0.3724
12259TIP3    H158192   4.160   1.442  13.617  0.6492  1.4834 -0.0763
12259TIP3    H258193   4.185   1.382  13.754 -1.7138  0.6104  0.0139
12260TIP3   OH258194   0.691   2.494   0.435  0.0511 -0.0797  0.4044
12260TIP3    H158195   0.716   2.432   0.503  0.3405  0.3873  0.7287
12260TIP3    H258196   0.740   2.467   0.358 -0.9638 -1.1663  0.1135
12261TIP3   OH258197   0.323   0.575  14.206  0.6607  0.1383  0.3209
12261TIP3    H158198   0.394   0.630  14.240 -1.2085  2.9318  0.0120
12261TIP3    H258199   0.345   0.561  14.114 -0.1950  2.9310 -0.3936
12262TIP3   OH258200   6.396   4.749  10.991 -0.1836 -0.6102 -0.1531
12262TIP3    H158201   6.425   4.747  11.082 -0.3916  2.0809  0.0495
12262TIP3    H258202   6.300   4.748  10.996 -0.1953 -0.5115 -0.3491
12263TIP3   OH258203   2.735   0.456  11.244  0.1069 -0.3760 -0.2277
12263TIP3    H158204   2.789   0.521  11.289 -1.6152  0.8767  0.1338
12263TIP3    H258205   2.696   0.504  11.171 -2.6052 -0.4185  1.0605
12264TIP3   OH258206   4.718   5.620  15.381  0.6580 -0.4028 -0.2443
12264TIP3    H158207   4.636   5.649  15.341  0.1934 -0.8755  0.3618
12264TIP3    H258208   4.694   5.546  15.436  1.4028 -0.2016  0.3775
12265TIP3   OH258209   4.812   6.401  14.408 -0.0578 -0.1816  0.0940
12265TIP3    H158210   4.828   6.456  14.484 -0.1469  2.1577 -1.4883
12265TIP3    H258211   4.898   6.393  14.365 -0.3681  0.1771 -0.6082
12266TIP3   OH258212   0.057   0.849  16.590  0.3325 -0.2112  0.0768
12266TIP3    H158213  -0.027   0.895  16.594  0.7288  0.5152  0.2073
12266TIP3    H258214   0.066   0.824  16.498  1.8489  3.3392 -0.8943
12267TIP3   OH258215   0.341   3.129  11.641  0.5278  0.3831 -0.2736
12267TIP3    H158216   0.421   3.179  11.655  0.4822  0.0742  1.2158
12267TIP3    H258217   0.371   3.041  11.619  0.6419  0.0344  1.1504
12268TIP3   OH258218   4.444   4.145  17.172 -0.3340 -0.0331 -0.2160
12268TIP3    H158219   4.512   4.077  17.167 -1.4524 -1.1434 -0.6782
12268TIP3    H258220   4.467   4.206  17.102  1.3274  0.7070  0.9210
12269TIP3   OH258221   5.180   1.907  12.143  0.0380 -0.6511 -0.2471
12269TIP3    H158222   5.243   1.837  12.130  1.3953  0.6903 -1.3030
12269TIP3    H258223   5.114   1.893  12.075 -0.2217 -1.4250  0.1557
12270TIP3   OH258224   1.481   3.295   0.148 -0.7582  0.1553  0.2879
12270TIP3    H158225   1.479   3.383   0.186  1.6902  0.5916 -0.3720
12270TIP3    H258226   1.445   3.306   0.060  0.3635  0.7581 -0.1299
12271TIP3   OH258227   5.839   5.199  16.782  0.3658 -0.1701 -0.4899
12271TIP3    H158228   5.911   5.148  16.746 -0.9749 -1.0015 -2.1323
12271TIP3    H258229   5.764   5.177  16.727 -1.1818  0.5995  1.2031
12272TIP3   OH258230   2.539   6.292  15.199 -0.1763 -0.1632  0.2905
12272TIP3    H158231   2.456   6.314  15.156  0.1883  1.0384  0.1569
12272TIP3    H258232   2.606   6.329  15.141  0.5693 -2.4878 -0.4453
12273TIP3   OH258233   4.941   1.743   1.451 -0.3700 -0.4294  0.2370
12273TIP3    H158234   4.869   1.689   1.483 -0.9763  0.2286 -0.0072
12273TIP3    H258235   4.989   1.685   1.391  0.1198 -1.3027  1.4294
12274TIP3   OH258236   0.760   3.483  16.298  0.3063  0.2542  0.5605
12274TIP3    H158237   0.766   3.509  16.206 -0.9528 -1.2268  0.0139
12274TIP3    H258238   0.844   3.441  16.316 -0.0460 -0.9307 -0.4383
12275TIP3   OH258239   3.755   3.015   5.593 -0.3787 -0.6217  0.0035
12275TIP3    H158240   3.815   2.983   5.660  1.6401  1.7774 -0.5193
12275TIP3    H258241   3.738   2.939   5.538 -1.6188 -2.5266  2.7542
12276TIP3   OH258242   3.439   3.418   2.690  0.0456 -0.3982  0.0182
12276TIP3    H158243   3.452   3.411   2.784  0.2214 -3.1069 -0.1176
12276TIP3    H258244   3.377   3.347   2.669  0.0059  0.1422 -1.9031
12277TIP3   OH258245   6.752   0.945   2.453 -0.1943 -0.4691  0.5746
12277TIP3    H158246   6.817   0.923   2.519  0.4171  0.9249  0.4673
12277TIP3    H258247   6.727   1.035   2.472 -1.1783 -0.5737 -0.1404
12278TIP3   OH258248   3.960   6.753  12.341  0.4004  0.0384  0.3329
12278TIP3    H158249   3.987   6.745  12.432 -2.0729  2.5703  1.4661
12278TIP3    H258250   3.901   6.679  12.326 -0.2861  0.3786  1.2908
12279TIP3   OH258251   2.996   2.509   1.371 -0.1651  0.1286 -0.2521
12279TIP3    H158252   2.914   2.485   1.414 -0.6407  1.2403 -0.5000
12279TIP3    H258253   3.010   2.600   1.396 -0.1032  0.6001 -1.9100
12280TIP3   OH258254   3.593   2.436  11.311 -0.6926  0.1934 -0.8443
12280TIP3    H158255   3.514   2.432  11.257 -0.7992  0.1427 -0.6843
12280TIP3    H258256   3.563   2.417  11.400 -0.2457 -1.7062 -1.0437
12281TIP3   OH258257   2.926   3.540   5.792  0.0650 -0.0377  0.9941
12281TIP3    H158258   2.832   3.545   5.772  0.2285 -1.0102 -0.1543
12281TIP3    H258259   2.935   3.586   5.876 -1.0201  2.3991 -0.1252
12282TIP3   OH258260   0.456   6.479  14.084  0.5317 -0.4941 -0.1444
12282TIP3    H158261   0.528   6.508  14.027 -0.9852  1.7062 -1.1062
12282TIP3    H258262   0.410   6.413  14.032 -0.1245  0.6196 -1.0393
12283TIP3   OH258263   5.494   4.928  16.158 -0.4978 -0.0937 -0.2910
12283TIP3    H158264   5.566   4.886  16.111  0.9996  1.7332  0.2011
12283TIP3    H258265   5.526   5.017  16.176 -2.4068  0.4014  1.0506
12284TIP3   OH258266   2.346   4.363   5.486  0.1697 -0.8074  0.4208
12284TIP3    H158267   2.280   4.369   5.555  0.1043 -1.7689  0.4526
12284TIP3    H258268   2.429   4.378   5.532  0.0297 -0.1046  0.4662
12285TIP3   OH258269   3.217   6.000  14.839 -0.9358  0.7004  0.2812
12285TIP3    H158270   3.261   5.920  14.809  1.3757  0.9284  2.6406
12285TIP3    H258271   3.255   6.070  14.787 -1.1814  0.5051 -0.1594
12286TIP3   OH258272   5.704   1.827   3.494  0.1072  0.1280 -0.6348
12286TIP3    H158273   5.697   1.808   3.400 -0.8201  0.0506 -0.5557
12286TIP3    H258274   5.766   1.762   3.527  3.3659  2.3642 -1.8170
12287TIP3   OH258275   5.829   0.129   3.463  0.4685 -0.2478  0.1851
12287TIP3    H158276   5.825   0.053   3.522 -1.4663 -1.7120 -1.6661
12287TIP3    H258277   5.738   0.157   3.454  0.6024 -0.3832 -2.3910
12288TIP3   OH258278   1.145   2.632   5.017 -0.3233 -0.0023  0.8920
12288TIP3    H158279   1.201   2.636   5.095 -0.7931  2.3627  1.1600
12288TIP3    H258280   1.130   2.723   4.993 -2.7582 -0.6072 -0.1455
12289TIP3   OH258281   0.883   2.450   2.488 -0.6833 -0.4031 -0.4067
12289TIP3    H158282   0.977   2.457   2.471 -0.8412 -2.1720 -2.5009
12289TIP3    H258283   0.846   2.530   2.450 -0.0549  0.2180  0.2676
12290TIP3   OH258284   6.292   1.151   0.444 -0.1191  0.3158 -0.2461
12290TIP3    H158285   6.344   1.177   0.520  0.8052 -0.0943 -0.7219
12290TIP3    H258286   6.270   1.234   0.400 -0.2512  0.5186  0.1958
12291TIP3   OH258287   0.144   1.280   3.741 -0.8650  0.0328 -0.1691
12291TIP3    H158288   0.092   1.205   3.771  0.1718 -1.5364 -2.0439
12291TIP3    H258289   0.231   1.243   3.723  0.3531  2.1633  0.9230
12292TIP3   OH258290   5.974   5.309   3.912  0.1157  0.3645 -0.5340
12292TIP3    H158291   5.917   5.251   3.862  1.2866 -1.9145  0.6205
12292TIP3    H258292   6.011   5.368   3.848 -1.3940  0.0938 -1.7163
12293TIP3   OH258293   6.520   5.818  13.334  0.0760  0.0605  0.2400
12293TIP3    H158294   6.445   5.878  13.334 -0.0103 -0.0481  0.2214
12293TIP3    H258295   6.522   5.783  13.423  1.0467  1.2485  0.7262
12294TIP3   OH258296   1.244   1.067   0.415  0.4662  0.1889  0.0030
12294TIP3    H158297   1.284   1.003   0.474 -0.1479 -0.3192 -0.1180
12294TIP3    H258298   1.318   1.112   0.374  0.9320  1.2018  1.8171
12295TIP3   OH258299   0.028   6.443   0.370  0.7896 -0.4660  0.1111
12295TIP3    H158300  -0.036   6.372   0.369 -0.2613  0.3950  1.8652
12295TIP3    H258301  -0.006   6.508   0.309 -0.6126  0.4278  1.7590
12296TIP3   OH258302   6.142   4.338   4.211 -0.0247  0.2927  0.4486
12296TIP3    H158303   6.118   4.315   4.121 -0.3356  0.5283  0.4715
12296TIP3    H258304   6.134   4.256   4.260  1.1116 -0.0625  0.0647
12297TIP3   OH258305   3.705   2.608  13.112 -0.0467  0.5057 -0.3664
12297TIP3    H158306   3.735   2.625  13.202  0.4374 -1.3154 -0.1478
12297TIP3    H258307   3.652   2.684  13.090  1.9582  2.2476  0.4822
12298TIP3   OH258308   1.885   4.837   4.067 -0.0895  0.2294  0.2418
12298TIP3    H158309   1.921   4.909   4.016 -2.0653  0.5385 -0.8111
12298TIP3    H258310   1.946   4.764   4.053  1.9110  1.6110  1.2696
12299TIP3   OH258311   1.313   1.054  17.146  0.1907 -0.0479  0.5903
12299TIP3    H158312   1.394   1.035  17.099 -0.3662  0.1147 -0.4737
12299TIP3    H258313   1.286   0.969  17.181  1.9422  0.2514  2.8811
12300TIP3   OH258314   6.555   3.911   4.007 -0.2087  0.6939  0.4401
12300TIP3    H158315   6.509   3.995   4.002 -0.6527  0.4788  0.8314
12300TIP3    H258316   6.511   3.864   4.077  0.8480  0.6279  1.0903
12301TIP3   OH258317   0.307   1.344  15.875 -0.9216 -0.2026  0.4610
12301TIP3    H158318   0.324   1.253  15.849  2.2656  0.4642 -0.2289
12301TIP3    H258319   0.340   1.349  15.965 -1.0150  0.3145  0.4668
12302TIP3   OH258320   0.810   3.767  15.437  0.2301 -0.2402  0.6532
12302TIP3    H158321   0.737   3.738  15.492  0.3390 -1.4642  0.1691
12302TIP3    H258322   0.801   3.717  15.356 -0.1895  1.8474 -0.6608
12303TIP3   OH258323   5.187   0.251  13.176 -0.8573 -0.2053  0.3150
12303TIP3    H158324   5.231   0.218  13.098 -0.9201 -1.0940  0.6429
12303TIP3    H258325   5.144   0.174  13.214 -0.7595  0.1920  1.2678
12304TIP3   OH258326   3.548   2.505  16.697  0.3042 -0.6827 -0.3147
12304TIP3    H158327   3.610   2.471  16.633  0.2825 -1.6117  0.1285
12304TIP3    H258328   3.564   2.599  16.700  2.1660 -0.9811  0.2739
12305TIP3   OH258329   6.783   2.461  16.048 -0.4148  0.6064 -0.3150
12305TIP3    H158330   6.699   2.434  16.011 -0.7245 -2.2062  2.0456
12305TIP3    H258331   6.760   2.528  16.113 -1.1684 -1.1723  1.3779
12306TIP3   OH258332   2.558   5.883  12.767 -0.2941 -0.4989  0.5012
12306TIP3    H158333   2.493   5.901  12.835 -0.3140  1.9519 -0.0676
12306TIP3    H258334   2.507   5.875  12.687 -0.0058  1.1017  0.1069
12307TIP3   OH258335   2.957   4.482  12.943 -0.4291  0.2473 -1.0775
12307TIP3    H158336   3.043   4.524  12.943 -0.4358  0.5411  2.0872
12307TIP3    H258337   2.896   4.551  12.920  0.0442  0.4186 -1.8404
12308TIP3   OH258338   6.345   1.010  13.482  0.0294 -0.1232 -0.1699
12308TIP3    H158339   6.441   1.013  13.480  0.0469 -0.7190 -0.3083
12308TIP3    H258340   6.318   1.102  13.476  0.5672 -0.0265 -1.7196
12309TIP3   OH258341   5.951   1.946  12.985  0.0341 -0.4665 -0.0806
12309TIP3    H158342   5.931   1.990  12.902  1.7465  0.2553 -0.1544
12309TIP3    H258343   6.033   1.900  12.969  1.8706  1.8652  1.8911
12310TIP3   OH258344   2.561   4.721  12.228 -0.3173 -0.4327  0.7871
12310TIP3    H158345   2.649   4.748  12.254 -0.4225  2.0578 -1.1171
12310TIP3    H258346   2.564   4.717  12.132 -2.4594  0.4409  0.6251
12311TIP3   OH258347   5.085   4.124   2.030 -0.0406 -0.1099 -0.4308
12311TIP3    H158348   5.062   4.214   2.054  0.2664  0.0475 -0.7196
12311TIP3    H258349   5.000   4.081   2.017 -0.1903  0.1098 -0.1917
12312TIP3   OH258350   0.226   3.609   0.362  0.0323 -0.6072  0.2833
12312TIP3    H158351   0.204   3.592   0.270 -1.0018 -1.6575  0.6936
12312TIP3    H258352   0.153   3.663   0.394  0.1223 -0.6834  0.6215
12313TIP3   OH258353   2.971   3.022   1.072  0.3190  0.0080 -0.2659
12313TIP3    H158354   2.897   3.021   1.133 -1.1547  1.5153 -1.9157
12313TIP3    H258355   3.042   2.979   1.120 -0.2679  2.3843  3.0787
12314TIP3   OH258356   3.609   3.879  14.873 -0.3505  0.1394 -0.4016
12314TIP3    H158357   3.664   3.957  14.878 -1.0208  0.5307  2.3153
12314TIP3    H258358   3.520   3.912  14.879 -0.6376 -0.8025  1.0803
12315TIP3   OH258359   6.625   3.109  15.369  0.1875 -0.1164  0.3277
12315TIP3    H158360   6.585   3.054  15.301 -0.9847 -1.0375  1.7153
12315TIP3    H258361   6.646   3.049  15.440  3.3782  0.4811  0.0268
12316TIP3   OH258362   0.462   0.469   0.421  0.1483 -0.4425 -0.3494
12316TIP3    H158363   0.523   0.516   0.364  0.9445  0.0264  0.8357
12316TIP3    H258364   0.378   0.472   0.375  1.0037 -1.1109 -2.0346
12317TIP3   OH258365   4.533   5.178   1.051  0.1703 -0.3252  0.0407
12317TIP3    H158366   4.609   5.157   0.998  2.2411  0.3910  2.5139
12317TIP3    H258367   4.561   5.164   1.141 -2.7832 -0.4164  1.0743
12318TIP3   OH258368   0.652   2.054  13.137 -0.1292  0.2997  0.3023
12318TIP3    H158369   0.595   2.129  13.120  0.7189  0.4427 -2.2933
12318TIP3    H258370   0.603   1.979  13.105 -0.0935  0.0087  0.9179
12319TIP3   OH258371   5.497   6.316  11.357 -0.3185 -0.1057  0.0267
12319TIP3    H158372   5.555   6.291  11.430 -0.3055 -0.1875 -0.0112
12319TIP3    H258373   5.451   6.235  11.335  1.0906 -0.6008 -1.3509
12320TIP3   OH258374   2.426   4.415   4.597  0.4040 -0.2189  0.2041
12320TIP3    H158375   2.348   4.421   4.651  0.5461  0.0812  0.3791
12320TIP3    H258376   2.487   4.362   4.648  0.0324 -1.1324 -0.2772
12321TIP3   OH258377   0.959   0.655   0.763 -0.5458 -0.2163 -0.6158
12321TIP3    H158378   1.011   0.651   0.844 -1.5580 -1.0202  0.0278
12321TIP3    H258379   0.917   0.741   0.766 -1.0288 -0.4618  0.0299
12322TIP3   OH258380   3.457   2.947   2.684 -0.2422 -0.0159 -0.6279
12322TIP3    H158381   3.414   3.027   2.716 -0.8922 -0.2077 -1.0191
12322TIP3    H258382   3.431   2.879   2.746  0.8728  0.2075  0.1053
12323TIP3   OH258383   2.101   1.715  14.036  0.1591  0.1159 -0.5301
12323TIP3    H158384   2.012   1.713  14.071 -0.3918 -1.3489 -1.8654
12323TIP3    H258385   2.098   1.777  13.964  0.3146  0.3423 -0.3423
12324TIP3   OH258386   5.441   2.190  15.283  0.9517 -0.4079 -0.1268
12324TIP3    H158387   5.434   2.280  15.313  1.0230 -0.4223 -0.0675
12324TIP3    H258388   5.416   2.193  15.191 -0.1301 -0.5021  0.1526
12325TIP3   OH258389   2.994   3.006  14.517 -0.1650 -0.3352  0.2048
12325TIP3    H158390   2.947   3.033  14.597 -1.0107  1.7709 -0.9138
12325TIP3    H258391   2.937   3.034  14.446  1.6631  0.0280 -1.1776
12326TIP3   OH258392   5.806   5.195  14.999 -0.7168  0.0786 -0.2142
12326TIP3    H158393   5.798   5.289  14.980 -2.1093  0.2323  0.9858
12326TIP3    H258394   5.748   5.153  14.935  2.2944 -0.3462 -2.9514
12327TIP3   OH258395   3.947   4.852  14.873 -0.0591 -0.2024  0.0651
12327TIP3    H158396   3.851   4.860  14.876 -0.1577 -0.9384 -0.9461
12327TIP3    H258397   3.978   4.940  14.895 -0.9516 -0.0707  0.8920
12328TIP3   OH258398   1.422   1.220   3.766 -0.4237 -0.1863  0.6682
12328TIP3    H158399   1.399   1.313   3.767 -1.0526 -0.3260  0.1104
12328TIP3    H258400   1.416   1.192   3.858  1.9341  0.8113  1.2052
12329TIP3   OH258401   5.870   6.322  11.444 -0.2906  0.4950 -0.0839
12329TIP3    H158402   5.918   6.244  11.473 -3.5111 -2.0585 -0.8738
12329TIP3    H258403   5.811   6.341  11.517  1.8059  3.6906  0.9677
12330TIP3   OH258404   6.766   1.882  13.542 -0.0214 -0.7178  0.6420
12330TIP3    H158405   6.760   1.788  13.557  0.4634 -1.2083 -1.8016
12330TIP3    H258406   6.773   1.891  13.447 -0.8211  1.8418  0.7404
12331TIP3   OH258407   0.265   6.344  10.960  0.0192 -0.7078 -0.0915
12331TIP3    H158408   0.329   6.402  10.919 -1.0082  1.1357  0.8006
12331TIP3    H258409   0.314   6.301  11.030  0.5563 -0.1270 -0.1024
12332TIP3   OH258410   0.306   2.437  12.581 -0.3306 -0.1924  0.2159
12332TIP3    H158411   0.366   2.495  12.628  0.1642 -0.7811  0.3219
12332TIP3    H258412   0.348   2.423  12.496 -0.5956 -0.1548  0.0785
12333TIP3   OH258413   3.852   2.695   4.878 -0.1958 -0.0502 -0.3449
12333TIP3    H158414   3.899   2.763   4.830  2.0274 -1.1758  0.1231
12333TIP3    H258415   3.783   2.667   4.818  0.5065  0.7846 -1.5822
12334TIP3   OH258416   5.373   6.243  13.114 -0.3361 -0.1326  0.2596
12334TIP3    H158417   5.340   6.323  13.073  1.7987  2.2514  2.7910
12334TIP3    H258418   5.354   6.255  13.207  2.0341 -1.4790  0.9872
12335TIP3   OH258419   0.417   1.410   3.322 -0.1169 -0.5678  0.0209
12335TIP3    H158420   0.389   1.443   3.237 -2.9586 -1.5013  0.5056
12335TIP3    H258421   0.505   1.375   3.306  0.2401  1.0636 -2.0079
12336TIP3   OH258422   3.487   6.773  16.103 -0.2923 -0.0997 -0.2675
12336TIP3    H158423   3.561   6.735  16.056 -0.8583  0.6342 -1.8085
12336TIP3    H258424   3.500   6.867  16.097 -1.3256  0.0350 -0.5350
12337TIP3   OH258425   3.789   3.906   3.428 -0.3677  0.2369 -0.3796
12337TIP3    H158426   3.767   3.970   3.360 -2.9554 -1.2681 -1.0861
12337TIP3    H258427   3.757   3.945   3.509 -2.9367 -0.4653 -0.9490
12338TIP3   OH258428   6.460   5.176  14.214  0.4371 -0.1979 -0.2281
12338TIP3    H158429   6.443   5.090  14.251 -0.5556  0.4583  0.8943
12338TIP3    H258430   6.471   5.160  14.120 -1.2291 -1.3594 -0.2585
12339TIP3   OH258431   4.934   4.526   2.938  0.6754  0.3980  0.9780
12339TIP3    H158432   4.852   4.479   2.922 -0.1439  1.5543  1.5887
12339TIP3    H258433   4.989   4.464   2.985  1.3501 -1.4604 -1.9913
12340TIP3   OH258434   4.074   2.050  12.856  0.1948  0.2704  0.3426
12340TIP3    H158435   4.003   1.986  12.862 -0.1462  0.5792 -0.1780
12340TIP3    H258436   4.108   2.038  12.767 -0.9333  1.8611 -0.3626
12341TIP3   OH258437   2.061   5.054  10.522 -0.4865  0.2458 -0.4815
12341TIP3    H158438   2.145   5.073  10.479  0.0196  1.9186  1.1127
12341TIP3    H258439   2.079   4.977  10.575 -0.5555 -0.6126 -1.6665
12342TIP3   OH258440   6.453   6.356  17.006  0.7071  0.3025 -0.5315
12342TIP3    H158441   6.466   6.321  16.918  0.4489  0.8049 -0.7740
12342TIP3    H258442   6.540   6.383  17.035  0.6725  0.8926 -0.9607
12343TIP3   OH258443   6.459   5.404   6.213  0.3711  0.2185 -0.3386
12343TIP3    H158444   6.386   5.388   6.153 -1.8459  1.6744  1.8013
12343TIP3    H258445   6.430   5.370   6.297  2.5794 -0.0191  0.3979
12344TIP3   OH258446   5.790   3.579   1.261 -0.4481 -0.0078 -0.1459
12344TIP3    H158447   5.777   3.672   1.279  0.0627 -0.1593  1.0870
12344TIP3    H258448   5.861   3.578   1.197  0.0553  0.4258  0.3945
12345TIP3   OH258449   5.863   1.132   5.237 -0.9391 -0.1285 -0.3444
12345TIP3    H158450   5.909   1.065   5.287  0.6905 -0.0533 -1.6806
12345TIP3    H258451   5.923   1.206   5.234 -1.7989  0.5748 -0.8037
12346TIP3   OH258452   5.797   3.260   0.636 -0.6351  0.1136  0.2406
12346TIP3    H158453   5.864   3.239   0.571 -0.4243 -1.2976  0.8716
12346TIP3    H258454   5.714   3.244   0.591 -0.4941 -0.5099  0.1814
12347TIP3   OH258455   3.091   1.270   5.260  0.3055 -0.3398 -0.5242
12347TIP3    H158456   3.125   1.334   5.197  1.3624  1.2148  1.5244
12347TIP3    H258457   3.116   1.185   5.223  0.8783  0.5029 -2.1802
12348TIP3   OH258458   2.185   1.998  14.406 -0.2109 -0.4263  0.0161
12348TIP3    H158459   2.096   2.027  14.430 -0.4467 -1.8127  0.9245
12348TIP3    H258460   2.174   1.908  14.377  1.0542 -1.0675  1.3992
12349TIP3   OH258461   0.449   5.112  11.177 -0.2663  0.2156 -0.2091
12349TIP3    H158462   0.473   5.063  11.099  0.7462  0.5877 -0.1406
12349TIP3    H258463   0.387   5.055  11.223  0.3355 -0.6801 -0.4930
12350TIP3   OH258464   2.570   4.894  13.060 -0.2126 -0.6002 -0.0581
12350TIP3    H158465   2.599   4.902  13.151  2.5329 -0.6951 -0.8206
12350TIP3    H258466   2.572   4.799  13.044  0.0439 -0.5365 -0.4073
12351TIP3   OH258467   0.267   4.549   0.261 -0.2236 -0.6751 -0.4684
12351TIP3    H158468   0.325   4.575   0.332 -0.8018 -0.6569  0.0014
12351TIP3    H258469   0.264   4.626   0.203 -1.2897  0.0344  0.4969
12352TIP3   OH258470   5.328   0.238  14.106 -0.2335 -0.0687 -0.6684
12352TIP3    H158471   5.331   0.213  14.199  0.4909  1.7916 -0.1447
12352TIP3    H258472   5.409   0.203  14.070  0.9487  1.7161  0.1371
12353TIP3   OH258473   4.932   4.432   3.326  0.0884  0.4821  0.0568
12353TIP3    H158474   5.022   4.432   3.295  0.1483 -1.0174  0.1878
12353TIP3    H258475   4.937   4.398   3.415 -0.7718 -1.3117 -0.5393
12354TIP3   OH258476   3.383   6.694   0.184  0.0365 -0.3483  0.2729
12354TIP3    H158477   3.375   6.604   0.215 -1.1003 -0.8363 -1.3515
12354TIP3    H258478   3.443   6.689   0.110 -0.5009  0.1314 -0.2022
12355TIP3   OH258479   6.747   2.402   1.506 -0.1791 -0.5110 -0.0157
12355TIP3    H158480   6.703   2.455   1.439 -1.1200  0.5183  1.3629
12355TIP3    H258481   6.755   2.460   1.582 -0.1642 -1.9909  1.1683
12356TIP3   OH258482   2.362   3.243   5.160  0.6595 -0.4106  0.2575
12356TIP3    H158483   2.442   3.199   5.188  0.0546 -1.2755  0.6427
12356TIP3    H258484   2.322   3.275   5.241  0.5554 -0.0736  0.0764
12357TIP3   OH258485   6.663   6.092  10.954 -0.4882  0.3320  0.2485
12357TIP3    H158486   6.703   6.009  10.982 -1.2580  0.0246  0.4641
12357TIP3    H258487   6.569   6.076  10.959 -0.6445  0.8958 -0.7075
12358TIP3   OH258488   6.261   4.771   3.385 -0.6164 -0.0296 -1.1500
12358TIP3    H158489   6.218   4.857   3.389  1.6213  1.1560 -1.0531
12358TIP3    H258490   6.286   4.754   3.476  2.2864  1.0841 -1.6505
12359TIP3   OH258491   2.325   4.883   1.470  0.3748  0.1465  0.1370
12359TIP3    H158492   2.251   4.867   1.411  0.1477  1.7666 -0.0652
12359TIP3    H258493   2.286   4.928   1.545  0.8461 -0.8675  1.0250
12360TIP3   OH258494   4.741   0.129   4.672  0.6246 -0.3084  0.1017
12360TIP3    H158495   4.813   0.179   4.711  2.1383 -2.1039 -0.2410
12360TIP3    H258496   4.715   0.067   4.740  1.6048 -1.8041 -0.8367
12361TIP3   OH258497   1.049   5.652  14.491 -0.1137 -0.1110 -0.5209
12361TIP3    H158498   1.041   5.663  14.586 -1.4576 -0.5563 -0.5566
12361TIP3    H258499   1.082   5.563  14.480 -1.4889 -0.6440 -0.4854
12362TIP3   OH258500   1.952   5.329   2.700 -0.1796 -0.1025 -0.4823
12362TIP3    H158501   1.918   5.411   2.735 -1.6613  0.4839 -3.0006
12362TIP3    H258502   2.038   5.351   2.666  0.7264 -0.3849  1.4799
12363TIP3   OH258503   2.979   5.303  15.679 -0.0989  0.6699  0.4433
12363TIP3    H158504   2.910   5.250  15.639  0.6496 -0.6744  0.8451
12363TIP3    H258505   2.961   5.392  15.651  0.0541 -0.1083 -2.4099
12364TIP3   OH258506   4.090   1.434   4.039 -0.0952 -0.2905 -0.1120
12364TIP3    H158507   4.059   1.522   4.020 -1.5180 -0.6044  0.5978
12364TIP3    H258508   4.184   1.444   4.054  0.0558  0.8343 -1.5673
12365TIP3   OH258509   5.632   0.319   3.962  0.1944  0.4837  0.0265
12365TIP3    H158510   5.690   0.341   3.890 -1.6450  0.3113 -1.6056
12365TIP3    H258511   5.655   0.229   3.985  0.6920  0.4813 -0.4745
12366TIP3   OH258512   4.651   2.218   0.071 -0.1584  0.4834  0.1316
12366TIP3    H158513   4.590   2.178   0.009  1.4711 -0.6901 -0.8059
12366TIP3    H258514   4.730   2.235   0.019 -0.4612  4.3315  0.6520
12367TIP3   OH258515   3.799   2.067   5.464  0.0601 -0.1455  0.5771
12367TIP3    H158516   3.726   2.083   5.403  0.9974  0.9517 -0.2908
12367TIP3    H258517   3.820   2.153   5.499 -0.1642 -0.6987  2.1619
12368TIP3   OH258518   1.260   2.134  15.441  0.0481  0.0988 -0.0811
12368TIP3    H158519   1.331   2.098  15.388 -0.9523 -2.9969  0.4257
12368TIP3    H258520   1.301   2.161  15.523  0.7162 -1.4958  0.1442
12369TIP3   OH258521   4.846   4.848  11.213 -0.5279  0.1757 -0.2390
12369TIP3    H158522   4.799   4.910  11.157 -1.0865  0.5165  0.5889
12369TIP3    H258523   4.938   4.873  11.204 -0.2686 -1.3957 -2.9961
12370TIP3   OH258524   4.292   5.237  14.058  0.5290  0.5411  0.7277
12370TIP3    H158525   4.276   5.165  14.119 -0.4384  0.4897  0.4226
12370TIP3    H258526   4.205   5.265  14.030  0.9512 -0.6571 -2.0687
12371TIP3   OH258527   2.305   4.478  12.055 -0.1203 -0.3466  0.0011
12371TIP3    H158528   2.389   4.461  12.098 -0.3443 -1.7341 -0.0890
12371TIP3    H258529   2.328   4.496  11.964  0.1111 -0.2879  0.0700
12372TIP3   OH258530   1.985   1.225   2.749 -0.0334 -0.3196  0.0514
12372TIP3    H158531   1.916   1.167   2.783  0.9733 -1.3245  0.4632
12372TIP3    H258532   2.024   1.176   2.677  1.2745 -0.4690  0.8291
12373TIP3   OH258533   1.651   6.134   2.812  0.1662 -0.3623 -0.2517
12373TIP3    H158534   1.594   6.159   2.740  0.7362  0.5011 -0.4160
12373TIP3    H258535   1.617   6.049   2.841 -0.4092 -0.4622 -1.1690
12374TIP3   OH258536   0.177   4.556   5.427 -0.6075  0.0218 -0.2603
12374TIP3    H158537   0.089   4.523   5.408 -0.8743  0.2954  0.4542
12374TIP3    H258538   0.166   4.610   5.505  0.1262  0.4001 -0.4067
12375TIP3   OH258539   6.279   1.260   4.646  0.1468 -0.7555 -0.0410
12375TIP3    H158540   6.258   1.320   4.718  0.5531 -0.1394 -0.4189
12375TIP3    H258541   6.197   1.252   4.597  0.4054  0.5765 -0.7500
12376TIP3   OH258542   5.809   0.334   3.770 -0.1025  0.7748 -0.9510
12376TIP3    H158543   5.890   0.318   3.721 -0.3361  1.8061 -1.7240
12376TIP3    H258544   5.763   0.401   3.718 -1.0520  0.8228 -0.0776
12377TIP3   OH258545   0.531   3.255  14.240 -0.4004  0.2797  0.3933
12377TIP3    H158546   0.626   3.266  14.251 -0.3366  0.9277 -0.6499
12377TIP3    H258547   0.518   3.160  14.236 -0.0175  0.1091  2.1445
12378TIP3   OH258548   1.505   1.428  17.019 -0.2521  0.5506 -0.5955
12378TIP3    H158549   1.497   1.380  17.102  0.8105 -0.1842 -0.8993
12378TIP3    H258550   1.509   1.520  17.045 -1.3701  0.4251  0.0654
12379TIP3   OH258551   3.699   5.826   3.728  0.1864 -0.4723 -0.0152
12379TIP3    H158552   3.682   5.810   3.821 -0.2012 -0.4244 -0.0760
12379TIP3    H258553   3.684   5.920   3.718 -1.8763 -0.7987 -0.5467
12380TIP3   OH258554   1.376   6.595  11.214 -0.0896 -0.3245 -0.1380
12380TIP3    H158555   1.392   6.642  11.132  0.5143  1.2222  0.8195
12380TIP3    H258556   1.445   6.529  11.219  0.0579 -0.2167 -0.7221
12381TIP3   OH258557   0.021   4.824   2.180  0.0406  0.5737  0.6216
12381TIP3    H158558   0.081   4.847   2.251 -0.3961 -0.8143  1.4671
12381TIP3    H258559   0.061   4.748   2.139  0.1435  1.1951 -0.4642
12382TIP3   OH258560   4.501   4.571   1.542 -0.1968 -0.0765  0.6030
12382TIP3    H158561   4.461   4.577   1.629 -2.5912 -2.6069 -0.2026
12382TIP3    H258562   4.428   4.588   1.481  1.0877  0.0923 -0.9509
12383TIP3   OH258563   2.617   3.282   2.364  0.1293 -0.3764 -0.0943
12383TIP3    H158564   2.620   3.217   2.435 -0.0171  0.3844  0.6306
12383TIP3    H258565   2.695   3.265   2.312  0.2784 -0.8996  0.2897
12384TIP3   OH258566   0.689   1.694  11.254 -0.0760  0.1244  0.2268
12384TIP3    H158567   0.633   1.770  11.268  1.0104  0.6662  1.9370
12384TIP3    H258568   0.773   1.719  11.292  0.3550 -1.8873  0.6884
12385TIP3   OH258569   3.075   2.139   0.124  0.2400  0.4239  0.4290
12385TIP3    H158570   3.168   2.120   0.112 -0.3810 -3.6639  0.6714
12385TIP3    H258571   3.050   2.187   0.045  2.3330  0.7687 -0.0804
12386TIP3   OH258572   3.808   0.125  14.786  0.5826  0.2051  0.2310
12386TIP3    H158573   3.753   0.058  14.747  0.6156 -0.1352  0.7511
12386TIP3    H258574   3.775   0.133  14.876  2.0051 -0.7141  0.8655
12387TIP3   OH258575   5.324   0.142   6.187  0.0346 -0.3868  0.3127
12387TIP3    H158576   5.410   0.104   6.169 -0.3013 -1.0671  0.1213
12387TIP3    H258577   5.318   0.142   6.283 -0.2924 -1.5795  0.3001
12388TIP3   OH258578   6.363   2.527  15.640  0.6779 -1.1376 -0.5168
12388TIP3    H158579   6.408   2.574  15.569  1.4473 -0.9222  0.0995
12388TIP3    H258580   6.361   2.436  15.611 -0.5270 -0.7980 -1.5745
12389TIP3   OH258581   0.482   1.656   5.552 -0.4525  0.0711 -0.0124
12389TIP3    H158582   0.404   1.710   5.564 -2.1269 -2.1592 -0.2336
12389TIP3    H258583   0.482   1.635   5.458 -0.3508 -1.0340  0.2267
12390TIP3   OH258584   2.483   2.391  15.922  0.4356 -0.0143 -0.1781
12390TIP3    H158585   2.568   2.424  15.891 -0.3625  1.0459 -1.3485
12390TIP3    H258586   2.419   2.436  15.867 -0.8469 -1.5691 -0.0160
12391TIP3   OH258587   4.442   1.537   2.957 -0.6337  0.7019  0.2774
12391TIP3    H158588   4.357   1.565   2.992 -0.5166  1.0374  0.2953
12391TIP3    H258589   4.506   1.586   3.009 -0.4108  0.0953  0.5817
12392TIP3   OH258590   5.532   4.168   2.189 -0.8539  0.9205 -0.0964
12392TIP3    H158591   5.456   4.109   2.190 -1.0648  1.1946  0.0838
12392TIP3    H258592   5.518   4.223   2.112  0.7732 -1.1086 -1.9886
12393TIP3   OH258593   1.271   5.690   5.632  0.3253 -0.2748 -0.3011
12393TIP3    H158594   1.190   5.741   5.624  0.5232  0.3042  1.0844
12393TIP3    H258595   1.298   5.702   5.723  2.2261 -0.0866 -0.8493
12394TIP3   OH258596   1.109   6.446  16.589  0.1189 -0.4975  0.2923
12394TIP3    H158597   1.120   6.351  16.588 -0.5902 -0.5822 -0.1913
12394TIP3    H258598   1.117   6.470  16.682 -0.5695 -1.1383  0.5244
12395TIP3   OH258599   4.429   5.627   1.938  0.1483  0.1124 -0.1326
12395TIP3    H158600   4.406   5.697   1.999 -0.4349  0.9716 -1.2991
12395TIP3    H258601   4.437   5.549   1.993 -0.3074  0.8675  1.0428
12396TIP3   OH258602   5.276   6.397   1.674  0.5506 -0.7044 -0.0103
12396TIP3    H158603   5.186   6.427   1.663  0.6000 -0.0516  1.1843
12396TIP3    H258604   5.278   6.356   1.760  1.7767  0.9492  0.8249
12397TIP3   OH258605   6.620   0.193   5.180  0.0117  0.3236 -0.5696
12397TIP3    H158606   6.623   0.128   5.250 -2.1335  1.2721  0.4868
12397TIP3    H258607   6.527   0.202   5.158  0.4043  1.7889 -1.8688
12398TIP3   OH258608   0.694   6.223   1.022  0.8593 -0.3326 -0.0842
12398TIP3    H158609   0.606   6.262   1.025  1.3825  0.9737  3.7529
12398TIP3    H258610   0.750   6.294   0.991  0.8755 -0.3973 -0.2035
12399TIP3   OH258611   0.017   6.150  15.375  0.7298  0.6538 -0.1491
12399TIP3    H158612   0.089   6.120  15.319  1.5699 -0.4113  1.4151
12399TIP3    H258613   0.042   6.121  15.463 -2.0110 -0.4698  0.3437
12400TIP3   OH258614   5.521   1.948   0.165 -0.7483 -0.0017  0.3806
12400TIP3    H158615   5.564   2.024   0.126 -1.5187  0.4984  0.4833
12400TIP3    H258616   5.590   1.905   0.216 -0.6605  1.5035  1.6003
12401TIP3   OH258617   6.359   5.508  14.840 -0.3910 -0.1337 -0.1907
12401TIP3    H158618   6.406   5.442  14.892  0.4823  0.0691 -0.6941
12401TIP3    H258619   6.397   5.592  14.867 -0.3781  0.0254 -0.6787
12402TIP3   OH258620   4.062   4.718   0.707 -0.4404 -0.4930 -0.1952
12402TIP3    H158621   4.100   4.782   0.646  0.2554 -0.2094  0.5157
12402TIP3    H258622   3.968   4.732   0.700 -0.3237  0.2611 -0.4307
12403TIP3   OH258623   6.226   1.915  11.678 -1.1222  0.2523 -0.2311
12403TIP3    H158624   6.245   1.889  11.768 -2.9086 -0.5069 -0.0273
12403TIP3    H258625   6.214   2.010  11.683  1.7456  0.6924 -0.2765
12404TIP3   OH258626   5.040   2.531  11.229 -0.6528  0.7736 -0.4000
12404TIP3    H158627   5.007   2.618  11.252 -0.1896  0.4968  1.4742
12404TIP3    H258628   5.056   2.488  11.313 -1.3900 -1.3423 -1.2730
12405TIP3   OH258629   0.046   6.737  14.591 -0.0162  0.0688  0.2650
12405TIP3    H158630   0.112   6.678  14.554  0.8477  2.1142 -1.6624
12405TIP3    H258631   0.088   6.822  14.593 -2.2798  1.2731 -0.1358
12406TIP3   OH258632   2.482   5.953  11.252  0.4080 -0.3132 -0.4623
12406TIP3    H158633   2.462   5.859  11.254  1.5249 -0.5751 -0.7108
12406TIP3    H258634   2.496   5.976  11.344 -2.3861  0.2184 -0.1087
12407TIP3   OH258635   3.172   1.263   0.220  0.2164  0.3329  0.4116
12407TIP3    H158636   3.102   1.220   0.171 -0.5364  1.4445  0.4680
12407TIP3    H258637   3.244   1.270   0.157 -0.0623  0.0350  0.0514
12408TIP3   OH258638   5.542   2.841   4.788  0.5879 -0.2943 -0.1255
12408TIP3    H158639   5.446   2.848   4.789  0.5640  0.7471 -2.2474
12408TIP3    H258640   5.573   2.930   4.803  1.0705  0.0359 -2.5924
12409TIP3   OH258641   3.873   1.130   3.977  0.0679  0.0024 -0.1298
12409TIP3    H158642   3.965   1.132   4.001 -0.2919  1.7903  1.2935
12409TIP3    H258643   3.847   1.039   3.989  1.8587 -0.7641 -1.5793
12410TIP3   OH258644   2.251   3.401   0.770  0.3306 -0.4441  0.1897
12410TIP3    H158645   2.189   3.437   0.833  0.9426  0.0667  0.5084
12410TIP3    H258646   2.216   3.428   0.685  0.4700  0.4086  0.3987
12411TIP3   OH258647   1.663   0.752  15.753  0.2202  0.4684  0.0737
12411TIP3    H158648   1.650   0.720  15.842  3.5581 -0.7150  0.3070
12411TIP3    H258649   1.758   0.765  15.746  0.0222  1.0970 -3.1284
12412TIP3   OH258650   5.767   4.718  15.123  0.7755  0.3354  0.4641
12412TIP3    H158651   5.745   4.778  15.052  0.2393  0.3480  0.6367
12412TIP3    H258652   5.862   4.725  15.132  0.7859  0.7074  0.0840
12413TIP3   OH258653   1.414   5.282  11.879  0.5053 -0.2653 -0.0208
12413TIP3    H158654   1.441   5.325  11.798  2.5880  0.6087  1.0540
12413TIP3    H258655   1.381   5.353  11.934  3.3276  0.0055  1.5095
12414TIP3   OH258656   6.625   4.303   1.580 -0.0567  1.0056 -0.5323
12414TIP3    H158657   6.680   4.360   1.633  0.5470  0.0279 -0.0670
12414TIP3    H258658   6.589   4.360   1.512  0.5032  1.9295 -0.0749
12415TIP3   OH258659   6.039   3.006  13.177  0.6298  0.0374  0.1514
12415TIP3    H158660   6.044   2.979  13.085 -3.2428 -1.6216  0.2414
12415TIP3    H258661   6.062   2.927  13.226 -1.0665 -0.2790  0.5039
12416TIP3   OH258662   6.030   3.490  15.576 -0.1125 -0.3427 -0.1838
12416TIP3    H158663   5.943   3.488  15.536  0.4414 -0.1988 -1.4262
12416TIP3    H258664   6.090   3.502  15.503  0.9115  0.3576  0.7357
12417TIP3   OH258665   3.660   3.075   5.235 -0.2784 -0.2293 -0.3601
12417TIP3    H158666   3.636   3.114   5.319  1.9257  0.0495  0.1936
12417TIP3    H258667   3.608   2.995   5.230  1.3623 -1.5977  2.5018
12418TIP3   OH258668   2.639   6.597  12.859 -0.0514 -0.4502 -0.1092
12418TIP3    H158669   2.671   6.599  12.768 -0.2305 -0.2443 -0.1689
12418TIP3    H258670   2.700   6.652  12.907  0.5777 -1.2889  0.0738
12419TIP3   OH258671   6.221   3.084   6.133  0.3854 -0.1556  0.3110
12419TIP3    H158672   6.240   3.118   6.221  1.8946 -1.6938  0.6246
12419TIP3    H258673   6.174   3.002   6.148 -0.2819  0.0942 -0.3583
12420TIP3   OH258674   2.647   5.262   0.605 -0.2055 -0.0958  0.1725
12420TIP3    H158675   2.600   5.302   0.531  0.8380 -1.2240 -1.1582
12420TIP3    H258676   2.732   5.239   0.569  2.6822  4.3297  3.1362
12421TIP3   OH258677   4.687   1.354   3.083  0.4944 -0.1565  0.1295
12421TIP3    H158678   4.593   1.367   3.098  0.1945 -2.8231  0.9922
12421TIP3    H258679   4.725   1.347   3.171  1.1210 -1.2661 -0.2108
12422TIP3   OH258680   3.871   2.644   5.922 -0.1464 -0.2847  0.0579
12422TIP3    H158681   3.955   2.644   5.877  0.0733 -1.4992  0.4335
12422TIP3    H258682   3.871   2.563   5.973 -0.6554  0.7143  1.7358
12423TIP3   OH258683   1.413   0.650   1.557 -0.1066  0.3229  0.5505
12423TIP3    H158684   1.501   0.613   1.551 -0.4780 -0.2893 -3.5797
12423TIP3    H258685   1.427   0.745   1.566  0.9076  0.0923  1.6050
12424TIP3   OH258686   2.490   0.815  14.919  0.6157  0.1354 -0.4641
12424TIP3    H158687   2.420   0.877  14.940  0.4680 -0.7584  1.9788
12424TIP3    H258688   2.555   0.828  14.988  1.4203 -1.1884 -0.9330
12425TIP3   OH258689   0.373   6.286   5.540 -0.1107 -0.0973 -0.2320
12425TIP3    H158690   0.403   6.214   5.597 -1.3774 -0.0996  0.4622
12425TIP3    H258691   0.296   6.251   5.497 -0.9849  0.9643  0.4164
12426TIP3   OH258692   5.998   4.395  11.360 -0.0327  1.0219 -0.2458
12426TIP3    H158693   5.938   4.445  11.305 -1.5688 -0.2320  0.1876
12426TIP3    H258694   5.986   4.431  11.448 -0.8851  0.1825  0.0057
12427TIP3   OH258695   2.562   5.514   4.004 -0.3047 -0.6935 -0.1190
12427TIP3    H158696   2.533   5.582   3.944  0.6162 -0.8224 -0.7147
12427TIP3    H258697   2.627   5.556   4.060 -1.2108 -0.5492  0.8844
12428TIP3   OH258698   6.223   0.793   5.082 -0.0335 -0.1927  0.9136
12428TIP3    H158699   6.258   0.802   4.993  0.4164  0.0892  1.1170
12428TIP3    H258700   6.217   0.698   5.095  1.1452 -0.2649  1.0576
12429TIP3   OH258701   3.001   4.996  16.468  0.3588  0.0410 -0.0299
12429TIP3    H158702   3.029   4.951  16.388 -1.4328  0.9720 -1.2491
12429TIP3    H258703   2.922   4.949  16.495 -2.1408  2.8234 -1.8796
12430TIP3   OH258704   6.475   0.949  11.414  0.3959  0.3495  0.1442
12430TIP3    H158705   6.483   1.031  11.364 -0.6212  0.4817  0.1651
12430TIP3    H258706   6.431   0.889  11.354 -0.3122  0.3287  0.6729
12431TIP3   OH258707   6.612   1.542   2.711  0.0703  0.9813  0.2866
12431TIP3    H158708   6.635   1.470   2.651  0.6173  1.7437 -0.4429
12431TIP3    H258709   6.662   1.617   2.678 -1.6296  2.0972  0.1313
12432TIP3   OH258710   0.823   3.861   2.831 -0.0315 -0.2471  0.2864
12432TIP3    H158711   0.841   3.950   2.861  0.2355 -0.4155  0.6319
12432TIP3    H258712   0.734   3.843   2.862  0.0279 -0.2108  0.4796
12433TIP3   OH258713   1.586   5.014  14.156  0.5374 -0.3964  0.4657
12433TIP3    H158714   1.498   5.039  14.186  0.1000 -0.3811 -0.7442
12433TIP3    H258715   1.638   5.094  14.166  0.5999 -0.5826  1.7994
12434TIP3   OH258716   6.347   4.766   1.967  0.1617 -0.5804 -0.1352
12434TIP3    H158717   6.262   4.763   1.923  0.5857 -0.7523 -0.9741
12434TIP3    H258718   6.392   4.687   1.936  1.4728  0.6375 -1.5288
12435TIP3   OH258719   1.122   1.189   4.492  0.4238  0.1549  0.9374
12435TIP3    H158720   1.051   1.207   4.554 -0.8960  1.2596 -0.8184
12435TIP3    H258721   1.165   1.274   4.480  0.6018 -0.0274  0.2666
12436TIP3   OH258722   1.576   3.946   3.255 -0.0868 -0.3634  0.1382
12436TIP3    H158723   1.574   4.001   3.333 -0.2316 -1.1933  0.7368
12436TIP3    H258724   1.606   3.860   3.287  1.4073 -0.2910 -1.0007
12437TIP3   OH258725   5.257   6.115  15.164 -0.3266  0.2793 -0.7363
12437TIP3    H158726   5.184   6.136  15.106 -1.2747 -1.3475 -0.2201
12437TIP3    H258727   5.290   6.031  15.131  0.0492  0.0469  0.2020
12438TIP3   OH258728   2.251   6.770   0.286 -0.1865 -0.0052 -0.0091
12438TIP3    H158729   2.197   6.839   0.248  0.3103  1.0459  1.1312
12438TIP3    H258730   2.332   6.773   0.235  0.0932  0.7205  0.4691
12439TIP3   OH258731   5.824   1.161  13.895  0.5749  0.3799 -0.6599
12439TIP3    H158732   5.882   1.150  13.970 -0.8849 -1.8224  0.2534
12439TIP3    H258733   5.762   1.228  13.923  1.0940  0.8534 -0.6216
12440TIP3   OH258734   2.145   6.099  13.646 -0.0136 -0.1735 -0.1072
12440TIP3    H158735   2.072   6.048  13.610 -0.4511  0.4496 -0.1215
12440TIP3    H258736   2.128   6.101  13.740  0.8852 -1.4187  0.1031
12441TIP3   OH258737   2.901   1.908   0.349 -0.0970  0.4419  0.0149
12441TIP3    H158738   2.916   1.817   0.323 -1.5949 -0.0049  0.5746
12441TIP3    H258739   2.977   1.956   0.317  0.0265 -0.7605 -1.5870
12442TIP3   OH258740   0.621   2.281   3.005  0.4526 -0.0970 -0.3941
12442TIP3    H158741   0.624   2.360   2.951  0.7223 -0.1444 -0.4519
12442TIP3    H258742   0.579   2.308   3.086  0.5664  0.1125 -0.4048
12443TIP3   OH258743   4.675   6.398  12.896 -0.0496 -0.0420  0.1662
12443TIP3    H158744   4.609   6.329  12.908 -0.6866  0.4300 -0.5308
12443TIP3    H258745   4.657   6.461  12.966  0.2017 -0.3279  0.4886
12444TIP3   OH258746   0.655   6.312   4.127  0.0363 -0.3241 -0.1298
12444TIP3    H158747   0.669   6.274   4.040  0.7127  1.7880 -1.0087
12444TIP3    H258748   0.563   6.339   4.127 -0.2083 -1.1152  0.1756
12445TIP3   OH258749   3.400   5.213  12.032 -0.0137  0.3762 -0.1722
12445TIP3    H158750   3.314   5.247  12.058  0.1590 -0.3918  1.5544
12445TIP3    H258751   3.460   5.286  12.049 -0.1941  0.5987 -0.4792
12446TIP3   OH258752   1.176   2.306  10.942  0.5807  0.1140 -0.2774
12446TIP3    H158753   1.241   2.284  11.008  0.6288  0.3340 -0.2518
12446TIP3    H258754   1.129   2.381  10.978  0.9026  0.5171 -0.6876
12447TIP3   OH258755   5.535   5.440   1.778  0.1045  0.2326 -0.1130
12447TIP3    H158756   5.449   5.438   1.821  0.5716  2.1550  1.0202
12447TIP3    H258757   5.593   5.393   1.838  0.6282  2.3937  1.1762
12448TIP3   OH258758   4.370   5.830   6.110  0.5599  0.4020 -0.2906
12448TIP3    H158759   4.444   5.811   6.168  0.3553  1.6084  0.4003
12448TIP3    H258760   4.303   5.768   6.136  0.0623  1.6635  1.6043
12449TIP3   OH258761   6.298   6.323  15.768 -0.2149 -0.9699 -0.0338
12449TIP3    H158762   6.313   6.233  15.738  1.3398 -0.4128 -1.0610
12449TIP3    H258763   6.213   6.320  15.811  0.3372 -3.1992  1.0687
12450TIP3   OH258764   0.447   1.665  16.770 -0.1933 -0.4829  0.7403
12450TIP3    H158765   0.460   1.595  16.706  0.2665  0.0584  0.2254
12450TIP3    H258766   0.397   1.732  16.722 -0.6966 -0.4901  1.2485
12451TIP3   OH258767   2.600   3.582  14.119 -0.4487  0.2732  0.0412
12451TIP3    H158768   2.546   3.656  14.149 -0.0665  0.4370  0.3319
12451TIP3    H258769   2.603   3.523  14.194  0.4640  0.6564  0.3128
12452TIP3   OH258770   6.762   6.149   3.760  0.1427  0.1317  0.3930
12452TIP3    H158771   6.822   6.221   3.779  0.7246 -0.2916  0.1962
12452TIP3    H258772   6.816   6.071   3.767 -0.2935 -0.2298 -0.2015
12453TIP3   OH258773   1.107   1.901  15.846  0.1026  0.1169  0.0264
12453TIP3    H158774   1.064   1.987  15.845 -1.0234 -0.4139  1.2076
12453TIP3    H258775   1.193   1.918  15.883  0.4820  0.9732 -1.1629
12454TIP3   OH258776   2.002   6.182   3.160  0.3150 -0.4973 -0.0087
12454TIP3    H158777   1.929   6.128   3.130  0.4767 -0.0029 -1.3380
12454TIP3    H258778   2.040   6.132   3.232 -0.0311 -1.7688 -0.6812
12455TIP3   OH258779   2.186   4.478   3.100 -0.2301  0.8165 -0.0937
12455TIP3    H158780   2.256   4.435   3.150  0.3462  0.9863 -0.7260
12455TIP3    H258781   2.143   4.535   3.164 -0.4617 -0.0647  0.5503
12456TIP3   OH258782   2.116   1.559   0.066  0.2495  0.6378  0.3146
12456TIP3    H158783   2.096   1.621  -0.005 -0.8859 -0.3165 -0.2254
12456TIP3    H258784   2.212   1.552   0.065  0.2827  1.0236 -0.7916
12457TIP3   OH258785   5.226   3.775  15.239 -0.4593 -0.1261  0.1233
12457TIP3    H158786   5.296   3.829  15.275  0.0726  0.5649 -1.7788
12457TIP3    H258787   5.154   3.782  15.302  0.8954 -0.2326  1.7432
12458TIP3   OH258788   2.008   6.553   1.627 -0.6321 -0.1630  0.0144
12458TIP3    H158789   1.941   6.582   1.565 -0.1570  1.5819  0.2549
12458TIP3    H258790   2.004   6.457   1.624  0.2808 -0.2366 -3.7205
12459TIP3   OH258791   4.169   4.828  16.444 -0.2312 -0.1685  0.4022
12459TIP3    H158792   4.172   4.822  16.349 -1.7081 -0.5221  0.3427
12459TIP3    H258793   4.231   4.897  16.466 -0.1642  0.2036 -0.8536
12460TIP3   OH258794   3.793   0.994   0.404 -0.1978 -0.2228  0.1422
12460TIP3    H158795   3.812   0.906   0.371 -1.2828  0.3767 -2.3602
12460TIP3    H258796   3.769   0.981   0.496 -1.0696 -2.6521 -0.3555
12461TIP3   OH258797   1.317   3.540  14.998 -0.0124  0.0033 -0.5422
12461TIP3    H158798   1.381   3.517  15.065 -2.3691 -1.8846  1.2859
12461TIP3    H258799   1.257   3.600  15.043  0.7352  2.2977 -2.4122
12462TIP3   OH258800   0.632   3.686  12.321 -0.0246  0.6632  0.5583
12462TIP3    H158801   0.674   3.683  12.235  1.9303  1.8540  1.3926
12462TIP3    H258802   0.590   3.601  12.331  0.8135  0.0302 -1.0530
12463TIP3   OH258803   6.781   0.296   0.948  0.0210 -0.5233 -0.0354
12463TIP3    H158804   6.838   0.238   0.999  2.6576  1.9266  0.0436
12463TIP3    H258805   6.793   0.268   0.857 -1.3458 -2.1371  0.2267
12464TIP3   OH258806   1.061   5.246   0.130 -0.6456 -0.1975  0.6128
12464TIP3    H158807   1.114   5.325   0.122 -0.4726 -0.2666  1.0182
12464TIP3    H258808   1.004   5.263   0.205 -1.1401 -0.1556  0.2290
12465TIP3   OH258809   2.848   1.241  16.500  0.0945  0.0267 -0.8542
12465TIP3    H158810   2.909   1.257  16.573 -0.0917  1.3689 -0.9608
12465TIP3    H258811   2.801   1.161  16.524  1.6184 -0.8296 -0.5891
12466TIP3   OH258812   3.336   6.255   5.590 -0.4333 -0.1752 -0.4867
12466TIP3    H158813   3.385   6.245   5.508  1.5752 -1.8180  0.7996
12466TIP3    H258814   3.330   6.350   5.603  1.2207  0.1044 -1.4213
12467TIP3   OH258815   4.005   6.127   1.513 -0.2958 -0.3703 -0.3062
12467TIP3    H158816   4.004   6.194   1.581  0.2714 -0.3875 -0.2770
12467TIP3    H258817   4.070   6.063   1.542 -0.5871 -0.7592 -0.4996
12468TIP3   OH258818   1.258   1.646  12.554 -0.5616  0.3394 -0.6656
12468TIP3    H158819   1.248   1.732  12.596 -2.3171 -0.6595  1.1595
12468TIP3    H258820   1.214   1.654  12.470 -0.4460  1.2848 -0.6431
12469TIP3   OH258821   4.639   0.165   3.425 -0.6004 -0.3464  0.1592
12469TIP3    H158822   4.712   0.191   3.481 -2.4728  2.5406  1.5103
12469TIP3    H258823   4.637   0.232   3.357 -1.9085 -0.4090  0.1155
12470TIP3   OH258824   0.609   2.546  17.116  0.0854 -0.5297 -0.0903
12470TIP3    H158825   0.698   2.569  17.142  0.2885 -2.2044  0.8958
12470TIP3    H258826   0.556   2.564  17.193 -0.5872  1.1578 -0.9162
12471TIP3   OH258827   2.877   5.391   0.481 -0.3764  0.1979  0.1421
12471TIP3    H158828   2.854   5.416   0.571 -1.6636 -1.1032  0.2216
12471TIP3    H258829   2.903   5.473   0.439  1.5078  0.6506  2.0354
12472TIP3   OH258830   1.295   2.575  14.150  0.2752 -0.4354 -0.2340
12472TIP3    H158831   1.208   2.608  14.127 -0.4179 -2.0993 -0.1935
12472TIP3    H258832   1.308   2.500  14.091  1.2043 -0.8936  0.5282
12473TIP3   OH258833   6.266   1.914   2.362  0.9692 -0.3912 -0.3276
12473TIP3    H158834   6.251   1.821   2.343 -1.4117 -0.3994  1.2116
12473TIP3    H258835   6.243   1.923   2.454  1.4000  1.6944 -0.3877
12474TIP3   OH258836   0.394   6.384   0.489 -0.2046 -0.4916  0.1371
12474TIP3    H158837   0.393   6.386   0.394 -0.8198  0.7763  0.1458
12474TIP3    H258838   0.311   6.424   0.515 -0.5732 -1.8505  1.2164
12475TIP3   OH258839   1.675   4.973  14.724 -0.4747  0.5921  0.3933
12475TIP3    H158840   1.670   4.938  14.635  0.6855 -0.2765  0.6466
12475TIP3    H258841   1.639   5.061  14.716 -1.2009  0.2196 -0.7561
12476TIP3   OH258842   1.306   1.139  13.887 -0.2513  0.6169  0.0449
12476TIP3    H158843   1.375   1.132  13.820 -2.0210  1.5680 -2.0028
12476TIP3    H258844   1.339   1.086  13.960  3.4356  2.4312 -0.0683
12477TIP3   OH258845   4.428   5.706  13.652  0.0438 -0.1218 -0.6109
12477TIP3    H158846   4.464   5.649  13.720 -0.5989 -0.1338 -0.2756
12477TIP3    H258847   4.353   5.658  13.617 -0.4314  0.4685 -0.4094
12478TIP3   OH258848   0.399   2.336   1.743  0.8678  0.1189 -0.2497
12478TIP3    H158849   0.324   2.395   1.751  1.9534  1.2601  3.3266
12478TIP3    H258850   0.368   2.252   1.775  0.4739 -0.1461 -1.2800
12479TIP3   OH258851   2.300   1.311  12.540  0.1955 -0.0718 -0.0927
12479TIP3    H158852   2.304   1.229  12.489 -0.3832  0.6277 -1.2999
12479TIP3    H258853   2.246   1.289  12.616 -1.5545 -0.3389 -1.3590
12480TIP3   OH258854   3.691   4.598  11.708 -0.0407 -0.5802  0.9158
12480TIP3    H158855   3.635   4.672  11.686 -2.4852 -2.3278  0.9251
12480TIP3    H258856   3.697   4.548  11.626  1.4154 -0.5190  0.9595
12481TIP3   OH258857   6.081   4.085   0.506 -0.2639  0.0815  0.4013
12481TIP3    H158858   5.988   4.106   0.502  0.1077  1.6688 -2.0680
12481TIP3    H258859   6.107   4.108   0.595 -2.1252 -0.0078  1.0118
12482TIP3   OH258860   2.830   2.766   3.943  0.1823 -0.2367 -0.3416
12482TIP3    H158861   2.915   2.804   3.923 -0.1852  0.0601 -1.4205
12482TIP3    H258862   2.768   2.816   3.890 -0.6427 -0.5477  0.3109
12483TIP3   OH258863   0.059   1.293   3.005  0.8599  0.0935  0.4145
12483TIP3    H158864  -0.017   1.351   3.009  1.9851  1.6206  0.5258
12483TIP3    H258865   0.055   1.241   3.085 -0.1954 -0.0346  0.2902
12484TIP3   OH258866   4.811   5.494  12.486 -0.0651 -0.0858 -0.0324
12484TIP3    H158867   4.807   5.558  12.557  1.1152  0.2700 -0.2551
12484TIP3    H258868   4.748   5.525  12.421 -0.0552  0.4277  0.2020
12485TIP3   OH258869   5.992   4.036   6.246  0.0281 -0.0134  0.2289
12485TIP3    H158870   5.920   4.046   6.309 -0.3630 -1.0308 -0.0352
12485TIP3    H258871   6.048   3.969   6.285  0.7031  0.5931  0.3077
12486TIP3   OH258872   6.244   4.764  12.176 -0.2504 -0.1683  0.3149
12486TIP3    H158873   6.183   4.763  12.250 -0.0124 -1.9801  0.5351
12486TIP3    H258874   6.305   4.835  12.196 -2.5970  2.1512 -0.2221
12487TIP3   OH258875   3.308   5.941  12.324  0.0808  0.1466  0.1742
12487TIP3    H158876   3.303   6.032  12.352 -0.4513  0.1563  0.0583
12487TIP3    H258877   3.239   5.897  12.373  0.0933 -0.1180 -0.0419
12488TIP3   OH258878   6.224   3.029  12.351  0.2114 -0.7186 -0.5760
12488TIP3    H158879   6.265   3.025  12.438 -0.1425 -0.8216 -0.4143
12488TIP3    H258880   6.181   3.115  12.349 -0.1070 -0.8761 -0.5029
12489TIP3   OH258881   3.977   6.543  15.107  0.1780  0.1066  0.3653
12489TIP3    H158882   3.930   6.542  15.023 -0.6665  2.2784  0.7535
12489TIP3    H258883   4.065   6.572  15.085 -0.1130  0.9181  0.2334
12490TIP3   OH258884   0.026   3.694  11.025  0.4890  0.3238  0.9032
12490TIP3    H158885   0.119   3.703  11.004  0.3426 -0.0172  0.0763
12490TIP3    H258886  -0.016   3.764  10.976 -0.0421 -1.4387 -1.2924
12491TIP3   OH258887   6.328   4.970   3.177 -0.6923  0.0530  0.1588
12491TIP3    H158888   6.264   5.002   3.242 -0.7899  2.6415 -1.0791
12491TIP3    H258889   6.379   5.048   3.154  0.0392 -1.0099 -2.0880
12492TIP3   OH258890   3.375   5.260  14.416  0.2826  0.1933 -0.1739
12492TIP3    H158891   3.444   5.306  14.369 -0.5746  0.4031 -1.2744
12492TIP3    H258892   3.294   5.288  14.373 -0.4528 -0.4808  0.7162
12493TIP3   OH258893   2.798   4.870  15.810  0.3935  0.3016 -0.3842
12493TIP3    H158894   2.738   4.932  15.768  0.5987  1.0794  0.4413
12493TIP3    H258895   2.882   4.886  15.767  0.3208  0.1949 -0.5669
12494TIP3   OH258896   2.873   0.211   2.892 -0.3260 -0.3472 -0.1769
12494TIP3    H158897   2.851   0.223   2.800 -0.6667 -1.1246 -0.2090
12494TIP3    H258898   2.934   0.137   2.893 -0.4024 -0.4114  0.2198
12495TIP3   OH258899   6.557   3.562   0.333  0.1560  0.2001  0.9807
12495TIP3    H158900   6.514   3.557   0.247  1.6742  2.4666 -0.0133
12495TIP3    H258901   6.493   3.606   0.389 -0.1313  0.4402  0.4704
12496TIP3   OH258902   3.551   5.780  11.032  0.0694  0.3143  0.1113
12496TIP3    H158903   3.519   5.694  11.058  0.4507  0.5035  1.2696
12496TIP3    H258904   3.515   5.840  11.096 -1.1098  1.2120 -1.3292
12497TIP3   OH258905   0.206   1.126  11.801  0.1994 -0.3143  0.2383
12497TIP3    H158906   0.154   1.060  11.755 -0.7888  0.2161  0.5702
12497TIP3    H258907   0.208   1.097  11.892  1.4476 -0.9185  0.0413
12498TIP3   OH258908   6.588   1.970  15.085  0.0675 -1.0647 -0.3483
12498TIP3    H158909   6.673   1.979  15.043  0.1647 -1.0378 -0.1479
12498TIP3    H258910   6.559   1.882  15.062 -0.6017 -0.5117 -1.7853
12499TIP3   OH258911   0.573   0.812  16.829  0.3659  0.4322  0.7091
12499TIP3    H158912   0.520   0.853  16.897 -0.7944  0.8905 -0.4332
12499TIP3    H258913   0.610   0.886  16.780 -3.9818  0.5474 -3.1589
12500TIP3   OH258914   2.725   1.662   6.383 -0.1185 -0.2493  0.3131
12500TIP3    H158915   2.736   1.756   6.369 -0.4837 -0.3852 -1.0717
12500TIP3    H258916   2.639   1.642   6.346 -0.0651 -1.1113  0.6324
12501TIP3   OH258917   4.471   3.774   4.377  0.0673 -0.4444 -0.4672
12501TIP3    H158918   4.483   3.680   4.360  0.7502 -0.7867  1.5910
12501TIP3    H258919   4.391   3.797   4.330 -0.0472 -2.0245 -1.1164
12502TIP3   OH258920   0.862   0.759  16.794 -0.2611  0.0995  0.5525
12502TIP3    H158921   0.836   0.833  16.848  1.2838  0.5678  0.7053
12502TIP3    H258922   0.893   0.798  16.712  1.7912 -0.2188  1.1067
12503TIP3   OH258923   1.384   5.018  12.005  0.1053 -0.0253 -0.0389
12503TIP3    H158924   1.331   5.063  12.071  0.6532  0.0675  0.3533
12503TIP3    H258925   1.422   5.088  11.953 -0.8631 -0.1204 -0.8975
12504TIP3   OH258926   0.280   4.082   1.703 -0.2970 -0.3589  0.2415
12504TIP3    H158927   0.304   3.990   1.710  0.5812 -0.0847  1.2614
12504TIP3    H258928   0.194   4.083   1.662 -0.8836 -1.7035  1.3824
12505TIP3   OH258929   1.509   4.250  13.893  0.0150  0.5019  0.1038
12505TIP3    H158930   1.576   4.183  13.904 -0.4504 -0.1268 -0.7698
12505TIP3    H258931   1.432   4.215  13.937 -0.1699  0.5624 -0.1714
12506TIP3   OH258932   0.892   0.132  13.616  0.3931  0.0085 -0.0887
12506TIP3    H158933   0.955   0.092  13.557  1.9851 -0.2602  1.6861
12506TIP3    H258934   0.900   0.082  13.697 -1.7268  0.3374  0.3893
12507TIP3   OH258935   4.829   4.026   5.124 -0.1303 -0.3271  0.1668
12507TIP3    H158936   4.842   3.957   5.060  2.5064  0.6301 -0.4628
12507TIP3    H258937   4.891   4.094   5.099 -1.7975  1.8067  1.4427
12508TIP3   OH258938   3.049   4.910  15.718  0.1384  1.0417  0.4372
12508TIP3    H158939   3.122   4.959  15.755  1.1719 -1.5486  2.1650
12508TIP3    H258940   3.090   4.847  15.659 -0.5971 -0.5952  1.5908
12509TIP3   OH258941   0.784   6.704  11.999  0.0113  0.4417  0.6132
12509TIP3    H158942   0.866   6.740  11.963  0.4653 -0.6335  0.5226
12509TIP3    H258943   0.729   6.690  11.922  0.0370  0.4452  0.5937
12510TIP3   OH258944   0.156   2.784   4.602 -0.2337  0.2338 -0.3358
12510TIP3    H158945   0.097   2.816   4.670 -2.2052 -1.6054 -1.0440
12510TIP3    H258946   0.112   2.807   4.520  1.5410  1.4165 -1.0182
12511TIP3   OH258947   2.246   2.755   4.493 -0.5703  0.2640  0.3783
12511TIP3    H158948   2.154   2.765   4.466 -0.0718 -1.8370 -2.5770
12511TIP3    H258949   2.246   2.676   4.547 -0.5729  0.6002  0.8734
12512TIP3   OH258950   6.634   4.679   1.340 -0.3944 -0.0418  0.2253
12512TIP3    H158951   6.549   4.673   1.298 -1.2796  0.6588  1.8091
12512TIP3    H258952   6.631   4.762   1.388  0.9136 -0.3416  0.8736
12513TIP3   OH258953   6.517   3.332   1.423 -0.0608  0.1475  0.1165
12513TIP3    H158954   6.557   3.301   1.342  1.1216  0.1623  0.6685
12513TIP3    H258955   6.433   3.369   1.396  0.3937  0.3251 -1.1181
12514TIP3   OH258956   0.259   6.360  14.877 -0.2269  0.3995  0.2589
12514TIP3    H158957   0.336   6.324  14.921 -1.2647  0.9742  2.7176
12514TIP3    H258958   0.273   6.455  14.879  0.4722  0.4268 -2.2861
12515TIP3   OH258959   2.148   3.915  16.490 -0.1042  0.4251 -0.0383
12515TIP3    H158960   2.157   3.824  16.460 -0.7842  0.1298  0.6168
12515TIP3    H258961   2.236   3.941  16.513  0.3774  0.5080 -1.8181
12516TIP3   OH258962   4.378   5.975  13.674  0.1021  0.7458  0.3635
12516TIP3    H158963   4.386   5.880  13.666 -0.6799  0.7232 -0.2109
12516TIP3    H258964   4.308   5.988  13.738 -3.1255  0.8668 -2.8893
12517TIP3   OH258965   2.248   4.108   3.593  0.9477 -0.7435  0.5561
12517TIP3    H158966   2.220   4.029   3.547  1.8230 -1.7137  1.6283
12517TIP3    H258967   2.339   4.121   3.566  0.8330 -0.1351  0.4428
12518TIP3   OH258968   3.891   5.566  14.216  0.7074 -0.6984 -0.4511
12518TIP3    H158969   3.874   5.583  14.123  1.2194 -0.8697 -0.5784
12518TIP3    H258970   3.807   5.582  14.259  0.6461  0.0859 -0.8442
12519TIP3   OH258971   5.284   5.643  13.068  0.0901 -0.4409 -0.0594
12519TIP3    H158972   5.311   5.734  13.066 -0.7506 -0.1930 -1.6297
12519TIP3    H258973   5.251   5.629  13.157  2.3598  0.1023  0.9118
12520TIP3   OH258974   3.594   6.225  11.494  0.3059  0.6897 -0.1804
12520TIP3    H158975   3.609   6.248  11.402  1.0602  1.8674  0.2126
12520TIP3    H258976   3.679   6.238  11.536  0.6422 -2.2751  0.2506
12521TIP3   OH258977   1.642   4.934   3.057 -0.2996 -0.4867 -0.4261
12521TIP3    H158978   1.587   5.006   3.026 -0.6872 -0.8525 -0.5809
12521TIP3    H258979   1.593   4.895   3.129  0.4065  0.0895  0.3835
12522TIP3   OH258980   1.683   1.219   5.440 -0.6281  0.1500 -0.0339
12522TIP3    H158981   1.772   1.244   5.463 -0.9548  1.0800  0.2398
12522TIP3    H258982   1.694   1.153   5.371  0.2552  1.7007 -1.4505
12523TIP3   OH258983   3.597   0.857  13.973  0.6698  0.4854  0.0193
12523TIP3    H158984   3.668   0.881  14.032  0.3160  1.7355 -0.0368
12523TIP3    H258985   3.590   0.931  13.912 -0.5890  0.3300 -0.0573
12524TIP3   OH258986   6.057   5.678  14.587  0.1191  0.6406  0.7219
12524TIP3    H158987   6.057   5.627  14.506  0.6168  1.9344 -0.1269
12524TIP3    H258988   6.081   5.615  14.655  2.7574  0.1197 -0.5514
12525TIP3   OH258989   3.509   3.254   6.817 -0.2795 -0.1250 -0.2558
12525TIP3    H158990   3.454   3.184   6.783 -0.0347  0.3573 -1.7192
12525TIP3    H258991   3.448   3.318   6.853 -0.5942 -0.3484 -0.3908
12526TIP3   OH258992   2.879   1.145   3.178 -0.2252  0.2683  0.3782
12526TIP3    H158993   2.955   1.087   3.173 -0.1070  0.1502  2.6894
12526TIP3    H258994   2.853   1.158   3.087  0.9971 -1.7349 -0.3097
12527TIP3   OH258995   1.957   1.820   5.249 -0.5115 -0.0533 -0.1780
12527TIP3    H158996   1.904   1.899   5.252 -1.3420 -0.5505 -1.0900
12527TIP3    H258997   1.895   1.750   5.228  0.5236 -0.6298 -1.4679
12528TIP3   OH258998   5.706   1.836  14.989 -0.2935  0.1545 -0.0367
12528TIP3    H158999   5.791   1.839  15.034 -0.5227 -1.4987  0.5729
12528TIP3    H259000   5.724   1.789  14.908 -0.2863  1.4196 -0.8001
12529TIP3   OH259001   4.897   6.051  16.059  0.0540  0.4307 -0.5636
12529TIP3    H159002   4.867   6.084  15.974  1.3542 -0.2767 -1.3288
12529TIP3    H259003   4.868   5.960  16.061 -0.1478  0.4999 -0.1452
12530TIP3   OH259004   2.991   5.007   0.188 -0.3212 -0.1280  0.4616
12530TIP3    H159005   2.929   4.965   0.128  0.3936  1.6436 -1.6046
12530TIP3    H259006   2.995   4.947   0.263 -0.5956 -2.8965 -1.5921
12531TIP3   OH259007   2.599   4.915   0.771 -0.3867  0.3604 -0.3017
12531TIP3    H159008   2.504   4.911   0.782 -0.2698  1.4403  1.3707
12531TIP3    H259009   2.612   4.969   0.693 -1.1510 -1.0321 -1.4215
12532TIP3   OH259010   5.413   2.384  13.210 -0.3373  0.5368  0.4460
12532TIP3    H159011   5.356   2.316  13.174  1.3243 -1.0714  0.6617
12532TIP3    H259012   5.467   2.413  13.137 -0.2152  0.7372  0.6121
12533TIP3   OH259013   3.245   3.533   1.293 -0.2996  0.1123 -0.3408
12533TIP3    H159014   3.243   3.462   1.229 -0.9606 -0.2911  0.1129
12533TIP3    H259015   3.335   3.536   1.323 -0.5733 -1.5811  0.7641
12534TIP3   OH259016   6.584   6.781  12.683  0.0077  0.5675 -0.2601
12534TIP3    H159017   6.565   6.711  12.744  1.2366  1.3230  1.0603
12534TIP3    H259018   6.589   6.738  12.598  1.1823 -1.0532  0.5696
12535TIP3   OH259019   4.957   6.589   1.158 -0.1391  0.3372  0.0610
12535TIP3    H159020   4.887   6.532   1.127 -1.8644  1.5414  1.5010
12535TIP3    H259021   4.989   6.633   1.080 -1.5918  0.3694 -0.5475
12536TIP3   OH259022   5.185   0.697  17.191 -0.7245 -0.2583 -0.2781
12536TIP3    H159023   5.144   0.706  17.277 -1.5764  0.7318 -0.7619
12536TIP3    H259024   5.115   0.663  17.135 -0.1511 -0.9856 -0.5655
12537TIP3   OH259025   6.372   1.253  13.858 -0.3012 -0.2106  0.3576
12537TIP3    H159026   6.334   1.182  13.909 -1.3081  0.2356  0.2535
12537TIP3    H259027   6.302   1.318  13.852  0.1125  0.1500 -0.7962
12538TIP3   OH259028   0.987   0.392   2.040 -0.0043 -0.2111 -0.4758
12538TIP3    H159029   0.914   0.417   2.096  2.5026  0.1124  2.9893
12538TIP3    H259030   1.026   0.474   2.011 -0.0472 -0.3469 -0.9285
12539TIP3   OH259031   2.512   5.881   1.947  0.1353 -0.5553 -0.0616
12539TIP3    H159032   2.593   5.831   1.933  0.6182  0.3477 -0.5298
12539TIP3    H259033   2.521   5.916   2.036 -0.4688 -1.7427  0.5032
12540TIP3   OH259034   4.364   4.200   1.457  0.3274  0.0716  0.2137
12540TIP3    H159035   4.360   4.279   1.403 -0.3425 -0.2436 -0.2136
12540TIP3    H259036   4.272   4.184   1.482  0.6546  0.4184  1.7519
12541TIP3   OH259037   1.396   4.017  15.380 -0.7549 -0.3433  0.2926
12541TIP3    H159038   1.343   3.967  15.442  0.5465 -1.6454  0.4053
12541TIP3    H259039   1.478   4.033  15.426 -0.8980  1.3810  0.0137
12542TIP3   OH259040   1.420   6.111  11.508  0.2004 -0.1149 -0.4470
12542TIP3    H159041   1.426   6.198  11.469  1.0930 -0.4530 -1.1117
12542TIP3    H259042   1.507   6.073  11.496  0.5068 -0.2652  1.8884
12543TIP3   OH259043   2.788   5.745  17.068  0.0620 -0.1733  0.2244
12543TIP3    H159044   2.697   5.741  17.039 -0.0324 -1.5203  0.6304
12543TIP3    H259045   2.818   5.654  17.067  2.0856  0.4198 -1.9394
12544TIP3   OH259046   2.307   5.076   6.765 -0.4441  0.4224  0.3949
12544TIP3    H159047   2.378   5.128   6.801 -0.3115 -0.6867  1.8303
12544TIP3    H259048   2.347   5.026   6.694  0.3811 -0.5754  1.5166
12545TIP3   OH259049   3.317   4.913   4.798  0.4798 -0.4390  0.1220
12545TIP3    H159050   3.402   4.939   4.832 -0.3239  0.6666  1.3551
12545TIP3    H259051   3.274   4.870   4.871 -0.6964  0.6108  0.0792
12546TIP3   OH259052   0.828   4.973  12.032  0.4312 -0.3087  0.3486
12546TIP3    H159053   0.905   4.915  12.033  1.1627  0.6246 -0.1326
12546TIP3    H259054   0.861   5.056  12.067 -0.2737  0.2031 -0.1926
12547TIP3   OH259055   2.977   2.891   3.685  0.3432 -0.5032  0.5142
12547TIP3    H159056   3.023   2.812   3.657  0.7001  0.1294 -0.7935
12547TIP3    H259057   2.890   2.883   3.644  0.2055 -0.4548  0.7964
12548TIP3   OH259058   4.457   1.578  13.272 -0.2765  0.0197  0.2576
12548TIP3    H159059   4.460   1.557  13.179 -1.7906  1.7364 -0.2422
12548TIP3    H259060   4.368   1.555  13.299 -1.1639  3.0324  0.2781
12549TIP3   OH259061   2.354   5.106  13.432  0.5400 -0.3764  0.0347
12549TIP3    H159062   2.384   5.181  13.484  1.3981 -0.5888 -0.1447
12549TIP3    H259063   2.321   5.145  13.351  2.3016 -0.2594 -0.6710
12550TIP3   OH259064   2.635   6.385  16.893 -0.6540 -0.4183 -0.1216
12550TIP3    H159065   2.623   6.313  16.831 -0.8519 -0.3713 -0.1362
12550TIP3    H259066   2.727   6.411  16.881  0.7810 -3.3860  2.7602
12551TIP3   OH259067   0.861   2.182   4.313  0.1447  0.2766  0.1727
12551TIP3    H159068   0.811   2.229   4.381  1.5136 -1.9496  2.9511
12551TIP3    H259069   0.844   2.089   4.332  1.3399 -0.4405 -2.0128
12552TIP3   OH259070   2.301   1.597  13.860 -0.0864 -0.3446  0.3729
12552TIP3    H159071   2.236   1.589  13.790  0.7905  1.3027 -0.7013
12552TIP3    H259072   2.261   1.658  13.922 -0.0102 -0.1591  0.2417
12553TIP3   OH259073   1.769   5.909  15.315 -0.2086 -0.2589  0.5336
12553TIP3    H159074   1.722   5.989  15.340 -0.2344 -0.4285  1.0316
12553TIP3    H259075   1.718   5.874  15.242 -1.6101 -1.1048  1.8481
12554TIP3   OH259076   1.872   4.912  13.952 -0.0329  0.5927  0.7831
12554TIP3    H159077   1.892   5.001  13.981 -0.2328  1.2699 -0.9884
12554TIP3    H259078   1.782   4.916  13.919  0.1751 -0.0921  0.0847
12555TIP3   OH259079   0.167   0.269   3.094 -0.0588  0.5418  0.0991
12555TIP3    H159080   0.248   0.256   3.144 -0.2294 -0.0777  0.2183
12555TIP3    H259081   0.195   0.269   3.003 -0.0053 -0.3392  0.1075
12556TIP3   OH259082   2.464   6.278  14.581  0.2468 -0.5974 -0.2070
12556TIP3    H159083   2.469   6.266  14.676 -1.1450  0.4640  0.0462
12556TIP3    H259084   2.372   6.299  14.565  0.8110  1.0583 -1.5555
12557TIP3   OH259085   1.893   0.637   1.569 -0.2914  0.1798 -1.0527
12557TIP3    H159086   1.872   0.725   1.602 -1.5993 -0.7210  0.7319
12557TIP3    H259087   1.961   0.605   1.628 -0.2125 -0.2054 -1.3493
12558TIP3   OH259088   5.778   5.952   4.697 -0.2288 -0.6466 -0.5840
12558TIP3    H159089   5.714   5.886   4.724  0.7526 -0.5891  2.1444
12558TIP3    H259090   5.725   6.030   4.677 -1.0806 -0.8141  0.9176
12559TIP3   OH259091   4.008   1.953  13.941  0.3933 -0.5277  0.0003
12559TIP3    H159092   4.067   1.889  13.903  1.4134  0.9044 -0.9568
12559TIP3    H259093   4.042   1.967  14.030  1.2427 -0.0412 -0.3928
12560TIP3   OH259094   1.463   3.445  11.073 -0.2811 -0.8592 -0.0680
12560TIP3    H159095   1.456   3.411  10.984 -0.4727  0.4291 -0.5551
12560TIP3    H259096   1.554   3.474  11.080 -0.6515  0.4076 -0.3608
12561TIP3   OH259097   0.315   4.970   2.668  0.3435  0.1721 -0.4603
12561TIP3    H159098   0.312   4.877   2.694 -0.4070  0.4067  0.3330
12561TIP3    H259099   0.395   4.977   2.616  0.8027 -0.7640  0.0840
12562TIP3   OH259100   1.102   1.420   3.686  0.0810  0.7168 -0.0161
12562TIP3    H159101   1.041   1.402   3.758  0.8862 -0.0898  0.4910
12562TIP3    H259102   1.177   1.461   3.728  0.5523  0.2566 -0.3944
12563TIP3   OH259103   2.177   1.527  14.222  0.7266 -0.0618 -0.0793
12563TIP3    H159104   2.174   1.583  14.144  1.0940  1.6657  1.0774
12563TIP3    H259105   2.261   1.481  14.216 -1.1494 -3.6356 -3.0002
12564TIP3   OH259106   2.464   0.685   1.755  0.4207  0.5099 -0.5296
12564TIP3    H159107   2.394   0.750   1.761 -1.6467 -1.5610 -0.7686
12564TIP3    H259108   2.502   0.682   1.843 -1.6036 -0.1303  0.3895
12565TIP3   OH259109   0.306   3.557   0.625  0.0516 -0.7739  0.3182
12565TIP3    H159110   0.316   3.608   0.705 -1.0643 -2.9420  1.9503
12565TIP3    H259111   0.223   3.586   0.588 -0.0712 -0.6898  0.6574
12566TIP3   OH259112   5.461   1.200  16.138 -0.2475 -0.3728 -0.5625
12566TIP3    H159113   5.496   1.229  16.054  0.7339 -0.8527 -0.3295
12566TIP3    H259114   5.486   1.269  16.199  0.5229 -0.8316 -0.3501
12567TIP3   OH259115   4.204   5.500  13.214  0.1717  0.0074 -0.3301
12567TIP3    H159116   4.208   5.595  13.198  0.1669 -0.1616 -1.3724
12567TIP3    H259117   4.132   5.490  13.277 -0.5402  0.6013 -1.0228
12568TIP3   OH259118   1.460   0.171  16.720 -0.5461 -0.2622 -0.2729
12568TIP3    H159119   1.446   0.216  16.637 -0.6469 -0.1577 -0.2001
12568TIP3    H259120   1.539   0.212  16.756  0.3367 -1.2855 -0.9877
12569TIP3   OH259121   2.511   3.220  16.645  0.2418  0.0603 -0.1404
12569TIP3    H159122   2.588   3.163  16.638  0.4014  0.2295  0.2196
12569TIP3    H259123   2.547   3.307  16.663  0.0800  0.5536 -2.0020
12570TIP3   OH259124   5.935   5.001   5.520 -0.9487  0.1336  0.3644
12570TIP3    H159125   5.862   5.060   5.543 -2.0294 -1.4445  1.1874
12570TIP3    H259126   5.925   4.927   5.580 -0.1170 -1.2709 -1.1742
12571TIP3   OH259127   3.060   2.296  16.109 -0.1630 -0.9808 -0.4752
12571TIP3    H159128   3.096   2.350  16.179 -0.2113 -2.1495  0.4720
12571TIP3    H259129   3.071   2.350  16.030 -0.2563  0.4207  0.4291
12572TIP3   OH259130   2.218   3.356  11.362 -0.4661  0.2965 -0.0483
12572TIP3    H159131   2.202   3.332  11.454  1.0139 -2.3964 -0.3706
12572TIP3    H259132   2.246   3.274  11.321 -0.7877  1.4914 -2.8681
12573TIP3   OH259133   0.046   3.973  11.511 -0.3247  0.5792  0.0763
12573TIP3    H159134   0.127   4.024  11.503 -0.5571  1.0324  0.5635
12573TIP3    H259135   0.072   3.883  11.489  0.2231  0.7929 -0.1678
12574TIP3   OH259136   3.329   4.589   1.107 -0.0605 -0.2011 -0.0801
12574TIP3    H159137   3.286   4.675   1.110  1.3339  0.6275 -1.8534
12574TIP3    H259138   3.378   4.585   1.189  2.2293  2.1098 -1.1675
12575TIP3   OH259139   4.642   0.439   1.856  0.2170  0.6300 -0.1961
12575TIP3    H159140   4.570   0.480   1.809  0.1481  0.4019 -0.2899
12575TIP3    H259141   4.709   0.423   1.789 -0.2741 -0.5983 -0.4094
12576TIP3   OH259142   4.478   2.389   0.972 -0.0535 -0.3358 -0.7003
12576TIP3    H159143   4.539   2.442   0.920  1.1320 -0.6015  0.3768
12576TIP3    H259144   4.473   2.435   1.056 -1.9941  0.1286 -1.0180
12577TIP3   OH259145   1.983   6.768   2.848 -0.0873  0.6758 -0.2051
12577TIP3    H159146   2.051   6.811   2.795  0.4301 -0.1567 -0.2367
12577TIP3    H259147   2.025   6.755   2.933  1.0048 -2.7437 -1.1233
12578TIP3   OH259148   2.406   5.966   3.040 -0.4302 -0.3682 -0.1026
12578TIP3    H159149   2.375   5.891   3.091 -0.3366 -1.1049 -1.1124
12578TIP3    H259150   2.473   6.005   3.096  1.0307 -2.2739 -0.4032
12579TIP3   OH259151   3.089   2.392  11.051  0.0485 -0.5622  0.1358
12579TIP3    H159152   3.056   2.354  10.969 -0.0091 -1.7949  0.6986
12579TIP3    H259153   3.035   2.469  11.066 -0.5962 -0.8846 -0.4818
12580TIP3   OH259154   2.989   4.840   4.104  0.0599  0.7117  0.4456
12580TIP3    H159155   3.065   4.855   4.159  0.3273  1.0881 -0.0231
12580TIP3    H259156   2.914   4.865   4.158  0.3429  1.3934  0.5215
12581TIP3   OH259157   2.319   6.229  13.086 -0.3820 -0.0889 -0.4903
12581TIP3    H159158   2.342   6.195  13.173 -0.8886  2.4210  0.7180
12581TIP3    H259159   2.237   6.185  13.065  1.1052 -2.8121 -1.0387
12582TIP3   OH259160   3.493   0.342  14.234 -0.3632 -0.2411  0.2554
12582TIP3    H159161   3.574   0.358  14.282  0.5251 -2.1879 -0.4787
12582TIP3    H259162   3.522   0.318  14.146 -1.6804 -1.6734  0.1707
12583TIP3   OH259163   5.421   0.922  15.547 -0.0366 -0.2827 -0.4525
12583TIP3    H159164   5.370   0.981  15.603  1.4864 -1.1004  1.9262
12583TIP3    H259165   5.359   0.855  15.519 -0.4072 -1.1642  2.2261
12584TIP3   OH259166   3.010   3.961  12.276  0.2230 -0.0831  0.9504
12584TIP3    H159167   2.935   3.914  12.309 -1.0146  1.6633  0.7724
12584TIP3    H259168   2.998   4.051  12.306  0.4046  1.0187 -1.8837
12585TIP3   OH259169   6.782   1.373   1.807  0.0932 -0.1724 -0.1325
12585TIP3    H159170   6.728   1.390   1.884  1.5579 -0.0572  0.9013
12585TIP3    H259171   6.812   1.283   1.819  0.3186 -0.1589 -0.5801
12586TIP3   OH259172   5.306   4.384  12.133  0.6742 -0.1805  0.5157
12586TIP3    H159173   5.231   4.396  12.191 -0.2948  0.8404 -0.8783
12586TIP3    H259174   5.376   4.354  12.190 -0.6312 -0.6162  1.9568
12587TIP3   OH259175   0.181   4.748   5.640  0.5081 -0.7566  0.1526
12587TIP3    H159176   0.132   4.801   5.704  1.0883 -2.4641  2.1488
12587TIP3    H259177   0.273   4.762   5.663  0.9011  0.3560 -1.8545
12588TIP3   OH259178   0.333   6.049   2.561  0.5783 -0.0694  0.1954
12588TIP3    H159179   0.308   6.026   2.472 -0.2194  0.6345  0.2203
12588TIP3    H259180   0.318   6.143   2.567  0.6807 -0.0948  1.0527
12589TIP3   OH259181   3.159   0.859   1.736 -0.2662 -0.1510  0.3816
12589TIP3    H159182   3.190   0.803   1.664  0.3940  3.9225 -2.8855
12589TIP3    H259183   3.229   0.857   1.800  0.6873 -1.3934 -0.6440
12590TIP3   OH259184   0.351   6.604  15.114 -0.1927  0.1219 -0.2100
12590TIP3    H159185   0.329   6.518  15.149  0.0747 -0.6377 -1.8022
12590TIP3    H259186   0.445   6.598  15.094 -0.0342  1.0049  0.2402
12591TIP3   OH259187   2.018   4.460   1.655 -0.5006 -0.0302 -0.4085
12591TIP3    H159188   2.013   4.512   1.574 -1.7492 -1.0072 -0.9914
12591TIP3    H259189   1.955   4.389   1.641 -0.0872 -0.7072  1.0794
12592TIP3   OH259190   3.267   3.029  14.579 -0.4710  0.1088  0.2995
12592TIP3    H159191   3.172   3.030  14.568 -0.5410 -2.2333  0.2396
12592TIP3    H259192   3.300   2.979  14.503  0.8048  0.8100  0.3601
12593TIP3   OH259193   4.150   5.266  11.217  0.0459  0.3653  0.1723
12593TIP3    H159194   4.182   5.352  11.189  0.5273  0.2853  0.4532
12593TIP3    H259195   4.055   5.276  11.221  0.0879  0.8484  0.0845
12594TIP3   OH259196   1.667   2.901  17.100 -0.8628  0.5064  0.3757
12594TIP3    H159197   1.575   2.929  17.109 -1.4172 -1.0540 -0.1593
12594TIP3    H259198   1.679   2.835  17.167  0.0254  1.0262  0.7418
12595TIP3   OH259199   0.618   5.616  15.424 -0.5677  0.2918 -0.1518
12595TIP3    H159200   0.690   5.556  15.407 -0.8440  0.3047 -1.4309
12595TIP3    H259201   0.581   5.586  15.507  1.2697  0.6526  0.8706
12596TIP3   OH259202   0.663   2.395  13.949 -0.0913 -0.0309  0.5741
12596TIP3    H159203   0.727   2.381  14.019  1.6152  2.6934 -0.2951
12596TIP3    H259204   0.677   2.322  13.888 -0.4218 -1.4753  2.1231
12597TIP3   OH259205   5.281   5.011   3.999  0.5628 -0.2697  0.1542
12597TIP3    H159206   5.244   4.943   4.055  0.7454  0.6247  1.4150
12597TIP3    H259207   5.369   5.025   4.033  0.3685  0.8959  0.2310
12598TIP3   OH259208   4.417   2.466  16.962 -0.6262 -0.8521  0.2853
12598TIP3    H159209   4.382   2.392  17.011  3.1654 -2.4000  1.0032
12598TIP3    H259210   4.436   2.431  16.875  0.3314 -0.4677  0.3307
12599TIP3   OH259211   6.446   1.235  10.787  0.2821 -0.3165 -0.1308
12599TIP3    H159212   6.468   1.305  10.849 -0.7462 -0.6332  0.6201
12599TIP3    H259213   6.355   1.253  10.762 -0.1447 -1.6188  0.4158
12600TIP3   OH259214   6.531   0.695  12.103 -0.8632 -0.4175  0.3505
12600TIP3    H159215   6.536   0.668  12.195  1.2033  3.9429  1.7932
12600TIP3    H259216   6.622   0.695  12.073 -1.3614 -0.3763 -1.2690
12601TIP3   OH259217   3.878   5.381  15.587 -0.3191 -0.2146 -0.0788
12601TIP3    H159218   3.816   5.332  15.533 -0.5216 -0.4942  0.4070
12601TIP3    H259219   3.844   5.374  15.676  0.9164 -1.2055  0.3533
12602TIP3   OH259220   2.525   1.708  13.275 -0.4247  0.2977 -0.1257
12602TIP3    H159221   2.488   1.796  13.276 -1.5535 -0.1468 -0.6706
12602TIP3    H259222   2.450   1.651  13.259 -0.0196 -0.9371  2.0243
12603TIP3   OH259223   4.562   2.777   1.988 -0.8349 -0.2124  0.2939
12603TIP3    H159224   4.654   2.798   1.971  0.1698 -2.6985  2.0347
12603TIP3    H259225   4.519   2.792   1.904  1.3207  0.1725 -0.8278
12604TIP3   OH259226   6.394   3.295  16.215  0.0300  0.6870 -0.4045
12604TIP3    H159227   6.469   3.255  16.259 -0.3092 -1.5727 -1.7088
12604TIP3    H259228   6.428   3.326  16.131  0.2368  3.1249  0.4964
12605TIP3   OH259229   1.991   1.611   0.627 -0.0052  0.1215  0.3279
12605TIP3    H159230   1.971   1.573   0.542  0.5535 -2.1134  1.1397
12605TIP3    H259231   1.908   1.649   0.657 -0.8841 -1.4402 -0.0556
12606TIP3   OH259232   1.558   2.028  11.079 -0.4348 -0.0332  0.6246
12606TIP3    H159233   1.619   2.044  11.007 -0.3487  1.6413  1.0455
12606TIP3    H259234   1.483   1.985  11.038 -0.2703  0.6610 -0.4277
12607TIP3   OH259235   0.307   1.845  12.767 -0.4324 -0.5900  0.2763
12607TIP3    H159236   0.230   1.854  12.823 -0.2347  0.1228  0.4526
12607TIP3    H259237   0.356   1.926  12.782 -0.6312 -0.1477 -1.3139
12608TIP3   OH259238   0.120   6.718  13.834 -0.1914 -0.1119 -0.1762
12608TIP3    H159239   0.209   6.731  13.867  0.9045 -1.8881 -2.1526
12608TIP3    H259240   0.106   6.791  13.773  0.2542 -0.2840 -0.4891
12609TIP3   OH259241   2.247   0.172   3.245  0.2020 -0.0574 -0.3146
12609TIP3    H159242   2.341   0.156   3.235 -0.1754 -1.5960 -1.8617
12609TIP3    H259243   2.214   0.093   3.286 -0.2838  0.9929  1.4313
12610TIP3   OH259244   0.298   1.351  12.238 -0.0641 -0.1446 -0.2327
12610TIP3    H159245   0.341   1.308  12.312 -0.3506 -1.5992 -0.8644
12610TIP3    H259246   0.294   1.283  12.170  1.7550  1.6192 -2.2516
12611TIP3   OH259247   5.745   5.816  13.392  0.4458 -0.3199  0.5351
12611TIP3    H159248   5.677   5.865  13.438  0.7122 -0.4162  1.0334
12611TIP3    H259249   5.697   5.749  13.344  0.1533 -0.1161  0.5367
12612TIP3   OH259250   2.948   4.027  12.629  0.3124  0.4076 -0.2735
12612TIP3    H159251   2.901   4.100  12.588  2.3073  2.3577  0.6705
12612TIP3    H259252   2.920   3.950  12.581 -3.4404  1.4381 -0.0499
12613TIP3   OH259253   6.179   5.343  14.109 -0.1013 -0.5897 -0.4795
12613TIP3    H159254   6.272   5.355  14.089 -0.0734 -0.2574 -0.1508
12613TIP3    H259255   6.158   5.412  14.172 -0.8124 -0.0106 -1.3210
12614TIP3   OH259256   1.937   2.083  15.197 -0.3359 -0.1403 -0.2397
12614TIP3    H159257   1.932   1.988  15.187  0.9032 -0.3223  0.5540
12614TIP3    H259258   1.942   2.096  15.292 -0.2564  0.6886 -0.3541
12615TIP3   OH259259   3.019   1.128   0.456  0.1726 -0.0146 -0.3667
12615TIP3    H159260   3.035   1.118   0.363 -0.2311  0.6592 -0.5189
12615TIP3    H259261   3.011   1.039   0.489  0.5868 -0.2617 -0.9270
12616TIP3   OH259262   1.503   4.645  11.152 -0.2479 -0.1990  0.4330
12616TIP3    H159263   1.504   4.564  11.101 -1.1278 -0.0117  0.0907
12616TIP3    H259264   1.414   4.651  11.186  0.5532 -0.7559  2.7550
12617TIP3   OH259265   1.151   2.710  10.692 -0.4203  0.5406 -0.0400
12617TIP3    H159266   1.233   2.754  10.712  0.6897 -0.7956 -1.4318
12617TIP3    H259267   1.091   2.781  10.666  1.0802  1.3448 -1.4761
12618TIP3   OH259268   3.991   4.053   5.884  0.0878  0.1492  0.0018
12618TIP3    H159269   3.901   4.058   5.853  0.4628  0.8277 -1.0027
12618TIP3    H259270   4.001   3.962   5.912 -0.7172 -0.0953 -0.4725
12619TIP3   OH259271   4.399   3.064   0.048  0.1854 -0.1677 -0.2859
12619TIP3    H159272   4.472   3.074   0.110 -0.9355 -1.7121  1.3868
12619TIP3    H259273   4.371   3.153   0.029  1.7143  0.4016 -0.0185
12620TIP3   OH259274   1.617   3.232  15.862 -0.2854 -0.2188  0.0236
12620TIP3    H159275   1.593   3.142  15.842 -2.1866  0.2622 -0.0910
12620TIP3    H259276   1.543   3.284  15.831  0.6475  1.3617  0.3225
12621TIP3   OH259277   1.532   0.263  13.619 -0.1532  0.0034  0.0921
12621TIP3    H159278   1.581   0.210  13.556  0.3459 -1.1914  1.4369
12621TIP3    H259279   1.544   0.353  13.589  0.8412 -0.4652 -0.9881
12622TIP3   OH259280   4.164   2.036   4.553 -0.0228  0.7945  0.4332
12622TIP3    H159281   4.139   2.086   4.631 -1.6702 -1.2496  1.3165
12622TIP3    H259282   4.118   1.952   4.563  2.5971 -0.9402 -0.9554
12623TIP3   OH259283   1.560   4.744   4.983 -0.3297 -0.6336 -0.1718
12623TIP3    H159284   1.629   4.803   5.014 -0.8252  0.4089 -0.9872
12623TIP3    H259285   1.480   4.777   5.023 -0.3709 -1.9565  0.9301
12624TIP3   OH259286   0.411   2.115  13.549  0.0423  0.1197  0.0826
12624TIP3    H159287   0.346   2.052  13.518 -1.0982  1.1459  0.2912
12624TIP3    H259288   0.433   2.085  13.637 -0.7369  0.1697  0.3049
12625TIP3   OH259289   6.117   0.804  16.993 -0.3862 -0.2532  0.2452
12625TIP3    H159290   6.165   0.883  16.966 -1.3189 -0.0229 -0.8726
12625TIP3    H259291   6.181   0.750  17.038  1.2343 -0.4618 -2.1470
12626TIP3   OH259292   5.239   2.774  14.095 -0.3060  1.0803 -0.2246
12626TIP3    H159293   5.167   2.768  14.032 -0.6609  2.3095  0.0356
12626TIP3    H259294   5.315   2.799  14.042 -0.0535 -0.2176 -0.5003
12627TIP3   OH259295   0.146   4.345   2.769 -0.3422  0.8078  0.2719
12627TIP3    H159296   0.171   4.409   2.702  0.0564  0.4757  0.0948
12627TIP3    H259297   0.226   4.332   2.821 -0.4110  0.4502  0.2951
12628TIP3   OH259298   5.402   6.725   0.024 -0.7236 -0.3213 -0.4596
12628TIP3    H159299   5.332   6.791   0.031 -0.2071  0.1650  0.2951
12628TIP3    H259300   5.469   6.767  -0.029  0.8553  0.9333  2.3433
12629TIP3   OH259301   0.424   4.336   6.167 -0.2047 -0.1390 -0.3729
12629TIP3    H159302   0.388   4.249   6.153  0.1450 -0.8420  2.3812
12629TIP3    H259303   0.487   4.325   6.238  1.2998  2.0389 -1.2628
12630TIP3   OH259304   1.320   5.330   4.369  0.5503  0.0221 -0.0741
12630TIP3    H159305   1.328   5.238   4.392 -0.3314  0.0007  0.2023
12630TIP3    H259306   1.227   5.342   4.349  0.4079  1.1009  1.0691
12631TIP3   OH259307   4.950   3.623   4.409  0.1005 -0.0954 -0.0883
12631TIP3    H159308   4.974   3.530   4.415 -1.2558 -0.4087  1.1959
12631TIP3    H259309   5.033   3.668   4.394  1.1657 -1.3136  1.7390
12632TIP3   OH259310   4.055   5.966  12.241  0.2452 -0.5105  0.4413
12632TIP3    H159311   4.125   5.984  12.178  0.7845 -1.8974  0.6296
12632TIP3    H259312   4.044   5.871  12.239 -1.3392 -0.3625  0.7346
12633TIP3   OH259313   2.453   2.904  13.298  0.0099 -0.3636 -0.2426
12633TIP3    H159314   2.493   2.991  13.306 -0.9763  0.3698 -2.4773
12633TIP3    H259315   2.473   2.861  13.381  0.7245  1.9045  0.8492
12634TIP3   OH259316   0.932   4.214  14.737  0.1183 -0.7857 -0.6871
12634TIP3    H159317   0.861   4.218  14.673  0.8535 -1.5546 -1.5849
12634TIP3    H259318   1.009   4.242  14.688  0.5208 -0.4043  0.1492
12635TIP3   OH259319   2.178   4.367  12.898  0.1407  0.0149  0.0820
12635TIP3    H159320   2.160   4.305  12.969  0.6185 -0.9428 -0.6063
12635TIP3    H259321   2.113   4.347  12.831  0.7253 -0.2110 -0.4266
12636TIP3   OH259322   0.689   5.309   2.856 -0.0667  0.0227  0.0062
12636TIP3    H159323   0.625   5.276   2.919 -0.0397  0.7781  0.4530
12636TIP3    H259324   0.761   5.246   2.858  1.0090  1.1778  2.5075
12637TIP3   OH259325   0.332   6.392   3.339  0.6791 -0.3346 -0.4853
12637TIP3    H159326   0.372   6.329   3.399  1.4007  1.0116  0.5039
12637TIP3    H259327   0.243   6.403   3.371  0.5816 -0.7621 -0.6002
12638TIP3   OH259328   0.820   5.995   5.421 -0.5960 -0.6517 -0.1610
12638TIP3    H159329   0.814   6.088   5.444 -1.0838 -0.1280 -2.2704
12638TIP3    H259330   0.772   5.950   5.491  1.5873  0.3870  2.2028
12639TIP3   OH259331   2.622   4.680  13.511 -0.0443 -0.2931 -0.3131
12639TIP3    H159332   2.572   4.622  13.568 -0.4693  0.3411 -0.0213
12639TIP3    H259333   2.628   4.762  13.559  1.7226 -0.4945 -0.1335
12640TIP3   OH259334   6.686   1.118  13.099 -0.4755  0.2597  0.4411
12640TIP3    H159335   6.689   1.140  13.005 -0.5378 -1.6696 -0.0632
12640TIP3    H259336   6.754   1.053  13.110 -1.2106 -0.3535  1.5086
12641TIP3   OH259337   6.744   2.162   1.089 -0.7870 -0.0809 -0.4610
12641TIP3    H159338   6.706   2.230   1.145 -1.1430 -0.2944 -0.4401
12641TIP3    H259339   6.825   2.201   1.055 -1.2746  0.5699 -0.9103
12642TIP3   OH259340   3.764   2.178   2.009  0.0002  0.7576  0.4266
12642TIP3    H159341   3.808   2.181   1.924 -0.0701  2.1750  0.4254
12642TIP3    H259342   3.671   2.166   1.987 -0.0263  1.1906  0.2997
12643TIP3   OH259343   6.321   3.436  13.424  0.1126  0.7881 -0.2048
12643TIP3    H159344   6.306   3.506  13.487 -4.5092 -0.9375  1.1070
12643TIP3    H259345   6.268   3.460  13.348  0.8013  0.0454 -0.9463
12644TIP3   OH259346   1.157   1.926  14.683 -0.6922 -0.1143 -0.0391
12644TIP3    H159347   1.215   1.954  14.753  0.4572 -0.7463 -0.6977
12644TIP3    H259348   1.180   1.981  14.608 -0.4218 -0.8288 -0.5040
12645TIP3   OH259349   0.951   4.653  13.356 -0.3807 -0.6364 -0.4195
12645TIP3    H159350   1.008   4.721  13.391 -0.9721  1.2472 -2.8446
12645TIP3    H259351   1.009   4.600  13.300 -0.2518 -1.1400  0.1816
12646TIP3   OH259352   3.169   0.533  15.075 -0.3194  0.2147 -0.0370
12646TIP3    H159353   3.261   0.559  15.084 -0.0953  0.0127 -1.4318
12646TIP3    H259354   3.130   0.551  15.160  0.8572  0.9440  0.3687
12647TIP3   OH259355   5.200   4.375   3.629  0.2114 -0.0889 -0.2735
12647TIP3    H159356   5.141   4.338   3.695  2.2282 -1.8772  0.6567
12647TIP3    H259357   5.272   4.413   3.679  0.6719  0.6164 -1.4174
12648TIP3   OH259358   4.549   5.973   4.268 -0.0302  0.1195 -0.1667
12648TIP3    H159359   4.624   5.975   4.328  0.1869  0.9817 -0.4481
12648TIP3    H259360   4.588   5.976   4.181 -0.3581  3.6353 -0.3548
12649TIP3   OH259361   2.323   0.510  14.848 -0.1429 -0.1969 -0.1078
12649TIP3    H159362   2.313   0.527  14.754  0.7657  0.6189 -0.0706
12649TIP3    H259363   2.302   0.593  14.890  1.2229 -0.0260  0.2899
12650TIP3   OH259364   6.093   1.049   3.300  0.2983  0.3646 -0.2812
12650TIP3    H159365   6.156   1.063   3.372  2.3018 -1.3640 -1.5830
12650TIP3    H259366   6.077   0.955   3.300 -2.1076  0.7201 -0.2250
12651TIP3   OH259367   6.108   4.906  15.001 -0.4005  0.0985 -0.0604
12651TIP3    H159368   6.046   4.963  15.047 -0.4798  0.4861 -0.6355
12651TIP3    H259369   6.193   4.928  15.039 -0.4435  0.5400 -0.2074
12652TIP3   OH259370   6.520   5.354  14.421 -0.4182 -0.7909  0.2606
12652TIP3    H159371   6.497   5.293  14.351  0.0989 -1.2237  0.4614
12652TIP3    H259372   6.546   5.297  14.494 -0.7921 -0.3441  0.7489
12653TIP3   OH259373   2.594   0.641   1.046 -0.0091  0.3555  0.2647
12653TIP3    H159374   2.618   0.595   1.126  1.0711 -0.2693 -0.3850
12653TIP3    H259375   2.536   0.580   1.000  0.2551  0.2411  0.0764
12654TIP3   OH259376   3.979   5.872  11.821 -0.4832 -0.1468  0.6125
12654TIP3    H159377   4.019   5.957  11.806 -1.7774  0.4866  0.5796
12654TIP3    H259378   4.037   5.828  11.883  0.8710  0.2436 -0.3343
12655TIP3   OH259379   6.449   6.651   3.543 -0.6587  0.1369  0.7949
12655TIP3    H159380   6.499   6.591   3.488  3.1449  2.5999  1.0884
12655TIP3    H259381   6.375   6.678   3.489 -0.0323 -1.5070 -0.9892
12656TIP3   OH259382   1.616   0.556  16.943 -0.0072  0.1932 -0.7139
12656TIP3    H159383   1.676   0.629  16.929 -0.0295 -0.0626 -2.2711
12656TIP3    H259384   1.537   0.596  16.978  0.4112  0.7435 -0.3720
12657TIP3   OH259385   2.643   1.268   4.088 -0.2120 -0.2245  0.5631
12657TIP3    H159386   2.594   1.185   4.091  0.5790 -0.7056  0.4141
12657TIP3    H259387   2.599   1.324   4.152  0.4625 -1.4612  2.1919
12658TIP3   OH259388   6.264   0.013   6.205  0.1723 -0.1353 -0.3149
12658TIP3    H159389   6.280   0.085   6.266 -0.3883  0.7144 -1.1578
12658TIP3    H259390   6.313   0.036   6.127 -1.8441  0.5342 -1.4579
12659TIP3   OH259391   2.107   3.572   1.908 -0.4011  0.1524  0.3266
12659TIP3    H159392   2.201   3.563   1.927 -0.2375 -0.9271 -0.8690
12659TIP3    H259393   2.072   3.616   1.985  1.1554  0.9639  0.6208
12660TIP3   OH259394   4.365   4.936   0.807 -0.1102  0.1171  0.3543
12660TIP3    H159395   4.353   5.015   0.859  0.4738  0.1403  0.4559
12660TIP3    H259396   4.393   4.967   0.721  1.3653 -0.0278  0.7703
12661TIP3   OH259397   2.413   3.393  12.208 -0.0127  0.0235  0.4892
12661TIP3    H159398   2.459   3.432  12.283 -0.0557 -1.5016  1.3307
12661TIP3    H259399   2.326   3.432  12.210  0.4639  1.1424  0.3002
12662TIP3   OH259400   2.536   2.443   3.818  0.2620  0.3436  0.2382
12662TIP3    H159401   2.632   2.439   3.816  0.2520 -0.6806 -2.4466
12662TIP3    H259402   2.517   2.537   3.828  1.5469  0.6404  0.1364
12663TIP3   OH259403   1.340   2.335  13.170  0.1662 -0.3062  0.0557
12663TIP3    H159404   1.378   2.247  13.165  0.4841 -0.1761  0.1882
12663TIP3    H259405   1.247   2.319  13.186  0.6209 -0.6147  2.9817
12664TIP3   OH259406   2.151   0.747   4.970 -0.1290  0.0679  0.0780
12664TIP3    H159407   2.165   0.799   4.890  1.8624 -0.9887 -0.3070
12664TIP3    H259408   2.237   0.738   5.009 -0.7992 -0.9701  1.4027
12665TIP3   OH259409   5.049   5.648  12.860 -0.2468 -0.1927 -0.6480
12665TIP3    H159410   5.078   5.655  12.951 -0.0820 -0.8217 -0.6468
12665TIP3    H259411   4.986   5.575  12.861 -0.6699  0.1645 -0.9320
12666TIP3   OH259412   2.472   2.916   2.787  0.0059  0.2291  0.1558
12666TIP3    H159413   2.519   2.953   2.713 -1.6702  0.7209 -0.7071
12666TIP3    H259414   2.420   2.845   2.749 -1.6878  1.1676  0.6236
12667TIP3   OH259415   5.857   6.449  11.808  0.5489 -0.2161 -0.3469
12667TIP3    H159416   5.878   6.455  11.901 -0.5250  0.0710 -0.1158
12667TIP3    H259417   5.917   6.382  11.774  1.8332  0.5650  0.2780
12668TIP3   OH259418   6.611   4.440   3.132  0.1451  0.4822 -0.8808
12668TIP3    H159419   6.603   4.347   3.112  0.1049  0.5451 -1.1630
12668TIP3    H259420   6.687   4.469   3.080  2.9054 -0.2973  2.3149
12669TIP3   OH259421   3.105   5.036  15.396 -0.0623  0.2427  0.1507
12669TIP3    H159422   3.040   4.995  15.454 -0.9410  1.0857 -0.2160
12669TIP3    H259423   3.059   5.109  15.355  0.9081  0.4134 -0.6922
12670TIP3   OH259424   3.289   2.601   1.117  0.3682 -1.2784  0.0288
12670TIP3    H159425   3.282   2.509   1.091 -2.4849 -0.7120 -1.6153
12670TIP3    H259426   3.359   2.636   1.062  0.2765 -2.0791 -0.6160
12671TIP3   OH259427   4.196   1.985   1.534 -0.0038  0.6376  0.1081
12671TIP3    H159428   4.155   1.988   1.448 -3.1472  2.0932  1.5010
12671TIP3    H259429   4.225   2.075   1.550 -0.8361  0.7374  1.1442
12672TIP3   OH259430   4.620   2.462   2.326  0.1172 -0.0021  0.1027
12672TIP3    H159431   4.594   2.550   2.353 -0.1515  0.7888 -2.4950
12672TIP3    H259432   4.624   2.466   2.231 -1.6044 -3.2633 -0.2545
12673TIP3   OH259433   0.710   5.116   3.114  0.4943 -0.0747 -0.0059
12673TIP3    H159434   0.721   5.046   3.178 -1.8842 -0.1013  0.4659
12673TIP3    H259435   0.668   5.075   3.039  1.4121  0.3703 -0.7964
12674TIP3   OH259436   3.176   5.147   4.583 -0.7008  0.5359 -0.0517
12674TIP3    H159437   3.197   5.093   4.659 -1.2052  0.3798 -0.0219
12674TIP3    H259438   3.261   5.181   4.554 -0.3357 -0.5418 -0.2775
12675TIP3   OH259439   0.490   5.929  14.414 -0.2586 -0.1955  0.3578
12675TIP3    H159440   0.485   5.937  14.510  1.7684  1.7038  0.4166
12675TIP3    H259441   0.530   5.843  14.399 -0.1669 -0.3257  1.2654
12676TIP3   OH259442   5.578   1.282  15.336 -0.2272 -0.0889 -0.0249
12676TIP3    H159443   5.595   1.188  15.336 -1.3661 -0.3030  0.3309
12676TIP3    H259444   5.638   1.318  15.402 -1.0896 -0.8162  1.1848
12677TIP3   OH259445   4.866   4.536   5.973 -0.0055 -0.3625  0.1775
12677TIP3    H159446   4.887   4.617   6.020  0.9992 -0.3196 -0.3209
12677TIP3    H259447   4.771   4.533   5.972 -0.0476  0.3721  0.9594
12678TIP3   OH259448   3.225   5.573   1.367  0.3556  0.5416 -1.2115
12678TIP3    H159449   3.283   5.615   1.430 -0.6789  0.3590 -0.1089
12678TIP3    H259450   3.243   5.479   1.377 -0.0061  0.4954 -0.9852
12679TIP3   OH259451   2.739   4.371   4.437  0.7406  0.1331  0.3014
12679TIP3    H159452   2.719   4.461   4.463  0.2236 -0.2416  1.2726
12679TIP3    H259453   2.801   4.380   4.364  1.3863  1.2561  0.9587
12680TIP3   OH259454   2.795   1.890  12.210  0.5596  0.2960 -0.3087
12680TIP3    H159455   2.825   1.850  12.291 -1.6400 -0.1118  0.3911
12680TIP3    H259456   2.874   1.923  12.167  1.8916 -0.5491  1.4122
12681TIP3   OH259457   1.141   4.205  16.577  0.3256  0.1363 -0.7658
12681TIP3    H159458   1.086   4.273  16.539 -1.2923 -0.8522 -0.2768
12681TIP3    H259459   1.096   4.178  16.657  0.8071 -1.6175 -1.0318
12682TIP3   OH259460   4.798   1.427   0.831 -0.5354  0.3303  0.3460
12682TIP3    H159461   4.713   1.394   0.857 -0.5803  0.0550 -0.1317
12682TIP3    H259462   4.848   1.435   0.912 -0.6471 -0.5604  0.5089
12683TIP3   OH259463   2.621   5.242   1.382 -0.1834 -0.4992 -0.0566
12683TIP3    H159464   2.653   5.237   1.472 -0.0014 -0.5705 -0.1248
12683TIP3    H259465   2.608   5.151   1.356 -2.3908 -0.4525  0.6533
12684TIP3   OH259466   2.152   4.890  15.479 -0.1340  0.5695 -0.1405
12684TIP3    H159467   2.160   4.985  15.485  0.2064  0.4543  1.9124
12684TIP3    H259468   2.241   4.858  15.495 -0.7833 -0.1442  2.4899
12685TIP3   OH259469   1.482   2.273  13.435  0.3194  0.0613 -0.0925
12685TIP3    H159470   1.459   2.182  13.456  0.4661  0.2974  1.2025
12685TIP3    H259471   1.450   2.286  13.346  0.0192 -1.1654 -0.1850
12686TIP3   OH259472   4.291   0.713  13.755  0.0553 -0.3608 -0.0806
12686TIP3    H159473   4.308   0.662  13.834 -0.1062  0.1699  0.2969
12686TIP3    H259474   4.317   0.802  13.777 -0.6138 -0.0754 -0.3935
12687TIP3   OH259475   6.427   5.961   1.499  0.4513  0.1892 -0.1125
12687TIP3    H159476   6.463   5.936   1.414  1.0989  1.7268 -0.3173
12687TIP3    H259477   6.409   5.877   1.542  0.1890 -0.6244 -1.7065
12688TIP3   OH259478   2.171   2.873  13.319  0.3051 -0.5288 -0.1551
12688TIP3    H159479   2.267   2.874  13.321  0.3708 -1.3341 -1.6863
12688TIP3    H259480   2.148   2.948  13.265  0.0127  0.1731  0.9111
12689TIP3   OH259481   5.436   1.281  11.426  0.3999 -0.4377 -0.0692
12689TIP3    H159482   5.412   1.249  11.339  0.8717  1.3771 -0.9099
12689TIP3    H259483   5.504   1.346  11.410  0.4571 -0.0165  1.6621
12690TIP3   OH259484   6.732   2.295   4.780  0.3504  0.3160 -0.3092
12690TIP3    H159485   6.792   2.358   4.740 -1.3759  0.8180 -2.3043
12690TIP3    H259486   6.785   2.249   4.845  2.4548  1.7523 -0.8994
12691TIP3   OH259487   0.258   1.366  11.447  0.2441 -0.7233  0.0448
12691TIP3    H159488   0.217   1.290  11.488  1.1226 -0.4974  1.4427
12691TIP3    H259489   0.285   1.420  11.521  1.2121  0.0908 -0.8775
12692TIP3   OH259490   0.035   0.576   2.509 -0.5421 -0.2370 -0.5641
12692TIP3    H159491   0.101   0.565   2.578 -0.7373  0.2892 -0.2867
12692TIP3    H259492   0.076   0.634   2.445 -0.6020 -0.1961 -0.5655
12693TIP3   OH259493   0.805   0.260  11.002  0.2402  0.0006 -0.1656
12693TIP3    H159494   0.880   0.265  10.943  1.0335  0.1317  0.8250
12693TIP3    H259495   0.790   0.350  11.030  0.9292 -0.2474  1.0926
12694TIP3   OH259496   2.782   4.825   1.437  0.1832 -0.8087  0.7686
12694TIP3    H159497   2.750   4.783   1.517 -0.7982 -1.4724  0.0471
12694TIP3    H259498   2.764   4.762   1.367 -2.0437  1.0170 -0.4758
12695TIP3   OH259499   2.875   0.853  15.006  0.4482  0.0755 -0.0849
12695TIP3    H159500   2.940   0.825  15.070 -0.2119 -0.1000  0.5101
12695TIP3    H259501   2.865   0.777  14.948 -0.3389 -0.4621  0.7276
12696TIP3   OH259502   3.002   5.820  11.703 -0.2470 -0.6760 -0.0526
12696TIP3    H159503   3.032   5.814  11.612  0.1526  1.8967 -0.1816
12696TIP3    H259504   2.907   5.829  11.696 -0.1021  1.0324 -0.3953
12697TIP3   OH259505   1.888   4.735   2.525  0.4296  0.1194  0.7312
12697TIP3    H159506   1.834   4.781   2.460  0.4454 -0.6835  0.1438
12697TIP3    H259507   1.952   4.687   2.474  0.2124 -0.8160  1.3159
12698TIP3   OH259508   1.801   6.136  16.536  0.3034 -0.1436  0.0994
12698TIP3    H159509   1.883   6.149  16.583  1.6971  3.1166 -2.7921
12698TIP3    H259510   1.821   6.066  16.474  2.7789  3.4671 -3.6916
12699TIP3   OH259511   1.198   0.434  15.735  0.3492  0.1421  0.1598
12699TIP3    H159512   1.268   0.468  15.791  0.1291  3.3984 -1.3613
12699TIP3    H259513   1.244   0.391  15.662  0.6311 -1.8694  1.4358
12700TIP3   OH259514   2.343   1.256  16.559  0.1289 -0.2515  0.2328
12700TIP3    H159515   2.288   1.177  16.556  0.8053 -0.7179 -1.3415
12700TIP3    H259516   2.417   1.231  16.614 -0.2184 -0.3396  0.6584
12701TIP3   OH259517   5.554   3.963   2.456 -0.0764 -0.1891  0.2021
12701TIP3    H159518   5.584   4.007   2.535 -0.0492 -0.1794  0.1867
12701TIP3    H259519   5.573   4.025   2.386 -2.4867  0.9360  0.4439
12702TIP3   OH259520   2.725   2.342  12.800  0.0340 -0.3684 -0.3836
12702TIP3    H159521   2.680   2.264  12.833  0.9369 -0.9219 -0.4283
12702TIP3    H259522   2.725   2.403  12.873 -0.7724 -0.3624 -0.3795
12703TIP3   OH259523   2.740   0.973   3.878 -0.2478  0.6481 -0.2381
12703TIP3    H159524   2.664   0.936   3.924 -2.4080  2.4979 -2.0537
12703TIP3    H259525   2.806   0.985   3.946 -1.1559 -2.0092  1.2327
12704TIP3   OH259526   1.355   6.597  12.936 -0.0411 -0.0351  0.1078
12704TIP3    H159527   1.294   6.608  13.009 -0.5531  1.5982 -0.5193
12704TIP3    H259528   1.441   6.617  12.973  0.1224 -1.9417  0.8944
12705TIP3   OH259529   1.828   2.329  11.578  0.2717  0.0674 -0.3856
12705TIP3    H159530   1.859   2.322  11.668  0.4148  1.6864 -0.2911
12705TIP3    H259531   1.907   2.340  11.525  0.0815  1.0285 -0.4876
12706TIP3   OH259532   0.366   1.144   3.665 -0.8031  0.1181 -0.1529
12706TIP3    H159533   0.328   1.127   3.579  0.4996  0.4610 -0.8303
12706TIP3    H259534   0.433   1.210   3.648  1.1024 -1.5045  0.6921
12707TIP3   OH259535   5.949   3.944  14.284  0.2228  0.0556  0.0371
12707TIP3    H159536   5.930   3.953  14.191  0.3084  0.3884  0.0485
12707TIP3    H259537   6.006   3.868  14.290  1.3057  0.8085 -0.3501
12708TIP3   OH259538   6.225   5.917  14.376  0.0487 -0.3070  0.0480
12708TIP3    H159539   6.192   5.843  14.323  1.3812 -0.8926 -0.0056
12708TIP3    H259540   6.315   5.929  14.346 -0.5472  2.2900 -0.9435
12709TIP3   OH259541   5.752   0.099  16.950  0.3589 -0.2040  0.3012
12709TIP3    H159542   5.763   0.057  16.865 -0.0940 -2.1980  1.1826
12709TIP3    H259543   5.664   0.135  16.948 -0.1182 -1.3390  0.3653
12710TIP3   OH259544   3.474   0.400  15.654  0.2597 -0.1773 -0.3316
12710TIP3    H159545   3.503   0.491  15.642 -0.6418  0.2684  0.6653
12710TIP3    H259546   3.402   0.389  15.593  0.9386 -0.5252 -1.0927
12711TIP3   OH259547   1.386   2.293  14.351 -0.4199  0.3154 -0.0248
12711TIP3    H159548   1.380   2.256  14.263  1.1109 -0.3184  0.1097
12711TIP3    H259549   1.418   2.222  14.405  3.3955  1.9138  0.1005
12712TIP3   OH259550   5.965   6.610  15.059 -0.2871 -0.2803  0.2958
12712TIP3    H159551   5.937   6.695  15.025 -0.6365 -1.0642 -1.4940
12712TIP3    H259552   5.947   6.615  15.153  1.0907  2.1419  0.5384
12713TIP3   OH259553   5.234   2.944  15.490 -0.4805 -0.2153  0.0638
12713TIP3    H159554   5.210   2.995  15.567 -0.3548 -0.3359  0.1827
12713TIP3    H259555   5.226   3.005  15.417 -0.0532  0.0485  0.2412
12714TIP3   OH259556   0.038   0.031   5.582 -0.1340 -0.2837  0.2119
12714TIP3    H159557   0.043  -0.049   5.634  0.3129 -0.5501 -0.2326
12714TIP3    H259558   0.070   0.100   5.641  3.7578 -1.0689 -0.6784
12715TIP3   OH259559   6.489   2.615  11.050 -0.2213 -0.0564  0.1483
12715TIP3    H159560   6.427   2.595  10.980 -0.2919  1.5533 -0.2828
12715TIP3    H259561   6.571   2.574  11.022 -0.7037 -0.9365  0.0064
12716TIP3   OH259562   5.566   4.068  12.028 -0.0259 -0.0622 -0.3450
12716TIP3    H159563   5.627   3.994  12.035 -2.4709 -2.3545 -1.2232
12716TIP3    H259564   5.524   4.073  12.114  0.9709  1.1839  0.1018
12717TIP3   OH259565   0.667   3.073  16.560 -0.2734  0.5137  0.1674
12717TIP3    H159566   0.597   3.102  16.502 -1.8491  0.6510  2.0548
12717TIP3    H259567   0.645   2.983  16.582  0.8898  0.1079 -0.2513
12718TIP3   OH259568   2.895   1.483  13.556  0.3957  0.5054  0.1345
12718TIP3    H159569   2.894   1.574  13.528  1.0722 -0.0091 -1.7657
12718TIP3    H259570   2.848   1.436  13.487  1.5184 -0.7746  0.1817
12719TIP3   OH259571   0.150   3.600  12.408 -0.3387 -0.9550  0.3243
12719TIP3    H159572   0.166   3.669  12.473 -1.4343 -1.2644  0.9550
12719TIP3    H259573   0.059   3.574  12.423 -0.5143 -1.2616 -1.1423
12720TIP3   OH259574   1.123   4.199  13.135 -0.0047 -0.5691 -0.2251
12720TIP3    H159575   1.034   4.226  13.114 -0.0694  3.5746  3.8231
12720TIP3    H259576   1.177   4.236  13.065 -1.1447  0.5445 -0.5455
12721TIP3   OH259577   3.180   5.977  15.195  0.0934  0.2924 -0.6526
12721TIP3    H159578   3.209   5.926  15.120  0.6106  0.5660 -0.6412
12721TIP3    H259579   3.111   5.924  15.235 -0.7556  0.5064 -1.7756
12722TIP3   OH259580   6.032   6.664  14.007  0.0900 -0.0005 -0.0120
12722TIP3    H159581   6.086   6.601  14.055 -1.0995 -0.2450  1.0502
12722TIP3    H259582   6.032   6.742  14.062 -0.3977  0.1017 -0.1557
12723TIP3   OH259583   1.563   5.092   3.378  0.0045  0.1558 -0.0749
12723TIP3    H159584   1.653   5.122   3.387  0.2408 -1.0578  2.4659
12723TIP3    H259585   1.559   5.012   3.430 -2.6248  0.3234  0.1079
12724TIP3   OH259586   2.399   2.142   3.980 -0.2492  0.2827 -0.3209
12724TIP3    H159587   2.420   2.088   3.904 -0.4898 -0.0580 -0.1492
12724TIP3    H259588   2.466   2.210   3.981  0.4134 -0.3608 -0.1907
12725TIP3   OH259589   5.760   6.558   6.149 -0.4491  0.0714 -0.1901
12725TIP3    H159590   5.730   6.468   6.158 -1.1230  0.3504  0.5704
12725TIP3    H259591   5.756   6.594   6.238 -2.0418  1.3961 -0.7395
12726TIP3   OH259592   0.789   5.629  16.643 -0.8522  0.5493 -0.6352
12726TIP3    H159593   0.851   5.637  16.570  0.5328 -1.1336  0.2562
12726TIP3    H259594   0.709   5.594  16.603 -0.5857  0.9414 -1.5387
12727TIP3   OH259595   3.717   4.355  12.193  0.1251  0.1337 -0.3324
12727TIP3    H159596   3.810   4.334  12.184 -0.4088 -2.0382 -1.3889
12727TIP3    H259597   3.694   4.397  12.110  0.6820  3.2620  0.9435
12728TIP3   OH259598   6.327   6.611   0.822  0.6962 -0.6786  0.0279
12728TIP3    H159599   6.283   6.551   0.763 -0.5456  2.4868 -2.6004
12728TIP3    H259600   6.399   6.647   0.771  0.7803  0.7700  1.0918
12729TIP3   OH259601   4.177   1.423  16.218  0.2934  1.0077  0.7537
12729TIP3    H159602   4.264   1.432  16.257  0.7123 -0.4306  0.2255
12729TIP3    H259603   4.161   1.329  16.217  0.7838  0.8030 -3.4396
12730TIP3   OH259604   2.021   5.359   5.815  0.3703  0.0488  0.3535
12730TIP3    H159605   1.987   5.394   5.732 -0.2260 -0.8473  0.2033
12730TIP3    H259606   1.971   5.278   5.829  1.2014 -0.3599  1.0527
12731TIP3   OH259607   3.835   0.118  12.125 -0.2151  0.2996  0.0740
12731TIP3    H159608   3.879   0.067  12.192 -0.4946 -0.5789 -0.3950
12731TIP3    H259609   3.747   0.133  12.159  0.0174  0.9058  0.4255
12732TIP3   OH259610   0.121   6.039  12.604 -0.2712 -0.2580 -0.3573
12732TIP3    H159611   0.095   6.131  12.597  0.8873  0.0783 -0.4440
12732TIP3    H259612   0.058   6.001  12.665 -1.8185  0.1663 -1.6025
12733TIP3   OH259613   1.165   0.899   1.344 -0.4762  0.4438  0.2150
12733TIP3    H159614   1.071   0.914   1.342 -0.3264  1.6800 -2.8419
12733TIP3    H259615   1.200   0.972   1.395 -1.0922  0.4470  0.6421
12734TIP3   OH259616   1.025   1.443   1.133  0.3731 -0.6768  0.1398
12734TIP3    H159617   1.078   1.373   1.173  0.0555 -1.5000 -0.8261
12734TIP3    H259618   0.943   1.400   1.110 -0.7706  0.5914  1.6589
12735TIP3   OH259619   4.542   4.561   2.442 -0.0479 -0.9103 -0.2376
12735TIP3    H159620   4.470   4.556   2.504 -0.1157 -1.3070 -0.3440
12735TIP3    H259621   4.621   4.548   2.495 -0.1837 -2.7303 -0.4171
12736TIP3   OH259622   4.904   4.346   5.461 -0.2737  0.4170 -0.0942
12736TIP3    H159623   4.863   4.333   5.546 -0.2811  0.5179 -0.0814
12736TIP3    H259624   4.953   4.266   5.444  0.9417  0.9629  0.6828
12737TIP3   OH259625   6.154   2.307  17.081  0.0027 -0.7616 -0.0232
12737TIP3    H159626   6.088   2.338  17.018 -0.1271 -0.0273  0.4606
12737TIP3    H259627   6.115   2.228  17.119 -0.0855 -0.9922 -0.5763
12738TIP3   OH259628   0.445   1.664   4.400 -0.1718  0.6445  0.8300
12738TIP3    H159629   0.379   1.618   4.348  0.1552  1.7039 -0.5678
12738TIP3    H259630   0.413   1.754   4.405  0.2106  0.7343  1.8096
12739TIP3   OH259631   3.445   1.463  12.015  0.0210  0.9091  0.0746
12739TIP3    H159632   3.407   1.537  12.062  0.3404  0.5310  0.9399
12739TIP3    H259633   3.539   1.476  12.023  0.0996 -0.2520  1.3280
12740TIP3   OH259634   3.199   3.676  15.320  0.0672  0.8683 -0.4001
12740TIP3    H159635   3.151   3.627  15.388  0.9745  1.3214  0.6040
12740TIP3    H259636   3.216   3.611  15.252  0.1437  0.0898  0.3378
12741TIP3   OH259637   3.152   0.826   0.229  0.0622 -0.0191  0.0518
12741TIP3    H159638   3.087   0.894   0.210  0.2122  0.2222  0.3998
12741TIP3    H259639   3.100   0.745   0.236 -0.1223  0.0662 -0.2997
12742TIP3   OH259640   4.803   6.244  12.141 -0.1155  0.3543  0.5009
12742TIP3    H159641   4.791   6.202  12.227  1.8202 -2.9797 -0.6424
12742TIP3    H259642   4.892   6.279  12.145 -1.1316  3.1112  0.8391
12743TIP3   OH259643   1.097   3.871   2.966 -0.4788 -0.3765  0.1351
12743TIP3    H159644   1.066   3.929   2.896  1.5919 -0.2119 -0.7406
12743TIP3    H259645   1.033   3.801   2.970 -1.6450  0.6062 -0.6208
12744TIP3   OH259646   1.793   3.868  15.677 -0.0817 -0.1919  0.2803
12744TIP3    H159647   1.846   3.889  15.754  1.1726 -1.3723 -0.2265
12744TIP3    H259648   1.704   3.862  15.711  0.2587  0.6067  1.3849
12745TIP3   OH259649   1.270   4.172  15.161 -0.6645  0.0412  0.0882
12745TIP3    H159650   1.284   4.122  15.241  0.4711 -0.2064 -0.2419
12745TIP3    H259651   1.305   4.115  15.092  0.2825  1.1128 -0.3408
12746TIP3   OH259652   5.808   5.704  15.869 -0.0474 -0.4886 -0.1078
12746TIP3    H159653   5.782   5.613  15.854  0.0618 -0.4591 -0.5081
12746TIP3    H259654   5.810   5.743  15.781  0.3158 -0.2120  0.0194
12747TIP3   OH259655   1.541   3.948  15.790 -0.0662  0.8386 -0.0953
12747TIP3    H159656   1.485   3.967  15.715  2.0284  1.2222 -1.6538
12747TIP3    H259657   1.575   4.033  15.818 -1.1934  0.7691  1.6851
12748TIP3   OH259658   5.221   3.281   3.566 -0.2233  0.1896 -0.0357
12748TIP3    H159659   5.149   3.334   3.534 -0.4184 -0.8389 -1.3979
12748TIP3    H259660   5.266   3.251   3.487  0.7273 -0.5011  0.7378
12749TIP3   OH259661   3.075   5.777   5.414  0.1298 -0.0694  0.1573
12749TIP3    H159662   3.113   5.742   5.333 -0.0620  0.4723 -0.1749
12749TIP3    H259663   3.114   5.865   5.422 -0.6157  0.2683  0.1144
12750TIP3   OH259664   3.968   3.093   4.323  0.3941 -0.1019 -0.1329
12750TIP3    H159665   3.924   3.135   4.249  1.2591  0.3581 -0.3953
12750TIP3    H259666   3.958   3.156   4.396  1.3998  0.4345 -0.4381
12751TIP3   OH259667   3.426   3.115  13.642  0.0742 -0.2878  0.4799
12751TIP3    H159668   3.391   3.187  13.590 -1.1530 -1.7450 -0.7936
12751TIP3    H259669   3.393   3.036  13.599 -0.1103 -1.5842  2.8493
12752TIP3   OH259670   4.139   4.555  16.531  0.4898  0.2112 -0.9669
12752TIP3    H159671   4.141   4.644  16.564 -0.6452  0.5368 -1.7250
12752TIP3    H259672   4.099   4.562  16.444  2.1857 -0.7789 -1.8856
12753TIP3   OH259673   2.980   3.968   1.495 -0.0080  0.3195 -0.1424
12753TIP3    H159674   3.026   4.020   1.429  0.9898  0.3418  0.5462
12753TIP3    H259675   3.007   3.878   1.477  0.1388  0.3087  0.1331
12754TIP3   OH259676   1.281   4.288   2.586 -0.1179  0.0438  0.8411
12754TIP3    H159677   1.250   4.376   2.565 -0.7346  0.0532  1.7247
12754TIP3    H259678   1.368   4.283   2.546 -1.3736 -0.1553 -2.1167
12755TIP3   OH259679   6.455   6.704  12.147  0.0073 -0.3809 -0.2655
12755TIP3    H159680   6.361   6.722  12.151 -0.2904 -1.4656 -1.7339
12755TIP3    H259681   6.478   6.716  12.055  1.5469  0.8663  0.2239
12756TIP3   OH259682   5.171   1.161   2.427 -0.5736 -0.5930 -0.0594
12756TIP3    H159683   5.256   1.119   2.443 -0.5387 -1.1765 -1.6103
12756TIP3    H259684   5.174   1.186   2.335 -2.0689 -0.5454 -0.1084
12757TIP3   OH259685   1.472   1.811   3.949  0.2804 -0.3382  0.1267
12757TIP3    H159686   1.429   1.744   4.001 -0.9522  0.1918 -0.1661
12757TIP3    H259687   1.503   1.766   3.871  1.0017 -0.8851  0.7178
12758TIP3   OH259688   6.018   6.104   0.375  0.2905 -0.5181 -0.5158
12758TIP3    H159689   6.003   6.190   0.414  1.0878 -0.6522  0.1075
12758TIP3    H259690   5.945   6.093   0.314  0.1915  0.6108 -0.6309
12759TIP3   OH259691   5.670   3.471   4.327 -0.0223 -0.2927  0.5931
12759TIP3    H159692   5.679   3.398   4.389  0.6351  0.4260  1.3763
12759TIP3    H259693   5.577   3.473   4.306 -0.0760 -1.2765  0.6600
12760TIP3   OH259694   2.885   4.721  14.763  0.2123  0.1350  0.3756
12760TIP3    H159695   2.850   4.788  14.704 -0.3893  0.3626  0.9691
12760TIP3    H259696   2.808   4.672  14.791  0.2247  1.0858  2.2706
12761TIP3   OH259697   2.088   4.633  12.119 -0.0718  0.0665 -0.2300
12761TIP3    H159698   2.024   4.568  12.148 -0.2096 -0.0014 -0.6895
12761TIP3    H259699   2.171   4.585  12.113 -0.0926  0.0253 -0.1896
12762TIP3   OH259700   5.748   3.785   1.665 -0.0497 -0.8443  0.0151
12762TIP3    H159701   5.661   3.825   1.671 -0.1459 -1.1368  0.7962
12762TIP3    H259702   5.732   3.697   1.632  0.2097 -0.1215 -2.1553
12763TIP3   OH259703   3.845   2.974   3.348 -0.5155 -0.1330 -0.4852
12763TIP3    H159704   3.794   2.896   3.369 -1.2063  0.6201  0.7431
12763TIP3    H259705   3.936   2.946   3.353 -0.7506 -0.7619  0.3726
12764TIP3   OH259706   4.165   0.278  16.382  0.3474 -0.7673  0.0287
12764TIP3    H159707   4.149   0.333  16.306 -0.5841 -0.9704  0.0589
12764TIP3    H259708   4.200   0.338  16.448 -0.3006 -0.2783 -0.0601
12765TIP3   OH259709   1.864   3.268   1.696 -0.4968  0.1501  0.1495
12765TIP3    H159710   1.785   3.255   1.748 -0.1243  0.4451  0.8099
12765TIP3    H259711   1.864   3.197   1.633 -1.0272 -0.1434  0.4768
12766TIP3   OH259712   1.029   6.520   2.151 -0.0280 -0.0959 -0.7606
12766TIP3    H159713   1.004   6.439   2.197  1.2137  0.0295  0.1937
12766TIP3    H259714   1.072   6.573   2.218 -1.0249  1.4769 -1.3155
12767TIP3   OH259715   2.609   2.160  14.424  0.0423  0.4653 -0.2377
12767TIP3    H159716   2.573   2.094  14.484  1.8575  0.0580  0.4627
12767TIP3    H259717   2.635   2.232  14.482  0.7793  0.5460 -0.6650
12768TIP3   OH259718   1.661   2.789   3.220  0.1590 -0.2263  0.2071
12768TIP3    H159719   1.734   2.776   3.281 -0.1620  0.8941  0.8483
12768TIP3    H259720   1.595   2.726   3.249 -1.4577  2.5854  3.4078
12769TIP3   OH259721   3.740   3.092  15.033  0.1286  0.2530  0.4516
12769TIP3    H159722   3.685   3.148  14.978  1.9339  0.9891 -0.6765
12769TIP3    H259723   3.757   3.015  14.980  0.0960 -0.0288  0.8472
12770TIP3   OH259724   5.223   5.845  16.876 -0.5805 -0.3581  0.5283
12770TIP3    H159725   5.280   5.774  16.845 -1.1853 -0.8817  0.5987
12770TIP3    H259726   5.147   5.842  16.818 -0.3891  0.5641  0.2159
12771TIP3   OH259727   5.045   6.600  13.824 -0.3982  0.3761 -0.6140
12771TIP3    H159728   5.122   6.587  13.769 -0.1341  1.3117 -0.4808
12771TIP3    H259729   4.975   6.554  13.778  0.0476  0.2358 -1.1691
12772TIP3   OH259730   1.920   3.420  13.388  0.0727  0.1073 -0.1122
12772TIP3    H159731   1.916   3.436  13.294 -0.2586 -0.8432 -0.2689
12772TIP3    H259732   1.907   3.507  13.427  1.6258  0.7567 -0.9423
12773TIP3   OH259733   0.290   2.997  14.549  0.5472 -0.3355 -0.4832
12773TIP3    H159734   0.357   3.006  14.617  0.0158  1.0192 -0.1135
12773TIP3    H259735   0.210   3.032  14.588  0.2216  0.4501 -1.7815
12774TIP3   OH259736   6.465   5.984  15.741  0.6818  0.0849  0.2041
12774TIP3    H159737   6.396   5.948  15.797 -0.1108 -0.1887 -0.9301
12774TIP3    H259738   6.419   6.026  15.670  1.6806  0.6681 -0.1127
12775TIP3   OH259739   5.555   1.078  13.972  0.2061 -0.6533 -0.1143
12775TIP3    H159740   5.597   1.054  14.055  2.0868  1.8017 -0.2491
12775TIP3    H259741   5.594   1.021  13.907 -1.5135 -2.8246  0.6326
12776TIP3   OH259742   4.166   6.395  13.326 -0.0775  0.1251  0.3004
12776TIP3    H159743   4.103   6.340  13.279  1.0756  0.1697 -1.3979
12776TIP3    H259744   4.214   6.334  13.382 -1.6642  0.1095  1.7257
12777TIP3   OH259745   3.223   1.626  11.519  0.1139 -0.3781 -0.0735
12777TIP3    H159746   3.208   1.689  11.590 -0.2963 -1.4945  0.8713
12777TIP3    H259747   3.138   1.583  11.507  0.2093 -0.2816 -1.1864
12778TIP3   OH259748   3.835   1.942  12.570 -0.0870 -0.5275  0.4338
12778TIP3    H159749   3.864   1.922  12.659  0.6516 -0.2606  0.2589
12778TIP3    H259750   3.866   2.031  12.554 -0.0727 -0.6372 -0.1555
12779TIP3   OH259751   4.275   1.151  16.369 -0.3121 -0.0460  0.5361
12779TIP3    H159752   4.294   1.127  16.279  0.3097 -2.3637  1.2176
12779TIP3    H259753   4.359   1.183  16.404 -0.1276 -0.7260  0.7332
12780TIP3   OH259754   6.495   4.784  13.039  0.0971 -0.5524  0.1730
12780TIP3    H159755   6.475   4.786  13.133  0.9250 -1.2967  0.3836
12780TIP3    H259756   6.517   4.875  13.018  0.8026 -0.5329  0.9202
12781TIP3   OH259757   6.202   1.759   4.340  0.3111  0.5608  0.0236
12781TIP3    H159758   6.289   1.751   4.303 -0.5908 -2.8301 -1.7572
12781TIP3    H259759   6.145   1.776   4.265 -0.9661 -1.1431  0.5534
12782TIP3   OH259760   4.387   5.406  11.760  0.3596 -0.1272 -0.6413
12782TIP3    H159761   4.337   5.394  11.841  0.4670  1.8524 -0.2141
12782TIP3    H259762   4.331   5.370  11.691 -0.6001 -0.0897  0.1001
12783TIP3   OH259763   4.414   5.046  12.092  0.3115 -0.2262  0.1226
12783TIP3    H159764   4.324   5.027  12.065 -0.7162  2.2016  1.5101
12783TIP3    H259765   4.430   5.135  12.062  1.0066  0.6118  2.7335
12784TIP3   OH259766   4.120   0.090   2.215  0.3354 -0.1354  0.9004
12784TIP3    H159767   4.041   0.103   2.268 -0.8226  0.5448 -0.8856
12784TIP3    H259768   4.086   0.055   2.132  1.7747  1.4030 -0.3858
12785TIP3   OH259769   3.231   1.454  10.486 -0.4383 -0.3981  0.2302
12785TIP3    H159770   3.220   1.504  10.567 -2.3641 -0.3300 -0.0298
12785TIP3    H259771   3.299   1.502  10.438 -1.9404  1.8120  0.1512
12786TIP3   OH259772   5.045   3.968  12.567  0.2910 -0.1977 -0.0265
12786TIP3    H159773   5.096   3.922  12.633  1.1288  1.3594  0.4657
12786TIP3    H259774   4.954   3.951  12.590  0.5811 -0.8542  0.6642
12787TIP3   OH259775   4.847   0.293   1.401  0.3509 -0.5186  0.9399
12787TIP3    H159776   4.882   0.304   1.313 -0.1509  1.0454  0.9165
12787TIP3    H259777   4.889   0.213   1.433  1.1262 -0.6897 -0.4248
12788TIP3   OH259778   3.315   5.278  13.079 -0.1184  0.1878 -0.1325
12788TIP3    H159779   3.224   5.262  13.053 -0.1179 -0.0765  0.0214
12788TIP3    H259780   3.335   5.365  13.045 -0.4538  0.2787 -0.0975
12789TIP3   OH259781   0.184   6.072  14.864 -0.1283  0.3152  0.0324
12789TIP3    H159782   0.098   6.062  14.906 -0.4677 -0.2630 -0.7759
12789TIP3    H259783   0.198   6.167  14.860 -0.3883  0.3911  0.8492
12790TIP3   OH259784   3.379   3.289  17.061 -0.0675 -0.3914  0.0403
12790TIP3    H159785   3.468   3.315  17.036 -0.5078  0.8623 -0.3105
12790TIP3    H259786   3.324   3.322  16.990 -0.9157 -0.2993  0.7226
12791TIP3   OH259787   3.881   2.116  10.694  0.6151 -0.7408  0.6850
12791TIP3    H159788   3.970   2.091  10.671  0.7115 -1.0961  1.4173
12791TIP3    H259789   3.885   2.211  10.704  0.2884 -0.3620 -1.9035
12792TIP3   OH259790   2.405   2.540   1.411  0.2898 -0.0559  0.0516
12792TIP3    H159791   2.388   2.458   1.458  1.0121 -0.7791 -0.9010
12792TIP3    H259792   2.460   2.514   1.336  1.1489  1.4065  0.1336
12793TIP3   OH259793   3.394   5.245  17.061  0.3038  0.5374  0.0250
12793TIP3    H159794   3.369   5.161  17.023  0.1130  0.2546  0.7407
12793TIP3    H259795   3.427   5.222  17.148  1.9764  1.0263 -0.4479
12794TIP3   OH259796   6.326   2.422  13.837  0.0472  0.1849  0.0288
12794TIP3    H159797   6.419   2.401  13.827 -0.0048  0.3089 -0.7343
12794TIP3    H259798   6.292   2.425  13.748 -0.8006 -0.3376  0.3248
12795TIP3   OH259799   0.377   6.011   6.157  0.2259  0.2611 -0.6755
12795TIP3    H159800   0.372   5.932   6.104  0.5104 -0.5946  0.5450
12795TIP3    H259801   0.336   5.988   6.240  0.9138  1.1860 -0.0519
12796TIP3   OH259802   1.088   5.228  13.114 -0.4858  0.3781  0.0044
12796TIP3    H159803   1.074   5.164  13.184 -0.7031 -0.3184 -0.6593
12796TIP3    H259804   1.011   5.284  13.118 -0.6382  0.1627  0.1414
12797TIP3   OH259805   6.057   3.789  12.623  0.4011 -0.3678  0.1995
12797TIP3    H159806   6.103   3.814  12.703 -0.2614 -1.3848  0.9340
12797TIP3    H259807   6.113   3.723  12.583  1.6541  1.4645 -1.2038
12798TIP3   OH259808   3.894   1.281   6.362 -0.1795 -0.5008  0.8894
12798TIP3    H159809   3.834   1.279   6.437 -1.4338  0.3786 -0.0372
12798TIP3    H259810   3.893   1.191   6.328  0.9669 -1.0843  2.3203
12799TIP3   OH259811   2.719   2.509   0.458  0.0572 -0.1169  0.3765
12799TIP3    H159812   2.626   2.513   0.482 -0.1888 -1.6982 -0.1912
12799TIP3    H259813   2.720   2.523   0.363  0.1668 -1.8445  0.0774
12800TIP3   OH259814   0.435   1.231  13.733 -0.5491  0.1301  0.1058
12800TIP3    H159815   0.502   1.166  13.714 -0.3996 -0.4918  2.4442
12800TIP3    H259816   0.483   1.312  13.748 -0.3919 -0.0852  0.7980
12801TIP3   OH259817   1.617   3.543   5.342  0.2087 -0.6501  0.4219
12801TIP3    H159818   1.653   3.567   5.256 -0.6363  1.1674  0.5166
12801TIP3    H259819   1.523   3.539   5.327 -0.0970  1.2508  1.5597
12802TIP3   OH259820   4.646   6.228   1.127  0.0217  0.3584 -0.6262
12802TIP3    H159821   4.577   6.286   1.097 -1.0943 -0.6091 -0.0067
12802TIP3    H259822   4.632   6.147   1.079  0.4632  0.0145 -0.1842
12803TIP3   OH259823   5.886   4.755   5.923  0.3762  0.0064 -0.9728
12803TIP3    H159824   5.919   4.666   5.905 -0.9544 -0.4136 -1.4142
12803TIP3    H259825   5.847   4.783   5.841  0.3570  0.8271 -0.6878
12804TIP3   OH259826   1.900   0.413  15.408  0.5379 -0.1231  0.1502
12804TIP3    H159827   1.919   0.495  15.361  0.1979 -0.1481 -0.0332
12804TIP3    H259828   1.967   0.352  15.377  0.3941 -0.1035 -0.2113
12805TIP3   OH259829   6.690   2.262  17.212  0.2334 -0.0856 -0.2237
12805TIP3    H159830   6.702   2.357  17.210 -0.1913  0.0573  1.7729
12805TIP3    H259831   6.776   2.228  17.235  0.1828 -0.1167 -0.0811
12806TIP3   OH259832   1.369   5.167  16.698  0.2097 -0.1431  0.1304
12806TIP3    H159833   1.342   5.112  16.624  2.0476  0.3213 -0.9436
12806TIP3    H259834   1.455   5.133  16.723  1.2805  1.9940 -0.3888
12807TIP3   OH259835   1.072   2.820  14.138 -0.2250  0.7264 -0.5897
12807TIP3    H159836   1.062   2.886  14.207 -0.3963  1.0720 -0.9360
12807TIP3    H259837   1.001   2.758  14.154  0.1442  0.4340 -0.0583
12808TIP3   OH259838   3.370   4.782  14.884 -0.3959  0.0791 -0.0077
12808TIP3    H159839   3.280   4.760  14.907 -1.6079  2.5024 -1.8635
12808TIP3    H259840   3.408   4.815  14.965 -0.8331 -1.7931  1.0188
12809TIP3   OH259841   2.464   6.373   4.943 -0.0498  0.5098 -0.2305
12809TIP3    H159842   2.507   6.292   4.970 -0.0370 -0.4789 -2.9910
12809TIP3    H259843   2.530   6.420   4.893 -0.8280  1.0435 -0.7730
12810TIP3   OH259844   1.325   4.757   1.342  0.6710  0.6412 -0.6895
12810TIP3    H159845   1.410   4.792   1.370  0.6345 -0.7512  1.3637
12810TIP3    H259846   1.286   4.721   1.422 -0.5231 -1.4409 -2.1121
12811TIP3   OH259847   3.646   4.024   3.786  0.6423 -0.5070  0.7691
12811TIP3    H159848   3.696   4.105   3.777 -2.3690  1.3028 -1.6542
12811TIP3    H259849   3.595   4.036   3.867  0.5344 -0.1503  0.6498
12812TIP3   OH259850   5.795   3.880   3.439 -0.5070 -0.9961 -0.1254
12812TIP3    H159851   5.887   3.901   3.455 -1.1209  0.6292  1.5791
12812TIP3    H259852   5.787   3.787   3.458  0.8309 -1.2231 -0.6103
12813TIP3   OH259853   2.914   0.521   6.404  0.4742 -0.2497  0.1088
12813TIP3    H159854   2.988   0.514   6.344 -0.2783  0.0706 -0.8915
12813TIP3    H259855   2.874   0.434   6.403  1.1517 -0.5851  1.0898
12814TIP3   OH259856   4.573   0.810   5.750 -1.0282  0.3282  0.0039
12814TIP3    H159857   4.580   0.858   5.667  0.7262  0.1626  0.0201
12814TIP3    H259858   4.580   0.718   5.725  1.2801  0.3409  0.4491
12815TIP3   OH259859   3.668   1.878   4.876 -0.1622  0.4261 -0.2452
12815TIP3    H159860   3.646   1.803   4.820  0.2287  0.5136 -0.5220
12815TIP3    H259861   3.640   1.955   4.827  0.5777  0.5281 -0.5237
12816TIP3   OH259862   5.962   5.132  15.210  0.2265  0.3520 -0.1237
12816TIP3    H159863   6.049   5.151  15.174 -0.1727  0.9561 -0.7893
12816TIP3    H259864   5.901   5.152  15.139 -0.5582  1.3024  0.7697
12817TIP3   OH259865   5.713   2.321  15.610 -0.9660  0.0515  0.1213
12817TIP3    H159866   5.721   2.322  15.514  0.3091 -0.7015  0.2000
12817TIP3    H259867   5.731   2.230  15.634 -1.6104  0.1608  1.0651
12818TIP3   OH259868   5.663   6.274  16.744 -0.0801 -0.4362 -0.2076
12818TIP3    H159869   5.633   6.352  16.791  0.8517 -0.6290  0.7423
12818TIP3    H259870   5.584   6.239  16.703 -1.1440 -0.7168  1.9068
12819TIP3   OH259871   6.176   4.002  12.366  0.7071  0.1505  0.0769
12819TIP3    H159872   6.248   4.000  12.302  1.2308  0.7463  0.6338
12819TIP3    H259873   6.205   4.064  12.432  0.8852 -1.6367  1.7491
12820TIP3   OH259874   0.228   2.320   2.945 -0.1041  0.0032 -0.1944
12820TIP3    H159875   0.226   2.260   3.020  0.2363 -1.2209 -1.1411
12820TIP3    H259876   0.312   2.303   2.903  0.4057  1.7905  0.0024
12821TIP3   OH259877   2.894   1.325   2.406 -0.1176 -0.2534  0.4057
12821TIP3    H159878   2.886   1.287   2.319 -0.3683 -0.6080  0.5825
12821TIP3    H259879   2.970   1.383   2.399  2.0522 -2.8343  0.8385
12822TIP3   OH259880   1.621   5.225  14.738 -1.0756  0.3176 -0.0409
12822TIP3    H159881   1.637   5.319  14.726 -0.8336  0.4764  1.3127
12822TIP3    H259882   1.631   5.211  14.832 -0.6144 -1.1632 -0.2786
12823TIP3   OH259883   3.605   0.394   1.408  0.2631  0.2309 -0.6222
12823TIP3    H159884   3.614   0.304   1.440 -0.8349  0.3728  0.1198
12823TIP3    H259885   3.587   0.385   1.315 -0.2345 -0.3347 -0.4720
12824TIP3   OH259886   1.439   5.096  17.114 -0.0061  0.7415  0.3820
12824TIP3    H159887   1.509   5.133  17.060  1.3867 -0.3269  1.3788
12824TIP3    H259888   1.381   5.170  17.132 -1.5459  0.8669 -3.9186
12825TIP3   OH259889   2.876   4.213   2.688  0.1178  0.1980  0.2124
12825TIP3    H159890   2.791   4.195   2.728 -0.5240 -0.9683 -1.5385
12825TIP3    H259891   2.873   4.305   2.665  0.5021  0.9017  2.7046
12826TIP3   OH259892   3.702   3.100  11.590 -0.3527 -0.0877 -0.2578
12826TIP3    H159893   3.647   3.177  11.601 -2.4730 -1.5245 -0.2190
12826TIP3    H259894   3.721   3.071  11.679 -0.6058 -0.3025 -0.2717
12827TIP3   OH259895   2.987   3.351  14.654 -0.4640 -0.5270  0.2028
12827TIP3    H159896   3.004   3.404  14.732  1.1223 -0.9795  0.1951
12827TIP3    H259897   2.911   3.299  14.677  0.0793 -0.7818  1.5287
12828TIP3   OH259898   2.050   4.320  12.643  0.1437 -0.0100 -0.3299
12828TIP3    H159899   2.134   4.365  12.638 -0.2984  1.4666  2.9394
12828TIP3    H259900   2.004   4.347  12.563  1.1763  2.7530 -0.1100
12829TIP3   OH259901   3.740   0.483  14.874  0.4289 -0.2233  0.2292
12829TIP3    H159902   3.733   0.470  14.968 -0.3915 -0.7335  0.1075
12829TIP3    H259903   3.659   0.448  14.838  0.6832  0.0551 -0.6626
12830TIP3   OH259904   0.197   5.496  10.357  0.2854 -0.2559  0.2873
12830TIP3    H159905   0.178   5.548  10.435 -1.7545 -1.6166  0.7896
12830TIP3    H259906   0.289   5.471  10.366  0.9475  2.1010  0.6754
12831TIP3   OH259907   6.550   5.620  15.999 -0.1830  0.4644 -0.2364
12831TIP3    H159908   6.632   5.651  16.039  0.9753 -1.9497 -0.5116
12831TIP3    H259909   6.575   5.593  15.911 -0.9825 -1.3822  0.0519
12832TIP3   OH259910   1.443   5.156   1.236 -0.4983 -0.0798  0.1139
12832TIP3    H159911   1.447   5.173   1.330 -1.3220  0.0694  0.1235
12832TIP3    H259912   1.368   5.098   1.225  0.9796 -2.0803 -0.1799
12833TIP3   OH259913   1.012   5.320   5.234 -0.3452 -0.0077  0.3152
12833TIP3    H159914   1.100   5.357   5.240 -0.7843  0.9052  2.0726
12833TIP3    H259915   0.988   5.302   5.325 -2.5332  1.1626  0.0430
12834TIP3   OH259916   3.269   6.242  15.189  0.7935 -0.1937 -0.2168
12834TIP3    H159917   3.271   6.148  15.210 -2.3957 -0.6605 -1.3124
12834TIP3    H259918   3.294   6.247  15.097  1.5102  0.1195 -0.0089
12835TIP3   OH259919   1.983   5.495  11.293  0.1147  0.0828  0.4343
12835TIP3    H159920   2.024   5.413  11.269 -0.2223  0.8518 -3.3166
12835TIP3    H259921   1.891   5.485  11.269  0.2770  1.8511 -1.2057
12836TIP3   OH259922   5.534   1.352   3.053  0.3631 -0.5047  0.8770
12836TIP3    H159923   5.524   1.257   3.061  0.1632 -0.5738 -0.1295
12836TIP3    H259924   5.623   1.364   3.021  1.2324 -0.2168  3.2232
12837TIP3   OH259925   4.253   0.961   4.152  0.0782 -0.2176 -0.0517
12837TIP3    H159926   4.322   0.920   4.204  0.7946 -0.7517 -1.3655
12837TIP3    H259927   4.175   0.909   4.169  0.4651 -0.7930 -0.0093
12838TIP3   OH259928   2.288   5.223   2.240  0.2269 -0.4285 -0.2071
12838TIP3    H159929   2.195   5.247   2.240  0.0303 -1.1544 -0.3972
12838TIP3    H259930   2.293   5.147   2.181  0.8503 -0.7290  0.2221
12839TIP3   OH259931   0.070   0.525  13.875 -0.1253 -0.8616 -0.4353
12839TIP3    H159932   0.087   0.566  13.960  0.3572 -1.8335 -0.0503
12839TIP3    H259933  -0.017   0.558  13.851 -0.3708 -0.7470  0.5363
12840TIP3   OH259934   4.149   5.069   5.803  0.0122  0.7575  0.2324
12840TIP3    H159935   4.067   5.074   5.852  0.7133  0.0977  1.5212
12840TIP3    H259936   4.212   5.118   5.856  0.7900  0.0482 -0.0068
12841TIP3   OH259937   6.771   1.768  13.273 -0.0155  0.5428  0.3982
12841TIP3    H159938   6.754   1.838  13.210 -1.0124 -0.2021 -0.1829
12841TIP3    H259939   6.865   1.751  13.263  0.3670  2.1210  0.9286
12842TIP3   OH259940   2.485   3.234  11.267 -0.3132  0.4586  0.1034
12842TIP3    H159941   2.461   3.326  11.271 -0.8366  0.3226  0.1281
12842TIP3    H259942   2.579   3.233  11.285 -0.0079  1.1214 -1.3504
12843TIP3   OH259943   5.513   4.105  14.286  0.2681  0.1368  0.2490
12843TIP3    H159944   5.454   4.041  14.327 -1.0305  1.7865  1.1115
12843TIP3    H259945   5.593   4.101  14.338  0.5159 -1.3077 -0.1986
12844TIP3   OH259946   6.729   6.263   0.851 -0.2062  0.2833 -0.8773
12844TIP3    H159947   6.715   6.358   0.851  0.6960  0.4369 -1.6329
12844TIP3    H259948   6.750   6.242   0.942 -1.1370  0.6900 -0.5642
12845TIP3   OH259949   4.650   4.856  11.421  0.0734 -0.3839 -0.7505
12845TIP3    H159950   4.647   4.951  11.425 -0.5040 -0.4364  1.2566
12845TIP3    H259951   4.722   4.837  11.360 -0.9718  1.2832 -2.6043
12846TIP3   OH259952   3.636   1.522  15.444 -0.5662 -0.8673 -0.1450
12846TIP3    H159953   3.726   1.554  15.440 -0.5238 -1.0975 -1.3117
12846TIP3    H259954   3.615   1.521  15.538  0.2183  0.3624  0.0686
12847TIP3   OH259955   1.494   5.474  16.125  0.2071 -0.3497  0.2566
12847TIP3    H159956   1.531   5.508  16.207  2.4073 -0.8202 -0.4581
12847TIP3    H259957   1.400   5.484  16.135  0.2890 -1.6950  3.4108
12848TIP3   OH259958   1.024   5.397  16.690  0.2385  0.0649  0.2930
12848TIP3    H159959   1.075   5.331  16.738 -0.1186  0.1978  0.8637
12848TIP3    H259960   0.933   5.380  16.715 -0.1432 -0.8357 -1.5217
12849TIP3   OH259961   3.793   0.214   1.180 -0.0370 -0.6178  0.9500
12849TIP3    H159962   3.713   0.257   1.151  0.8389  1.3833  1.3176
12849TIP3    H259963   3.774   0.185   1.269 -0.6263 -0.9524  0.7195
12850TIP3   OH259964   5.855   1.671  13.847  0.2805 -0.2477  0.7925
12850TIP3    H159965   5.899   1.756  13.841 -0.8550  0.2787 -1.0617
12850TIP3    H259966   5.786   1.683  13.912 -1.0918  0.9169 -0.7786
12851TIP3   OH259967   3.771   5.011   2.501  0.1940  0.7911 -0.2327
12851TIP3    H159968   3.707   4.942   2.516 -0.7067  1.8823  1.1909
12851TIP3    H259969   3.848   4.965   2.466  0.1800 -1.1655  2.0672
12852TIP3   OH259970   1.953   5.459   5.251  0.0974 -0.5892 -0.6181
12852TIP3    H159971   1.936   5.474   5.158 -0.5315  0.5510 -0.3436
12852TIP3    H259972   1.927   5.541   5.293  0.5411 -1.0293  0.5451
12853TIP3   OH259973   2.920   3.805  16.957  0.3223  0.2202  0.2700
12853TIP3    H159974   2.981   3.876  16.939  1.4356 -0.4697  1.1345
12853TIP3    H259975   2.889   3.822  17.046  0.7626 -0.4789  0.5629
12854TIP3   OH259976   0.620   6.660   5.262  0.0347  0.4388 -0.3354
12854TIP3    H159977   0.603   6.638   5.353 -0.5040  0.4293 -0.4330
12854TIP3    H259978   0.562   6.734   5.244  0.2867  0.5705 -0.6120
12855TIP3   OH259979   6.511   4.749  12.038 -0.1630 -0.0110  0.3972
12855TIP3    H159980   6.513   4.810  12.112  0.2290 -0.9131  1.1484
12855TIP3    H259981   6.573   4.680  12.062  0.8978  0.2830 -1.3060
12856TIP3   OH259982   2.621   4.860  17.239  0.1633  0.1461  0.3200
12856TIP3    H159983   2.588   4.857  17.149 -0.6778  1.1107  0.5893
12856TIP3    H259984   2.649   4.951  17.252  1.1406 -0.1959  0.7423
12857TIP3   OH259985   0.974   4.135   4.462  0.3574  0.1872  0.3379
12857TIP3    H159986   0.881   4.112   4.464 -0.0865  1.7680 -0.5605
12857TIP3    H259987   0.980   4.212   4.519  0.8918  0.7775 -0.4957
12858TIP3   OH259988   0.033   3.386  13.347 -0.2671 -0.6329 -0.9437
12858TIP3    H159989  -0.011   3.460  13.305  1.8501  0.6994 -0.9594
12858TIP3    H259990   0.114   3.424  13.383 -0.2941 -2.4505  1.2264
12859TIP3   OH259991   4.890   1.219  11.516  0.4234 -0.5487  0.0804
12859TIP3    H159992   4.922   1.307  11.497  0.4771 -0.8761 -1.5075
12859TIP3    H259993   4.969   1.164  11.513  0.7573 -0.4052  3.2362
12860TIP3   OH259994   1.429   1.227   2.357 -0.1327 -0.1949  0.4253
12860TIP3    H159995   1.454   1.318   2.373  0.1454 -0.1117 -0.4561
12860TIP3    H259996   1.512   1.179   2.356  0.0247 -0.0105 -1.8803
12861TIP3   OH259997   4.329   2.444   3.860  0.5860  0.2156  0.4773
12861TIP3    H159998   4.371   2.530   3.864  2.9906 -0.8874  0.4495
12861TIP3    H259999   4.308   2.423   3.951  0.1938  0.7350  0.5070
12862TIP3   OH260000   3.605   3.666   4.032 -0.1701  0.3804 -0.0213
12862TIP3    H160001   3.598   3.735   4.099 -0.8722 -0.3005  0.6373
12862TIP3    H260002   3.546   3.694   3.963 -0.0057  0.7287 -0.0234
12863TIP3   OH260003   5.630   3.700  15.232  0.1473 -0.5882  0.4334
12863TIP3    H160004   5.635   3.687  15.137 -1.2165  0.9404  0.1130
12863TIP3    H260005   5.697   3.765  15.251 -0.5752  0.2274  0.2572
12864TIP3   OH260006   1.273   0.143   1.448 -0.1971  0.0770  0.5224
12864TIP3    H160007   1.187   0.103   1.438 -0.1464  0.0850  0.0306
12864TIP3    H260008   1.299   0.122   1.537 -1.7596  2.0963  1.5420
12865TIP3   OH260009   0.282   0.094  16.973  0.1071 -0.1819  0.1773
12865TIP3    H160010   0.372   0.097  17.007  0.0092  0.8576  0.3765
12865TIP3    H260011   0.290   0.117  16.881 -0.0577  1.1154  0.4576
12866TIP3   OH260012   4.762   5.570   3.571  0.7786  0.1051 -0.0684
12866TIP3    H160013   4.783   5.647   3.518  1.2457  0.4540  0.6142
12866TIP3    H260014   4.682   5.595   3.617  0.7939  0.0851 -0.0316
12867TIP3   OH260015   0.380   1.043  15.162 -0.2847  0.2292 -0.0752
12867TIP3    H160016   0.461   1.012  15.121 -0.2969  0.3143 -0.1645
12867TIP3    H260017   0.360   0.977  15.228  0.2763  0.6027  0.4833
12868TIP3   OH260018   0.347   3.205   4.366 -0.2210  0.0269  0.5851
12868TIP3    H160019   0.397   3.258   4.304 -1.5961  0.2716 -0.3407
12868TIP3    H260020   0.270   3.257   4.387 -0.0420 -0.2737  2.1329
12869TIP3   OH260021   5.725   3.161  11.555  0.1941  0.0051  0.5142
12869TIP3    H160022   5.675   3.242  11.543  0.7995  0.2454 -0.4982
12869TIP3    H260023   5.740   3.156  11.650  1.1300  1.7043  0.5043
12870TIP3   OH260024   6.369   2.048  15.673 -0.5619  0.2067 -0.5753
12870TIP3    H160025   6.407   2.132  15.646  0.5655 -0.2507 -0.4633
12870TIP3    H260026   6.392   2.040  15.765 -2.2638  0.6080 -0.0741
12871TIP3   OH260027   0.983   3.006   5.400 -0.7447  0.0478  0.2143
12871TIP3    H160028   0.943   3.022   5.314 -0.0811 -0.6700 -0.2430
12871TIP3    H260029   1.077   3.003   5.382 -0.6018 -0.1097  0.9677
12872TIP3   OH260030   4.278   2.181  12.981  0.1910 -0.5506 -0.1461
12872TIP3    H160031   4.220   2.158  12.909  0.9975  3.1366 -2.2421
12872TIP3    H260032   4.228   2.242  13.035  0.5739 -0.9872  0.7197
12873TIP3   OH260033   3.240   4.451   4.374 -0.4864  0.0574  0.2763
12873TIP3    H160034   3.320   4.486   4.336 -0.5250 -0.8590 -0.7060
12873TIP3    H260035   3.269   4.379   4.429 -0.6420 -0.5234 -0.3820
12874TIP3   OH260036   4.429   5.969  14.983 -0.3258  0.1798  0.3113
12874TIP3    H160037   4.487   6.045  14.994  0.3827 -0.4707  1.1772
12874TIP3    H260038   4.341   6.004  14.998 -0.1401  1.0989 -0.6363
12875TIP3   OH260039   1.003   2.950   1.398 -0.1233 -0.2548 -0.6361
12875TIP3    H160040   0.934   2.895   1.360 -0.4012 -0.0422 -0.4482
12875TIP3    H260041   1.034   3.004   1.326  2.3028 -2.7315 -1.6406
12876TIP3   OH260042   6.390   1.451   1.815 -0.7819  0.4619  0.1195
12876TIP3    H160043   6.454   1.445   1.886 -1.9104  0.9829  1.2260
12876TIP3    H260044   6.407   1.536   1.775 -1.0980  0.8256  0.7432
12877TIP3   OH260045   0.824   1.008   3.532  0.2274  0.0682  0.1311
12877TIP3    H160046   0.857   0.932   3.485  0.1258  0.0381  0.1090
12877TIP3    H260047   0.903   1.053   3.564  0.2649 -0.5007  0.8545
12878TIP3   OH260048   0.961   5.930   5.810 -0.3022 -0.4478  0.4014
12878TIP3    H160049   1.038   5.985   5.821 -0.9702  0.5140  0.3917
12878TIP3    H260050   0.942   5.898   5.899 -0.6735  0.3969  0.6309
12879TIP3   OH260051   2.794   0.757   2.951 -0.1774 -0.6052  0.1971
12879TIP3    H160052   2.789   0.662   2.937  0.4701 -0.5700 -0.3664
12879TIP3    H260053   2.705   0.788   2.938 -0.3080 -1.0856 -0.0932
12880TIP3   OH260054   0.277   1.418   0.086 -0.1181 -0.0444  0.7443
12880TIP3    H160055   0.333   1.451   0.016 -2.1669 -0.9286 -1.4278
12880TIP3    H260056   0.303   1.469   0.163  1.3707  1.8723 -0.9246
12881TIP3   OH260057   3.714   0.722   4.823  0.4993  0.1325 -0.5608
12881TIP3    H160058   3.691   0.717   4.730  1.6722  0.7679 -0.9185
12881TIP3    H260059   3.692   0.812   4.848  0.2395 -0.0203 -0.2327
12882TIP3   OH260060   5.428   3.649   5.185 -0.5005  0.4491  0.1343
12882TIP3    H160061   5.493   3.692   5.240  2.7314 -3.6305 -0.0580
12882TIP3    H260062   5.439   3.688   5.099  1.2808  0.2877  0.2662
12883TIP3   OH260063   1.523   1.362  15.519 -0.0057  0.5621  0.3774
12883TIP3    H160064   1.573   1.334  15.596  1.5794 -1.5370 -1.2653
12883TIP3    H260065   1.479   1.282  15.489 -0.2500  1.2185 -1.1046
12884TIP3   OH260066   1.639   6.075  12.688  0.0133 -0.2003 -0.6672
12884TIP3    H160067   1.696   6.121  12.627 -0.8992  0.2174 -1.2236
12884TIP3    H260068   1.582   6.020  12.633 -0.7544  0.1107 -0.2072
12885TIP3   OH260069   3.830   2.252  12.588 -0.3254 -0.8637 -0.0776
12885TIP3    H160070   3.782   2.256  12.505  0.2870 -1.3936 -0.4722
12885TIP3    H260071   3.765   2.270  12.655 -0.9378 -0.9480 -0.6433
12886TIP3   OH260072   2.470   2.109   5.207  0.4920 -0.3403  0.5058
12886TIP3    H160073   2.386   2.084   5.169  0.3705  0.0687  0.4913
12886TIP3    H260074   2.536   2.065   5.153  0.2923 -0.5273  0.4145
12887TIP3   OH260075   5.739   4.908   3.942 -0.4865  0.1619  0.0159
12887TIP3    H160076   5.656   4.917   3.989 -0.3327  0.9081  0.1579
12887TIP3    H260077   5.781   4.832   3.983 -0.8691  0.0901  0.2884
12888TIP3   OH260078   3.308   5.622  13.292 -0.1466  0.2027  0.2866
12888TIP3    H160079   3.328   5.590  13.204  0.5342 -1.4329  0.9881
12888TIP3    H260080   3.250   5.555  13.329  2.6816 -1.2856  2.4196
12889TIP3   OH260081   4.756   4.658   3.368 -0.3159 -0.0805 -0.5963
12889TIP3    H160082   4.810   4.601   3.313  1.4611  1.3183 -0.4166
12889TIP3    H260083   4.813   4.681   3.441 -2.1450 -0.7505  1.1186
12890TIP3   OH260084   2.877   1.102  12.440  0.0061  0.2913 -0.4870
12890TIP3    H160085   2.866   1.160  12.515  0.4708  2.1393 -1.7867
12890TIP3    H260086   2.795   1.111  12.391 -0.4181 -1.1354 -0.0840
12891TIP3   OH260087   2.499   1.074   3.727  0.2862 -0.1019 -0.1417
12891TIP3    H160088   2.564   1.074   3.798 -1.0956 -1.1270  1.1845
12891TIP3    H260089   2.433   1.137   3.755 -0.4262 -0.7481 -0.3454
12892TIP3   OH260090   6.353   1.402  11.328  0.7295  0.0336  0.0119
12892TIP3    H160091   6.292   1.476  11.319 -0.9378 -1.4248 -1.4447
12892TIP3    H260092   6.381   1.384  11.238  2.1827 -0.2624  0.5102
12893TIP3   OH260093   4.977   0.793  13.996  0.5282  0.5179 -0.2749
12893TIP3    H160094   4.924   0.819  14.072  1.3149  0.6356  0.2515
12893TIP3    H260095   5.015   0.874  13.964  2.3722  0.2051  0.9038
12894TIP3   OH260096   5.629   4.933   1.511 -0.1663  0.3928  0.1041
12894TIP3    H160097   5.556   4.924   1.572  0.0931 -1.3894  0.1967
12894TIP3    H260098   5.589   4.922   1.425 -0.3067  1.4804  0.0162
12895TIP3   OH260099   0.413   1.489   3.829 -0.2700 -0.2852 -0.0009
12895TIP3    H160100   0.451   1.478   3.742  0.4051 -0.0834  0.2643
12895TIP3    H260101   0.471   1.440   3.887 -0.9645 -0.7952  0.2864
12896TIP3   OH260102   0.244   2.934   0.529 -0.0343 -1.1491  0.0498
12896TIP3    H160103   0.337   2.918   0.512  0.0626 -1.0299  0.4424
12896TIP3    H260104   0.205   2.944   0.442  0.1639 -2.0401 -0.1519
12897TIP3   OH260105   4.150   2.325  15.170 -0.6491 -0.0994  0.3236
12897TIP3    H160106   4.161   2.231  15.158 -0.3716 -0.0115 -0.1409
12897TIP3    H260107   4.216   2.364  15.113 -1.0308  0.3837  0.2084
12898TIP3   OH260108   0.556   4.440  15.684 -0.5215  0.7826  0.7541
12898TIP3    H160109   0.492   4.510  15.670 -0.5961  0.8844  1.5364
12898TIP3    H260110   0.519   4.365  15.639 -1.2465  0.8157  1.2735
12899TIP3   OH260111   2.586   5.523   2.336 -0.2660 -0.9250  0.0009
12899TIP3    H160112   2.647   5.507   2.264 -1.3757 -2.5578 -0.6190
12899TIP3    H260113   2.574   5.618   2.336  2.0564 -0.5727 -0.0032
12900TIP3   OH260114   1.538   5.898   0.646  0.0353 -0.1513  0.4446
12900TIP3    H160115   1.497   5.967   0.593 -0.0585  0.1432  0.8948
12900TIP3    H260116   1.466   5.862   0.697  0.2471  0.0285  0.8714
12901TIP3   OH260117   6.399   0.013  15.242  0.0185 -0.4500 -0.0297
12901TIP3    H160118   6.379   0.076  15.173 -2.5138 -0.1404  0.8706
12901TIP3    H260119   6.333  -0.056  15.231  1.0262 -1.5677  0.6859
12902TIP3   OH260120   4.092   6.338  11.492  0.2616  0.0512 -0.4734
12902TIP3    H160121   4.161   6.333  11.425 -0.0227  1.0042 -0.8680
12902TIP3    H260122   4.025   6.276  11.463  0.1527  0.4392 -1.0828
12903TIP3   OH260123   2.247   4.779   3.389  0.2141 -0.4182  0.0491
12903TIP3    H160124   2.215   4.778   3.480  0.2918 -0.6941  0.0762
12903TIP3    H260125   2.341   4.792   3.398  0.1921 -0.2171 -0.0037
12904TIP3   OH260126   0.565   4.605  16.176 -0.4776 -0.0016  0.2996
12904TIP3    H160127   0.509   4.531  16.154 -1.1486 -0.1955  2.4667
12904TIP3    H260128   0.636   4.568  16.227  0.5264  0.5485 -0.6497
12905TIP3   OH260129   1.864   5.623   1.175  0.8819 -0.3091 -0.3774
12905TIP3    H160130   1.943   5.663   1.212  0.7696 -0.8453  0.4729
12905TIP3    H260131   1.823   5.577   1.249  0.8454 -1.7479 -1.2445
12906TIP3   OH260132   6.681   6.056   5.532  0.4131  0.7199 -0.1033
12906TIP3    H160133   6.587   6.065   5.516  0.6186  0.9126 -1.3073
12906TIP3    H260134   6.687   6.010   5.616 -0.8607 -3.1880 -1.8744
12907TIP3   OH260135   2.411   5.880  15.428 -0.9972  0.1603  0.1785
12907TIP3    H160136   2.440   5.944  15.493  1.2668 -0.0646 -0.5008
12907TIP3    H260137   2.391   5.931  15.350 -2.8361  0.3408  0.7206
12908TIP3   OH260138   3.147   0.377   4.905  0.2413  0.0584  0.2063
12908TIP3    H160139   3.057   0.347   4.921  0.5826 -1.3377 -0.4082
12908TIP3    H260140   3.200   0.327   4.967  0.5864  1.1701  0.8447
12909TIP3   OH260141   1.522   1.926   1.913  0.0300  0.0791  0.7866
12909TIP3    H160142   1.473   1.849   1.942 -0.5076  0.0264 -0.2000
12909TIP3    H260143   1.561   1.899   1.830  0.0464  0.7851  0.5575
12910TIP3   OH260144   6.224   5.844   0.246  0.3923 -0.5563 -0.1888
12910TIP3    H160145   6.284   5.918   0.253  1.7908 -1.7099  0.5373
12910TIP3    H260146   6.142   5.882   0.214  0.6937  1.4698  1.2886
12911TIP3   OH260147   1.777   0.337  10.525  0.0252  0.4782  0.7270
12911TIP3    H160148   1.777   0.428  10.554  0.1281 -0.0096  2.3216
12911TIP3    H260149   1.721   0.292  10.588  0.3416 -0.6561  0.2169
12912TIP3   OH260150   0.758   5.796   6.165  0.3936  0.1202 -0.4826
12912TIP3    H160151   0.723   5.875   6.206  2.1046  1.1134 -0.8439
12912TIP3    H260152   0.680   5.748   6.136 -0.8204  0.0563  2.5766
12913TIP3   OH260153   6.097   2.985  11.044 -0.5662 -0.0151  0.0565
12913TIP3    H160154   6.067   2.926  10.975  0.5900 -0.3263 -0.2087
12913TIP3    H260155   6.183   3.015  11.014 -0.5847  0.8256  0.7829
12914TIP3   OH260156   1.401   6.607   2.308  0.1599  0.3800 -0.0325
12914TIP3    H160157   1.421   6.611   2.401  3.6578 -0.7797 -0.5656
12914TIP3    H260158   1.355   6.524   2.296 -0.4900  0.6361  0.6886
12915TIP3   OH260159   3.396   6.090   5.833  0.2101 -0.0412 -0.0945
12915TIP3    H160160   3.456   6.044   5.773  0.2635 -1.0003  0.6706
12915TIP3    H260161   3.364   6.164   5.782  0.1432 -0.9116 -1.3688
12916TIP3   OH260162   2.807   5.237   0.204 -0.1654  0.1740 -0.1471
12916TIP3    H160163   2.880   5.298   0.199  0.5723 -0.7400 -0.8088
12916TIP3    H260164   2.802   5.214   0.297  0.5254  0.0700 -0.1327
12917TIP3   OH260165   0.726   0.682  16.094  0.1239  0.1239  0.1848
12917TIP3    H160166   0.668   0.742  16.047 -0.1720 -0.4654 -0.2193
12917TIP3    H260167   0.741   0.610  16.033  2.8546  1.1229 -0.4745
12918TIP3   OH260168   5.349   1.886  16.397  0.3214 -0.2070  0.2615
12918TIP3    H160169   5.364   1.943  16.322  0.7320 -0.7667 -0.0864
12918TIP3    H260170   5.296   1.814  16.362 -1.5105  0.6942  1.0225
12919TIP3   OH260171   4.508   1.517   3.301  0.3218  0.1310  0.5567
12919TIP3    H160172   4.452   1.450   3.341  0.2366 -0.3430 -0.3234
12919TIP3    H260173   4.591   1.510   3.347  1.5984 -3.1466 -1.8463
12920TIP3   OH260174   0.098   2.582   3.426 -0.3263 -0.3056  0.2574
12920TIP3    H160175   0.053   2.510   3.381  2.8095 -1.0595 -2.0664
12920TIP3    H260176   0.073   2.660   3.376  0.8283 -0.7218 -1.0392
12921TIP3   OH260177   1.789   0.233  14.841  0.5859  0.0628  0.0655
12921TIP3    H160178   1.747   0.178  14.907  0.1079  0.3352 -0.0101
12921TIP3    H260179   1.883   0.225  14.859  0.4427  0.3766  0.9635
12922TIP3   OH260180   0.046   3.257  13.041 -0.0267 -0.5275  0.2457
12922TIP3    H160181   0.051   3.178  12.988  2.8176 -0.3517  0.1102
12922TIP3    H260182  -0.016   3.235  13.111 -3.9814 -0.7463 -2.9553
12923TIP3   OH260183   0.105   3.001  12.486 -0.6776  0.4996 -0.1608
12923TIP3    H160184   0.115   3.070  12.552  0.3008 -0.0469  0.2762
12923TIP3    H260185   0.176   3.017  12.424  0.9357 -1.3550  1.1004
12924TIP3   OH260186   5.222   4.450   0.898 -0.4214 -0.1884  0.1467
12924TIP3    H160187   5.127   4.448   0.884 -0.4425  1.5056 -0.1633
12924TIP3    H260188   5.255   4.513   0.833  0.6284  0.8487  1.6012
12925TIP3   OH260189   6.643   0.650  15.914 -0.8301 -0.1459 -0.0919
12925TIP3    H160190   6.707   0.684  15.852  0.2143  0.8555  1.4615
12925TIP3    H260191   6.621   0.563  15.881 -0.8021  0.5891 -2.1763
12926TIP3   OH260192   4.356   2.177  11.454 -0.5401  0.2518  0.0686
12926TIP3    H160193   4.356   2.242  11.524 -0.0762  1.1187 -0.7023
12926TIP3    H260194   4.265   2.172  11.426 -0.9843 -1.1124  1.5996
12927TIP3   OH260195   5.210   5.895   4.918 -0.5905 -0.0886 -0.2892
12927TIP3    H160196   5.151   5.885   4.992  0.1394  0.3651  0.3667
12927TIP3    H260197   5.284   5.945   4.952 -0.4416  0.5202 -1.4302
12928TIP3   OH260198   2.119   5.077   3.693  0.0496  0.0320  0.0862
12928TIP3    H160199   2.038   5.064   3.644  0.2331  0.1151 -0.2467
12928TIP3    H260200   2.093   5.125   3.771 -0.1252  0.6469 -0.3477
12929TIP3   OH260201   6.195   0.246   3.475  0.4477  0.4951  0.1549
12929TIP3    H160202   6.137   0.289   3.412  0.6175  2.6227  1.3643
12929TIP3    H260203   6.169   0.281   3.560  1.9400 -0.3115  0.9831
12930TIP3   OH260204   4.778   4.009  12.219 -0.3018 -0.2126 -0.0033
12930TIP3    H160205   4.709   4.054  12.170  0.0627 -0.1139 -0.4398
12930TIP3    H260206   4.778   3.920  12.185 -0.0577 -0.1485 -0.1778
12931TIP3   OH260207   3.408   4.875  16.419 -0.2226 -0.1825 -0.1154
12931TIP3    H160208   3.371   4.799  16.464 -0.9622  0.6954  0.8231
12931TIP3    H260209   3.483   4.900  16.472 -1.1034  0.8617  0.7031
12932TIP3   OH260210   1.205   2.943   1.887 -0.2297  0.1032  0.1846
12932TIP3    H160211   1.220   2.974   1.798  1.8462 -1.0244  0.0513
12932TIP3    H260212   1.114   2.914   1.888  0.0587 -1.1452 -2.0278
12933TIP3   OH260213   4.453   3.062   4.823 -0.6076 -0.2881 -0.8131
12933TIP3    H160214   4.425   3.030   4.909 -0.5502  1.6509 -0.0138
12933TIP3    H260215   4.397   3.139   4.808  0.7294  0.5642 -1.5851
12934TIP3   OH260216   2.671   4.824  11.574 -0.5793 -0.0850  0.0747
12934TIP3    H160217   2.693   4.760  11.642 -2.7514 -1.8318 -0.7406
12934TIP3    H260218   2.724   4.798  11.499  1.7673  1.8024  0.9356
12935TIP3   OH260219   6.390   4.651  12.813 -0.2427  0.0069  0.0185
12935TIP3    H160220   6.439   4.691  12.885 -0.2861 -0.4565  0.3096
12935TIP3    H260221   6.300   4.681  12.825  0.0399  1.2597 -0.8011
12936TIP3   OH260222   1.297   4.888   0.886  0.7103  0.0002  0.2751
12936TIP3    H160223   1.366   4.850   0.940 -0.1083  0.1051  1.4244
12936TIP3    H260224   1.343   4.953   0.832  1.4369  0.4855  1.4305
12937TIP3   OH260225   4.827   4.753   6.185 -0.0110  0.2513  0.3199
12937TIP3    H160226   4.734   4.764   6.202  0.0763 -1.2865  2.1544
12937TIP3    H260227   4.869   4.826   6.232 -0.2639  0.8876 -0.4270
12938TIP3   OH260228   4.191   0.600  11.524  0.6855 -0.4609 -0.5097
12938TIP3    H160229   4.283   0.573  11.533  0.8891 -0.1513 -1.5324
12938TIP3    H260230   4.191   0.692  11.547  0.4139 -0.7265  0.6165
12939TIP3   OH260231   2.817   2.479   3.871 -0.1126 -0.1219  0.2747
12939TIP3    H160232   2.912   2.484   3.868 -0.1376  0.1840 -0.0915
12939TIP3    H260233   2.790   2.554   3.925 -0.0905 -0.9003  1.4023
12940TIP3   OH260234   2.926   6.592  13.590 -0.0798  0.0044  0.1939
12940TIP3    H160235   2.868   6.661  13.558  1.5284  1.1289 -0.4077
12940TIP3    H260236   3.008   6.636  13.609  0.6624 -1.5732  0.8611
12941TIP3   OH260237   4.643   5.294  17.158  0.0365  0.7237 -0.7671
12941TIP3    H160238   4.728   5.332  17.136  0.4594  0.6777  0.6796
12941TIP3    H260239   4.585   5.370  17.168  0.4549  0.9054  0.3997
12942TIP3   OH260240   5.588   6.303   2.882  0.0526  0.2736  0.6570
12942TIP3    H160241   5.586   6.281   2.789 -0.3323 -1.5351  1.0563
12942TIP3    H260242   5.672   6.347   2.894  0.1295  0.5029 -0.5257
12943TIP3   OH260243   3.788   1.953  11.954  0.1213 -0.1442  0.0233
12943TIP3    H160244   3.728   1.999  11.896 -0.3638 -1.9949 -1.0389
12943TIP3    H260245   3.801   2.012  12.028 -2.0841  0.8101 -0.2800
12944TIP3   OH260246   3.273   0.364   4.679  0.1324  0.4521  0.0551
12944TIP3    H160247   3.224   0.360   4.761  0.1431 -0.9247  0.0324
12944TIP3    H260248   3.365   0.363   4.706  0.1478  1.3414  0.0533
12945TIP3   OH260249   4.690   5.315   4.258 -0.1046  0.0305 -0.0839
12945TIP3    H160250   4.615   5.297   4.314 -0.2482  3.0320  0.8851
12945TIP3    H260251   4.754   5.248   4.282 -1.6829 -1.3004  0.6018
12946TIP3   OH260252   4.334   5.147   5.626 -0.2241  0.0519 -0.0453
12946TIP3    H160253   4.279   5.103   5.690  0.5010  1.2722  1.4711
12946TIP3    H260254   4.324   5.241   5.645 -0.2562  0.4789 -1.9476
12947TIP3   OH260255   6.581   0.787   0.259 -0.2504  0.1095  0.4703
12947TIP3    H160256   6.516   0.730   0.218 -1.6634  1.6899  0.3948
12947TIP3    H260257   6.571   0.871   0.214  2.3743  0.2321 -0.0348
12948TIP3   OH260258   3.757   1.450   5.547  0.0593 -0.1583  0.4370
12948TIP3    H160259   3.703   1.528   5.536 -1.1449 -0.8057  1.6012
12948TIP3    H260260   3.816   1.451   5.471 -1.7748  0.3926 -1.0464
12949TIP3   OH260261   4.614   3.650  12.715 -0.2095  0.8154 -0.5099
12949TIP3    H160262   4.604   3.646  12.619 -1.7203  0.1606 -0.3437
12949TIP3    H260263   4.528   3.678  12.747  0.3256  1.1816  0.6612
12950TIP3   OH260264   5.655   3.382  12.004 -0.2514 -0.0719  0.4724
12950TIP3    H160265   5.735   3.428  11.979 -0.2361 -0.7746 -0.8499
12950TIP3    H260266   5.683   3.317  12.069  0.0135  0.5638  1.0091
12951TIP3   OH260267   6.367   3.055  15.965 -0.0733  0.0794 -0.1849
12951TIP3    H160268   6.322   3.025  16.044 -0.8139 -0.5226 -0.8258
12951TIP3    H260269   6.308   3.033  15.893  0.2476  1.3067 -0.8520
12952TIP3   OH260270   6.105   0.386   3.242 -0.4228 -0.0920  0.2081
12952TIP3    H160271   6.139   0.341   3.165  0.1094  0.7517 -0.0677
12952TIP3    H260272   6.010   0.384   3.231 -0.3520  0.0355 -0.4842
12953TIP3   OH260273   1.354   6.656   0.309  0.1878 -0.1277  0.2429
12953TIP3    H160274   1.399   6.727   0.264  0.3374 -0.1313  0.3842
12953TIP3    H260275   1.375   6.578   0.257 -0.4496  0.0170 -0.2394
12954TIP3   OH260276   4.663   2.439   1.238 -0.0532  0.8700 -0.2535
12954TIP3    H160277   4.713   2.363   1.208  0.7844  0.9895  0.7909
12954TIP3    H260278   4.685   2.508   1.176  0.2558  0.6306 -0.4127
12955TIP3   OH260279   2.847   3.516  12.242  0.5003 -0.3723 -0.1422
12955TIP3    H160280   2.877   3.454  12.175  0.2073  1.4157 -2.0534
12955TIP3    H260281   2.927   3.561  12.270  0.5324 -0.6237  0.1674
12956TIP3   OH260282   2.394   1.653   4.873 -0.2085 -0.0987 -0.4500
12956TIP3    H160283   2.368   1.564   4.852 -1.2712  0.1091 -0.0723
12956TIP3    H260284   2.312   1.703   4.875  0.1671  0.5289  1.0436
12957TIP3   OH260285   3.063   2.952   4.556 -0.0651 -0.1946 -0.0129
12957TIP3    H160286   2.996   2.991   4.499  0.1072 -0.8448 -0.6770
12957TIP3    H260287   3.014   2.896   4.616 -0.2520  0.5295  0.5294
12958TIP3   OH260288   3.696   3.260   6.606  0.7326 -0.2964 -0.2554
12958TIP3    H160289   3.648   3.239   6.687  1.2126 -0.8430 -0.1119
12958TIP3    H260290   3.710   3.355   6.611 -0.8947 -0.0081 -0.6107
12959TIP3   OH260291   4.379   6.286   0.698  0.2310  0.2885 -0.1077
12959TIP3    H160292   4.457   6.245   0.734  1.8880  0.2055 -3.4110
12959TIP3    H260293   4.376   6.373   0.738  1.8018  0.1463  0.3611
12960TIP3   OH260294   0.449   6.158   1.640  0.1883  0.1344 -0.3665
12960TIP3    H160295   0.436   6.102   1.563 -1.3521 -0.5738  0.3570
12960TIP3    H260296   0.402   6.239   1.619  0.2732  0.1758 -0.3991
12961TIP3   OH260297   2.209   5.221   4.488  0.1193 -0.0320  0.3056
12961TIP3    H160298   2.218   5.129   4.465  0.7481 -0.3372  1.7069
12961TIP3    H260299   2.290   5.262   4.458  0.1910 -0.0941  0.4144
12962TIP3   OH260300   3.380   5.802   5.267  0.1004 -0.2206 -0.7581
12962TIP3    H160301   3.391   5.711   5.295  0.7998 -0.0185 -0.3478
12962TIP3    H260302   3.469   5.836   5.261 -0.1963  1.0513  1.1324
12963TIP3   OH260303   3.050   4.099   1.231 -0.0601  0.2900  0.4886
12963TIP3    H160304   3.019   4.010   1.214 -0.8167  0.6681 -0.1890
12963TIP3    H260305   3.145   4.095   1.219 -0.2837 -0.0260 -1.4233
12964TIP3   OH260306   6.610   2.377   1.176  0.2921 -0.0709 -0.1971
12964TIP3    H160307   6.580   2.428   1.251 -0.4012  1.2069 -1.3049
12964TIP3    H260308   6.652   2.440   1.118  4.1612 -1.5798  0.6782
12965TIP3   OH260309   0.493   0.053  14.629  0.2264 -0.0446  0.4110
12965TIP3    H160310   0.586   0.073  14.619 -0.0591  0.9815 -0.3030
12965TIP3    H260311   0.454   0.074  14.544 -0.5089 -1.4249  0.3763
12966TIP3   OH260312   4.999   2.645   0.479 -0.1527  0.1580  0.1201
12966TIP3    H160313   5.045   2.576   0.526 -0.9639 -2.5547 -2.7261
12966TIP3    H260314   4.907   2.617   0.478 -0.1693 -0.1229 -3.0515
12967TIP3   OH260315   0.779   5.758   3.348  0.0846 -0.3838  0.0981
12967TIP3    H160316   0.822   5.840   3.323  2.9638 -1.9780 -0.6277
12967TIP3    H260317   0.751   5.772   3.438 -0.4893  1.7363 -0.3584
12968TIP3   OH260318   1.383   1.160   1.748 -0.2776 -0.0628 -0.1939
12968TIP3    H160319   1.473   1.188   1.738 -0.4486  0.1494 -1.1741
12968TIP3    H260320   1.332   1.241   1.744 -0.5301 -0.2030  0.1327
12969TIP3   OH260321   5.430   5.006   3.202 -0.1388 -0.5746 -0.0443
12969TIP3    H160322   5.423   5.072   3.271  0.8559  0.9796 -1.3606
12969TIP3    H260323   5.518   4.970   3.212 -0.5010 -1.3716  0.3554
12970TIP3   OH260324   3.880   2.003   0.038 -0.0629 -0.3449 -0.0973
12970TIP3    H160325   3.966   2.018   0.077  0.0172  0.7185 -0.6478
12970TIP3    H260326   3.821   2.060   0.088 -0.0283  0.7159 -1.2177
12971TIP3   OH260327   4.338   5.292   0.893 -0.0711 -0.0109 -0.0759
12971TIP3    H160328   4.297   5.350   0.957 -1.5124 -1.9599  0.8845
12971TIP3    H260329   4.384   5.227   0.945 -2.2742 -2.3634 -0.8678
12972TIP3   OH260330   6.188   4.961  13.067 -0.2158  0.6173  0.0543
12972TIP3    H160331   6.218   4.875  13.098  0.5116  1.2282  1.1301
12972TIP3    H260332   6.094   4.949  13.052 -0.5724  0.1665  2.2628
12973TIP3   OH260333   6.778   4.279  10.664 -0.3163 -0.0616 -0.4877
12973TIP3    H160334   6.738   4.365  10.650 -1.2416 -0.3972 -0.0155
12973TIP3    H260335   6.842   4.293  10.734 -0.6203  0.2008 -0.2592
12974TIP3   OH260336   4.701   3.866   0.304  0.1699 -0.8914  0.1352
12974TIP3    H160337   4.653   3.789   0.274  1.7196 -1.7091 -0.3452
12974TIP3    H260338   4.711   3.921   0.226 -0.9795 -0.1394  0.4870
12975TIP3   OH260339   4.042   5.444  15.009 -0.3318  0.0064  0.7066
12975TIP3    H160340   4.124   5.478  14.971 -0.6888  0.7005  0.5352
12975TIP3    H260341   4.067   5.415  15.096  0.5381 -1.7519 -0.0820
12976TIP3   OH260342   1.808   3.040   3.576 -0.0310  0.2492  0.1492
12976TIP3    H160343   1.835   3.123   3.538  0.7566  0.5172  1.2656
12976TIP3    H260344   1.716   3.030   3.548 -0.0116  1.2796 -0.3306
12977TIP3   OH260345   4.618   6.641   5.875  0.2378  0.5123  0.1998
12977TIP3    H160346   4.710   6.661   5.860  0.4918  1.1132  2.1824
12977TIP3    H260347   4.615   6.546   5.882  0.8683  0.5313  0.8838
12978TIP3   OH260348   2.058   6.223  16.609 -0.2312 -0.6299 -0.2790
12978TIP3    H160349   2.092   6.297  16.660 -4.3222  2.3647 -1.3669
12978TIP3    H260350   2.095   6.235  16.522  0.1615 -0.7437 -0.1346
12979TIP3   OH260351   3.924   4.361  15.024  0.6875  0.3645 -0.6673
12979TIP3    H160352   3.993   4.311  14.981  0.4652  0.0573 -0.6695
12979TIP3    H260353   3.887   4.416  14.955 -2.0441 -2.6143 -1.8364
12980TIP3   OH260354   6.673   2.821  15.257  0.0504 -0.1391 -0.4989
12980TIP3    H160355   6.703   2.804  15.346 -0.4721 -1.1907 -0.5008
12980TIP3    H260356   6.752   2.815  15.203 -0.0799 -3.0894 -0.5376
12981TIP3   OH260357   5.900   2.957  14.464  0.1778 -0.0937 -0.2292
12981TIP3    H160358   5.870   3.039  14.502 -2.3085 -0.0755 -1.9377
12981TIP3    H260359   5.957   2.983  14.392 -1.3860  0.2744 -1.4004
12982TIP3   OH260360   4.587   2.950  12.343 -0.1759  0.2642 -0.1727
12982TIP3    H160361   4.680   2.969  12.330  0.2773 -1.9348 -0.5715
12982TIP3    H260362   4.561   3.003  12.418  0.7370  2.7613 -1.4925
12983TIP3   OH260363   1.149   6.405  11.530 -0.0359  0.2325 -0.2794
12983TIP3    H160364   1.141   6.349  11.607  0.3815  2.2672  1.3099
12983TIP3    H260365   1.090   6.478  11.547 -0.4738  0.4117 -2.2516
12984TIP3   OH260366   6.594   2.447   3.911 -0.1877 -0.4575  0.4487
12984TIP3    H160367   6.501   2.423   3.915  0.0088 -1.1815  0.7824
12984TIP3    H260368   6.632   2.384   3.850  0.0527 -0.0318  0.1508
12985TIP3   OH260369   6.658   2.623  16.245 -0.2644 -0.1732 -0.2628
12985TIP3    H160370   6.567   2.650  16.260  0.2050  0.9179  0.8723
12985TIP3    H260371   6.671   2.548  16.302 -0.6934 -0.9074 -1.1068
12986TIP3   OH260372   3.491   5.961  15.690  0.4241  0.4736 -0.3467
12986TIP3    H160373   3.435   6.025  15.648 -0.5454  0.0232  0.2365
12986TIP3    H260374   3.442   5.879  15.688  1.0892  0.0459  0.0860
12987TIP3   OH260375   3.580   4.237  12.574  0.5296  0.2943  0.0534
12987TIP3    H160376   3.648   4.288  12.618  0.4076  0.7715 -0.3063
12987TIP3    H260377   3.628   4.178  12.515  0.7214 -0.6825  1.1436
12988TIP3   OH260378   1.782   5.904  17.077  0.3783  0.1012  0.0178
12988TIP3    H160379   1.862   5.931  17.032  1.1755 -3.3272 -0.9424
12988TIP3    H260380   1.798   5.923  17.169  0.7091  2.8136 -0.5199
12989TIP3   OH260381   3.103   0.464   0.510 -0.0007 -0.0911 -0.3701
12989TIP3    H160382   3.181   0.445   0.458  0.4552 -0.4664  0.4277
12989TIP3    H260383   3.058   0.534   0.462  1.3191  0.7974 -0.3702
12990TIP3   OH260384   4.600   6.182  15.003 -0.1593 -0.1433  0.4211
12990TIP3    H160385   4.568   6.257  15.054 -1.2609  0.2500 -0.7776
12990TIP3    H260386   4.689   6.167  15.034 -0.7328  0.1468  2.3580
12991TIP3   OH260387   0.652   2.429   1.718 -0.2178 -0.5539  0.1920
12991TIP3    H160388   0.707   2.475   1.782 -0.0757 -1.2651  0.5827
12991TIP3    H260389   0.577   2.398   1.769 -0.0315 -1.2530  0.0430
12992TIP3   OH260390   5.016   5.854  14.051 -0.2292  0.0292  0.1474
12992TIP3    H160391   4.951   5.920  14.073  1.5470  2.1083 -0.4637
12992TIP3    H260392   5.063   5.890  13.975  1.1726 -1.6814  0.1219
12993TIP3   OH260393   1.194   0.738   4.582 -0.3165  0.3521  0.7682
12993TIP3    H160394   1.200   0.775   4.671  0.3630 -0.0296  0.8892
12993TIP3    H260395   1.212   0.812   4.524 -1.8572  0.8519  0.8988
12994TIP3   OH260396   4.193   4.960  12.398  0.0857  0.0912 -0.2163
12994TIP3    H160397   4.185   4.918  12.312  0.6813 -1.1185  0.2932
12994TIP3    H260398   4.234   4.894  12.453 -0.7644  0.6523  1.1494
12995TIP3   OH260399   6.241   2.149  10.665  0.5805 -0.1083 -0.4399
12995TIP3    H160400   6.210   2.203  10.738 -0.1887 -0.5804 -0.4092
12995TIP3    H260401   6.162   2.122  10.619  1.0141 -0.4554 -1.0029
12996TIP3   OH260402   3.258   0.856  15.024  0.5258 -0.1434  0.2918
12996TIP3    H160403   3.208   0.848  15.105  1.9545 -0.4866  1.1613
12996TIP3    H260404   3.344   0.819  15.044  1.0845  0.2508 -1.2221
12997TIP3   OH260405   3.022   2.938   4.109  0.9958  0.2594  0.3133
12997TIP3    H160406   3.042   2.995   4.183  1.1342  0.5324  0.0720
12997TIP3    H260407   3.043   2.991   4.032 -1.1841  0.7875  0.0128
12998TIP3   OH260408   2.590   3.156  14.155  0.2536  0.2119  0.2385
12998TIP3    H160409   2.661   3.199  14.106 -1.6247  1.6609 -1.3719
12998TIP3    H260410   2.511   3.180  14.107 -1.2131 -2.6145  1.0954
12999TIP3   OH260411   5.251   5.369  13.181 -0.1383  0.6538  0.0226
12999TIP3    H160412   5.288   5.437  13.125  0.2190 -1.8912 -3.1458
12999TIP3    H260413   5.168   5.346  13.140  0.5556 -1.9451 -0.1244
13000TIP3   OH260414   6.690   4.243  16.495 -0.2355 -0.1084 -0.1578
13000TIP3    H160415   6.704   4.334  16.472 -1.8370  0.8656  2.2838
13000TIP3    H260416   6.601   4.224  16.465 -1.0894  0.1814  1.9593
13001TIP3   OH260417   2.401   1.920  12.638  0.6618  0.6252  0.1161
13001TIP3    H160418   2.376   2.007  12.606  0.5847  0.5307 -0.0778
13001TIP3    H260419   2.487   1.904  12.598  0.0643  0.0266 -0.9423
13002TIP3   OH260420   1.894   2.442   2.964 -0.7710  0.1879 -0.4827
13002TIP3    H160421   1.880   2.352   2.935 -2.0329  0.3506 -0.4607
13002TIP3    H260422   1.812   2.487   2.942 -1.1777  0.7127  1.8008
13003TIP3   OH260423   2.801   0.255   2.628 -0.3501 -0.4728 -0.4461
13003TIP3    H160424   2.793   0.345   2.597 -1.6482 -0.5677 -0.4156
13003TIP3    H260425   2.712   0.227   2.645  0.1987 -0.5820  2.9914
13004TIP3   OH260426   3.015   4.310  13.544 -0.1072 -0.1773  0.2222
13004TIP3    H160427   2.971   4.305  13.629  0.0203  1.8018  0.4553
13004TIP3    H260428   2.981   4.391  13.505  1.0096 -0.2329 -0.9261
13005TIP3   OH260429   4.215   4.620   5.339  0.0897 -0.2747 -0.4497
13005TIP3    H160430   4.204   4.587   5.429 -0.3311  1.6167  0.2524
13005TIP3    H260431   4.182   4.710   5.343  0.4732 -0.0064 -2.4185
13006TIP3   OH260432   2.878   0.197  11.581  0.5403  0.0515 -0.4040
13006TIP3    H160433   2.959   0.168  11.623 -0.9810 -1.5873  1.5919
13006TIP3    H260434   2.876   0.292  11.596  1.3838 -0.1103  0.8881
13007TIP3   OH260435   6.148   3.231   4.410  0.6224  0.0620 -0.7577
13007TIP3    H160436   6.119   3.140   4.401  2.9161 -0.6944 -1.0427
13007TIP3    H260437   6.152   3.245   4.505  0.6658 -0.2766 -0.7064
13008TIP3   OH260438   3.543   0.651  15.123  0.0358 -0.1930 -0.7398
13008TIP3    H160439   3.620   0.707  15.117 -0.6666  0.9950  0.6709
13008TIP3    H260440   3.559   0.596  15.200  0.1838 -1.1189 -1.4132
13009TIP3   OH260441   5.288   4.169  11.947 -0.2403  0.3230  0.0527
13009TIP3    H160442   5.362   4.161  11.888 -0.4664 -0.1598 -0.1756
13009TIP3    H260443   5.289   4.260  11.976  0.4805  0.3007  0.1091
13010TIP3   OH260444   1.239   6.439  16.255  0.1430  0.2291 -0.7891
13010TIP3    H160445   1.241   6.477  16.343  1.3017 -0.5653 -0.4643
13010TIP3    H260446   1.273   6.351  16.266  0.8264  0.3032 -2.1242
13011TIP3   OH260447   5.029   4.556   5.105 -0.0846  0.3899 -0.1553
13011TIP3    H160448   5.027   4.573   5.199  1.4165 -0.2614  0.0250
13011TIP3    H260449   5.083   4.626   5.069 -1.3562  1.1359 -0.6763
13012TIP3   OH260450   0.465   5.414   2.716 -0.0955  0.0067 -0.7132
13012TIP3    H160451   0.463   5.490   2.656  0.5930 -0.2115 -1.0234
13012TIP3    H260452   0.558   5.404   2.738 -0.0767 -1.2245 -1.2946
13013TIP3   OH260453   2.228   0.166   0.726 -0.0941 -0.2022  0.2878
13013TIP3    H160454   2.288   0.200   0.661 -0.6991  1.8272  0.7105
13013TIP3    H260455   2.144   0.206   0.705 -1.2985 -2.7749 -0.1453
13014TIP3   OH260456   2.519   3.799   0.369  0.6045  0.4765  0.3883
13014TIP3    H160457   2.513   3.859   0.443 -1.0010  0.9874 -0.1189
13014TIP3    H260458   2.531   3.855   0.293 -2.8341  0.4522 -0.3539
13015TIP3   OH260459   5.507   0.433  17.064  0.1557 -0.5216 -0.0639
13015TIP3    H160460   5.556   0.502  17.110  2.3090 -2.8075  1.3272
13015TIP3    H260461   5.463   0.479  16.992  0.4190  2.4697  1.5314
13016TIP3   OH260462   6.371   0.283   1.269  0.3599  0.1793  0.2133
13016TIP3    H160463   6.331   0.198   1.290  1.5094 -0.8884 -1.6436
13016TIP3    H260464   6.443   0.292   1.332 -0.0332 -0.0024  0.6974
13017TIP3   OH260465   0.994   5.578   0.980  0.1275 -0.2583  0.2810
13017TIP3    H160466   0.959   5.636   1.047  0.2470 -1.0076  1.0195
13017TIP3    H260467   0.925   5.574   0.913 -0.2236  0.0860  0.6156
13018TIP3   OH260468   4.287   4.831   2.100  0.1788 -0.5095 -0.4373
13018TIP3    H160469   4.358   4.822   2.163  0.0924 -1.3979 -0.4596
13018TIP3    H260470   4.330   4.850   2.016  0.3071  0.3539 -0.1934
13019TIP3   OH260471   4.416   1.704  16.221  0.5496  0.3408  0.4598
13019TIP3    H160472   4.344   1.766  16.208  0.4392 -0.2100 -2.2443
13019TIP3    H260473   4.495   1.757  16.219  0.3443  0.6517  0.6167
13020TIP3   OH260474   6.556   2.567   5.076 -0.2499  0.2005 -0.4113
13020TIP3    H160475   6.556   2.573   4.981  0.9708 -2.7593 -0.7118
13020TIP3    H260476   6.647   2.547   5.099 -1.0164 -2.1198  0.9970
13021TIP3   OH260477   0.682   6.464   2.318 -0.2295  0.5913 -0.3826
13021TIP3    H160478   0.737   6.539   2.339 -3.0538  3.0010 -0.9974
13021TIP3    H260479   0.675   6.464   2.223  0.0066 -0.7187 -0.4259
13022TIP3   OH260480   4.558   6.436  13.614  0.4348 -0.1957 -0.1572
13022TIP3    H160481   4.604   6.478  13.541 -0.1618  0.8300  0.0372
13022TIP3    H260482   4.563   6.342  13.595  0.9298  0.0170 -1.1254
13023TIP3   OH260483   5.135   4.046  16.485  0.0041  0.4673 -0.4732
13023TIP3    H160484   5.069   4.041  16.554 -0.4682  0.6898 -0.9001
13023TIP3    H260485   5.141   4.139  16.464  3.1128  0.9821  2.0644
13024TIP3   OH260486   4.115   2.875  17.142  0.3564  0.3480 -0.6806
13024TIP3    H160487   4.054   2.817  17.187  0.5145  1.2973  0.8551
13024TIP3    H260488   4.198   2.828  17.143  0.1605 -0.0015 -0.7440
13025TIP3   OH260489   2.032   6.221   4.660  0.4565  0.5357  0.0486
13025TIP3    H160490   1.949   6.261   4.686  0.1596  0.6183 -1.0078
13025TIP3    H260491   2.099   6.279   4.697  0.0674  0.2890  1.1932
13026TIP3   OH260492   5.475   0.881   5.942  0.2792 -0.2227  0.2566
13026TIP3    H160493   5.435   0.947   5.998  1.4017  1.1498 -0.5137
13026TIP3    H260494   5.538   0.836   5.999 -0.1070 -0.2856  0.6397
13027TIP3   OH260495   1.780   0.871   1.590  0.3740  0.4406  0.7620
13027TIP3    H160496   1.819   0.940   1.537  2.1061  0.1404  1.5805
13027TIP3    H260497   1.694   0.905   1.616 -0.5518  0.5998 -2.1591
13028TIP3   OH260498   1.661   4.942   0.854 -0.2159  0.3620 -0.4240
13028TIP3    H160499   1.742   4.941   0.804 -0.4190 -0.3795 -0.7493
13028TIP3    H260500   1.592   4.949   0.788 -0.5503 -1.8483 -0.3737
13029TIP3   OH260501   3.429   0.681  16.941 -0.5038 -0.6638 -0.2750
13029TIP3    H160502   3.373   0.608  16.916 -0.3509 -1.0574  0.5049
13029TIP3    H260503   3.469   0.710  16.859 -0.9003 -1.1709 -0.6557
13030TIP3   OH260504   2.273   3.508   4.592  0.3964 -0.7241  0.2454
13030TIP3    H160505   2.299   3.416   4.595  0.0645 -0.9051 -1.4583
13030TIP3    H260506   2.351   3.556   4.620  0.2908 -1.5239  2.0594
13031TIP3   OH260507   4.876   4.637   5.682  0.2878 -0.0635 -0.6154
13031TIP3    H160508   4.923   4.711   5.721 -2.5252  1.2059  0.6313
13031TIP3    H260509   4.864   4.575   5.754 -0.3990 -0.1132 -0.7637
13032TIP3   OH260510   1.635   4.080   6.163  0.0689 -0.5359  0.1028
13032TIP3    H160511   1.653   4.168   6.196  0.5336 -0.6499  0.1564
13032TIP3    H260512   1.559   4.051   6.214 -0.0926 -0.1648  0.0801
13033TIP3   OH260513   4.728   2.127   0.862 -0.3534  0.1265 -0.2875
13033TIP3    H160514   4.671   2.078   0.922  0.3276 -0.4314 -0.0833
13033TIP3    H260515   4.813   2.130   0.907  0.1911 -0.3607 -1.2531
13034TIP3   OH260516   1.464   5.932   2.926 -0.4402 -0.3695  0.2086
13034TIP3    H160517   1.508   5.902   3.006  0.1261 -1.6976 -0.5603
13034TIP3    H260518   1.388   5.981   2.957  1.0300  1.1837  1.5835
13035TIP3   OH260519   6.401   4.334  11.948  0.8258 -0.3840 -0.4336
13035TIP3    H160520   6.319   4.325  11.899  0.6183  1.6098 -0.5426
13035TIP3    H260521   6.433   4.421  11.924  2.7885 -0.9613 -0.0828
13036TIP3   OH260522   0.012   2.816  10.575 -0.3743 -0.4174 -0.0706
13036TIP3    H160523  -0.058   2.879  10.592 -0.5234 -0.5742 -0.1050
13036TIP3    H260524   0.071   2.862  10.516 -0.4892 -0.3119 -0.1052
13037TIP3   OH260525   5.501   3.910  13.801 -0.0750  0.7871 -0.5096
13037TIP3    H160526   5.522   3.821  13.827 -2.0423  0.3364 -0.2887
13037TIP3    H260527   5.410   3.906  13.771 -0.2727  2.7399 -0.3549
13038TIP3   OH260528   0.897   2.517   0.781  0.1014 -0.4856  0.5360
13038TIP3    H160529   0.835   2.527   0.854 -0.9730  1.3784 -0.5474
13038TIP3    H260530   0.905   2.605   0.744  0.9755 -1.2867 -1.3232
13039TIP3   OH260531   2.968   6.234  15.252 -0.2783  0.6675 -0.4107
13039TIP3    H160532   3.052   6.220  15.209  0.1717 -0.8154  0.8641
13039TIP3    H260533   2.960   6.329  15.260  1.3562  0.8261 -0.4088
13040TIP3   OH260534   1.127   0.640   1.214  0.1159 -0.2290  0.2970
13040TIP3    H160535   1.142   0.707   1.281  0.7458 -1.5651  1.5780
13040TIP3    H260536   1.142   0.557   1.261  1.4434 -1.2084 -1.7184
13041TIP3   OH260537   4.078   4.128   1.598  0.2728  0.4205  0.4325
13041TIP3    H160538   4.047   4.208   1.641 -0.2103  1.0868 -1.0947
13041TIP3    H260539   3.998   4.083   1.571  0.4201 -1.6105  2.9022
13042TIP3   OH260540   4.784   5.958   2.461 -0.1429  0.1269  0.0947
13042TIP3    H160541   4.876   5.979   2.445 -0.1724 -0.4479 -0.9033
13042TIP3    H260542   4.735   6.024   2.411 -0.3126  1.1704  1.5668
13043TIP3   OH260543   1.216   4.810  14.007  0.0069  0.0913 -0.4196
13043TIP3    H160544   1.287   4.761  14.049  0.2353  0.5051 -0.3152
13043TIP3    H260545   1.209   4.772  13.919 -0.0549 -0.3623 -0.2167
13044TIP3   OH260546   5.159   0.397   1.528 -0.2109  0.9365 -0.2936
13044TIP3    H160547   5.220   0.429   1.594 -0.5440  0.0608  0.4641
13044TIP3    H260548   5.184   0.307   1.513 -1.6379  0.3749  0.4600
13045TIP3   OH260549   4.220   4.730  16.736  0.2704  0.7729 -0.2763
13045TIP3    H160550   4.273   4.747  16.813  1.5207 -2.4365 -0.2950
13045TIP3    H260551   4.270   4.769  16.663  1.4555 -0.1998 -0.0064
13046TIP3   OH260552   3.269   2.308  14.100  0.0165 -0.2689 -0.3713
13046TIP3    H160553   3.294   2.315  14.192 -1.4182  0.2730  0.0077
13046TIP3    H260554   3.352   2.310  14.052  0.7278  0.6287  0.8447
13047TIP3   OH260555   2.019   1.081   3.872 -0.2113 -0.0914 -0.2275
13047TIP3    H160556   1.981   1.087   3.784  0.9044  0.4957 -0.6930
13047TIP3    H260557   1.944   1.065   3.929 -1.3182  1.9998 -0.9718
13048TIP3   OH260558   4.726   3.216   5.941 -0.1957 -0.1160  0.1556
13048TIP3    H160559   4.668   3.268   5.887 -1.2706 -0.6574  0.7533
13048TIP3    H260560   4.750   3.141   5.886 -0.4573 -0.1390  0.0739
13049TIP3   OH260561   1.383   5.837  14.137  0.0877  0.0762  0.2549
13049TIP3    H160562   1.341   5.855  14.221  0.1305 -1.3405  0.6078
13049TIP3    H260563   1.422   5.750  14.148  0.9392  0.2852 -0.9079
13050TIP3   OH260564   0.261   5.228   6.238 -0.1769  0.2025  0.0916
13050TIP3    H160565   0.344   5.186   6.215 -0.3060 -0.2213  0.3793
13050TIP3    H260566   0.244   5.289   6.167  1.4010  1.7814  1.0073
13051TIP3   OH260567   3.367   2.424   4.328 -0.1571  0.5049 -0.2021
13051TIP3    H160568   3.410   2.407   4.244 -0.6513  0.5288 -0.4618
13051TIP3    H260569   3.281   2.383   4.319 -0.3401  0.8059  0.1678
13052TIP3   OH260570   1.130   5.380   1.394  0.4549 -0.2254  0.1447
13052TIP3    H160571   1.087   5.462   1.371  1.7903  0.2799 -0.6964
13052TIP3    H260572   1.087   5.314   1.339  1.1601  0.3800 -1.1809
13053TIP3   OH260573   0.637   4.900  12.696  0.0440 -0.5038 -0.0964
13053TIP3    H160574   0.588   4.975  12.663 -0.5587 -0.2891  1.2375
13053TIP3    H260575   0.718   4.937  12.731  0.4120 -0.6620 -0.7598
13054TIP3   OH260576   1.868   5.877   2.434  0.2641  0.0588  0.6359
13054TIP3    H160577   1.794   5.937   2.428 -0.1864 -0.5194  0.1636
13054TIP3    H260578   1.842   5.802   2.380  0.6381 -0.7321  1.5082
13055TIP3   OH260579   5.338   3.380   0.255 -0.0290 -0.1019 -0.3998
13055TIP3    H160580   5.301   3.297   0.223 -0.9419  0.6154 -1.2786
13055TIP3    H260581   5.273   3.413   0.317  0.8985 -0.6023  0.8864
13056TIP3   OH260582   6.193   6.742   3.465  0.2419  0.0645 -0.1565
13056TIP3    H160583   6.181   6.837   3.471 -1.9964 -0.0381 -1.5938
13056TIP3    H260584   6.156   6.718   3.379  0.5392 -2.1278  0.2553
13057TIP3   OH260585   4.322   6.550  11.976 -0.1170 -0.4367  0.5566
13057TIP3    H160586   4.263   6.541  12.051 -1.3145 -0.0615 -0.3069
13057TIP3    H260587   4.284   6.493  11.910 -0.5567  1.1497 -0.6226
13058TIP3   OH260588   6.022   0.972  11.407  0.1952  0.2095 -0.9580
13058TIP3    H160589   5.937   0.993  11.369  0.8388  0.3826 -2.3763
13058TIP3    H260590   6.086   1.005  11.343  1.3084 -1.4003 -0.7564
13059TIP3   OH260591   2.426   3.503   2.603  0.3741 -0.1162 -0.1085
13059TIP3    H160592   2.458   3.416   2.627  1.8719  0.2477 -0.6727
13059TIP3    H260593   2.505   3.558   2.600 -0.4407  1.0691 -0.5751
13060TIP3   OH260594   2.791   0.371  16.203 -0.5606  0.3722  0.7551
13060TIP3    H160595   2.864   0.309  16.200 -1.5411 -0.8374  1.3681
13060TIP3    H260596   2.779   0.390  16.296 -1.5169 -0.0304  0.7166
13061TIP3   OH260597   1.565   1.955   1.045  0.2706  0.0757  0.1090
13061TIP3    H160598   1.642   1.982   1.095 -1.1588 -1.7388  3.6404
13061TIP3    H260599   1.502   2.026   1.058  0.7525  0.8944 -1.6101
13062TIP3   OH260600   3.122   1.379  13.997 -0.4850 -0.4216 -0.2413
13062TIP3    H160601   3.100   1.404  13.907  0.1588 -0.6845 -0.4755
13062TIP3    H260602   3.048   1.412  14.049 -1.2686 -0.9868 -0.9589
13063TIP3   OH260603   0.747   6.257  11.023  0.3218  0.2119 -0.0374
13063TIP3    H160604   0.771   6.286  11.111  0.5072  1.1170 -0.3779
13063TIP3    H260605   0.768   6.331  10.967 -0.5759 -0.0444 -0.7316
13064TIP3   OH260606   4.660   0.735  12.350 -0.3434  0.2731 -0.2502
13064TIP3    H160607   4.693   0.704  12.434 -0.1606 -1.5181 -0.9328
13064TIP3    H260608   4.739   0.750  12.297 -0.4604 -2.5940 -1.4016
13065TIP3   OH260609   3.689   5.055   5.208  0.4526 -0.0956  0.0115
13065TIP3    H160610   3.693   5.149   5.224  2.5854 -0.0942 -0.3230
13065TIP3    H260611   3.764   5.018   5.254  1.9841 -1.1001 -3.0078
13066TIP3   OH260612   5.567   1.073   2.904  0.1911  0.9123  0.2698
13066TIP3    H160613   5.662   1.083   2.905  0.1816  1.5957 -1.6152
13066TIP3    H260614   5.544   1.050   2.994  2.2868 -0.8803  0.4108
13067TIP3   OH260615   1.576   1.139  12.363  0.1542  0.1565 -0.0151
13067TIP3    H160616   1.580   1.177  12.275 -1.3265  0.9485  0.2382
13067TIP3    H260617   1.608   1.209  12.420 -1.0054  0.4484  0.2874
13068TIP3   OH260618   2.448   2.476  11.743 -0.4645 -0.3400 -0.4113
13068TIP3    H160619   2.501   2.555  11.750  0.1688 -0.8300  0.4723
13068TIP3    H260620   2.378   2.489  11.807 -0.6629 -0.2738 -0.6386
13069TIP3   OH260621   6.383   3.597   1.307 -0.1509  0.3549 -0.1478
13069TIP3    H160622   6.450   3.593   1.238  1.9014  0.2342  1.7557
13069TIP3    H260623   6.425   3.645   1.378 -1.0006 -2.2071  2.2477
13070TIP3   OH260624   0.575   1.689   2.298  1.0627 -0.4041  0.0274
13070TIP3    H160625   0.630   1.757   2.338  1.0636 -0.2295 -0.2615
13070TIP3    H260626   0.587   1.612   2.352  2.1393 -0.5713 -0.4316
13071TIP3   OH260627   5.625   4.479   3.321  0.4549  0.0862  0.0690
13071TIP3    H160628   5.654   4.414   3.257  1.1873 -1.0503  1.5318
13071TIP3    H260629   5.705   4.511   3.362 -0.0660  0.1867  1.0208
13072TIP3   OH260630   6.011   2.825   1.962 -0.1543 -0.5479 -0.0539
13072TIP3    H160631   5.949   2.799   2.031  0.1979  0.8319  0.8037
13072TIP3    H260632   6.044   2.910   1.990  0.7285 -0.4062 -1.4576
13073TIP3   OH260633   3.335   3.977   0.324 -0.5287  0.0381 -0.3297
13073TIP3    H160634   3.317   4.064   0.287 -1.1282 -1.1099 -2.9725
13073TIP3    H260635   3.431   3.975   0.332 -0.3931  0.4730 -1.5623
13074TIP3   OH260636   1.483   4.363  14.582 -0.4235  0.0234  0.4641
13074TIP3    H160637   1.571   4.341  14.551 -0.7703  0.8882 -1.3115
13074TIP3    H260638   1.486   4.457  14.598 -1.0100  0.0618  0.3822
13075TIP3   OH260639   6.502   4.929   0.455  0.2547  0.1154 -0.0941
13075TIP3    H160640   6.526   4.871   0.527 -0.6278 -1.1344 -0.7539
13075TIP3    H260641   6.425   4.977   0.487  1.0949  1.0927  0.5190
13076TIP3   OH260642   4.734   3.502   3.329 -0.2217 -0.7915 -0.3322
13076TIP3    H160643   4.667   3.441   3.299 -1.1863 -0.0301  0.1880
13076TIP3    H260644   4.740   3.567   3.258 -1.2524  0.0481  0.3122
13077TIP3   OH260645   5.124   3.183   0.208  0.3705  0.6556  0.1974
13077TIP3    H160646   5.030   3.199   0.214  0.3034  1.3787 -1.9437
13077TIP3    H260647   5.134   3.131   0.128  1.8200  0.7545  0.2928
13078TIP3   OH260648   0.096   6.309  10.699  0.4577  0.2957  0.0061
13078TIP3    H160649   0.028   6.318  10.632  0.0610 -0.7507  0.2395
13078TIP3    H260650   0.178   6.301  10.650  0.3695  1.2075 -0.2911
13079TIP3   OH260651   4.134   2.600   1.171 -0.2019 -0.1545  0.3140
13079TIP3    H160652   4.223   2.568   1.190 -0.3903 -0.9704 -0.1602
13079TIP3    H260653   4.143   2.695   1.174  0.8612 -0.2103 -0.4553
13080TIP3   OH260654   2.889   3.556  13.146  0.4957  0.2688 -0.2175
13080TIP3    H160655   2.964   3.523  13.195  0.6898 -0.1536 -0.7858
13080TIP3    H260656   2.836   3.603  13.211  1.2037  0.4948  0.2012
13081TIP3   OH260657   3.862   4.573  14.835 -0.0729 -0.4445  0.3547
13081TIP3    H160658   3.907   4.645  14.881 -1.2285  0.8979 -0.5539
13081TIP3    H260659   3.779   4.563  14.882 -0.0534 -0.9922  0.2775
13082TIP3   OH260660   4.002   2.266   5.818  0.4086 -0.2057  0.1889
13082TIP3    H160661   3.985   2.259   5.724 -1.2258  0.8342  0.3784
13082TIP3    H260662   4.057   2.343   5.827  2.4232 -1.5297 -0.0721
13083TIP3   OH260663   4.308   5.712   3.531  0.1621  0.2749  0.2302
13083TIP3    H160664   4.277   5.634   3.577 -0.6633  0.6142  0.2686
13083TIP3    H260665   4.228   5.763   3.514  0.6840  1.0961  0.1814
13084TIP3   OH260666   4.026   2.589   4.092 -0.2684 -0.5369 -0.0254
13084TIP3    H160667   4.033   2.545   4.007  0.0872 -1.5283  0.4985
13084TIP3    H260668   4.115   2.618   4.111 -0.2857 -0.6053  0.1606
13085TIP3   OH260669   4.961   6.569   0.698 -0.4524  0.0135 -0.0387
13085TIP3    H160670   4.974   6.536   0.608 -1.0783 -1.0213  0.2286
13085TIP3    H260671   5.013   6.510   0.752  1.7584  1.9889  0.1177
13086TIP3   OH260672   0.835   5.773   0.430 -0.7509 -0.4026  0.3221
13086TIP3    H160673   0.897   5.717   0.477 -0.5059  0.5096  1.0988
13086TIP3    H260674   0.780   5.711   0.381 -0.6507 -1.3433  1.3633
13087TIP3   OH260675   5.014   5.067  15.120  0.8183 -0.1967 -0.3908
13087TIP3    H160676   5.087   5.005  15.117 -0.3401 -1.5874 -1.0947
13087TIP3    H260677   4.936   5.012  15.128 -0.1481  1.2660  0.9910
13088TIP3   OH260678   6.471   4.905  12.293 -0.3740 -0.2267  0.7068
13088TIP3    H160679   6.520   4.985  12.307 -0.7432  0.2044 -0.3641
13088TIP3    H260680   6.396   4.912  12.351 -0.3608  0.1593  0.6777
13089TIP3   OH260681   5.014   1.034   3.652 -0.1132 -0.1282 -0.4031
13089TIP3    H160682   5.093   1.027   3.706 -0.1895  0.8486 -0.1388
13089TIP3    H260683   5.043   1.079   3.572  0.5670 -3.7875 -2.4238
13090TIP3   OH260684   1.546   0.618  15.539 -0.3962  0.4912 -0.5567
13090TIP3    H160685   1.581   0.644  15.454  1.0161  1.6052  0.3183
13090TIP3    H260686   1.602   0.663  15.602  1.2873 -3.5096  1.1198
13091TIP3   OH260687   6.592   6.137  13.577 -0.2026  0.2598 -0.2498
13091TIP3    H160688   6.502   6.157  13.600 -0.3057  1.0900 -1.2949
13091TIP3    H260689   6.644   6.170  13.651 -0.7943 -0.9751  0.7387
13092TIP3   OH260690   1.137   3.453  15.506 -0.4340 -0.3871  0.1612
13092TIP3    H160691   1.064   3.480  15.449  0.5278 -0.1636 -0.9957
13092TIP3    H260692   1.173   3.535  15.539 -0.4288 -0.4794  0.3857
13093TIP3   OH260693   1.190   3.696  16.721 -0.1250  0.1436 -0.5578
13093TIP3    H160694   1.097   3.673  16.720  0.4919 -2.8055  0.5534
13093TIP3    H260695   1.203   3.746  16.640 -2.5732  0.3386 -0.9085
13094TIP3   OH260696   5.478   0.857   2.699 -0.4721 -0.0460 -0.2086
13094TIP3    H160697   5.477   0.949   2.727  1.4985 -0.0700  0.1157
13094TIP3    H260698   5.524   0.811   2.769 -0.3118 -1.0661 -0.9608
13095TIP3   OH260699   0.344   2.795  12.120  0.4459  0.0405  0.4565
13095TIP3    H160700   0.337   2.742  12.199 -0.3182 -0.1492  0.2696
13095TIP3    H260701   0.309   2.739  12.050 -2.0738  1.3681  0.5185
13096TIP3   OH260702   1.996   5.355  14.335  0.3745 -0.1623  0.5735
13096TIP3    H160703   1.999   5.303  14.415  0.1785  0.0003  0.6867
13096TIP3    H260704   1.993   5.446  14.365  2.7325  0.0555  0.3925
13097TIP3   OH260705   2.246   1.012   2.120 -0.7793  0.5068  0.2203
13097TIP3    H160706   2.322   0.968   2.159 -0.4920  0.9597  0.1863
13097TIP3    H260707   2.229   1.085   2.180 -1.7822 -0.1300  0.7439
13098TIP3   OH260708   3.518   2.441   5.570  0.0375 -0.0271  0.1279
13098TIP3    H160709   3.458   2.514   5.552 -0.2090 -0.3432 -0.3623
13098TIP3    H260710   3.519   2.434   5.665 -0.7659 -0.0613  0.1376
13099TIP3   OH260711   3.658   1.683   5.454 -0.6324 -0.4296  0.5943
13099TIP3    H160712   3.660   1.746   5.526 -0.2885 -0.9266  1.0315
13099TIP3    H260713   3.743   1.693   5.410 -0.4329 -0.8264  0.8812
13100TIP3   OH260714   6.437   3.145  12.080  0.4212 -0.0877 -0.3949
13100TIP3    H160715   6.446   3.138  12.175  0.8571  0.1888 -0.4128
13100TIP3    H260716   6.452   3.056  12.048 -0.5783 -0.3468 -0.1445
13101TIP3   OH260717   6.348   5.750   4.413 -0.3138 -0.0690 -0.8528
13101TIP3    H160718   6.330   5.736   4.506 -1.2992 -1.8314 -1.2568
13101TIP3    H260719   6.438   5.719   4.402 -0.2694 -0.0656 -0.5203
13102TIP3   OH260720   1.013   4.769  11.722 -0.4121  0.3128  0.5189
13102TIP3    H160721   1.063   4.849  11.704  0.4836 -0.4389 -0.4554
13102TIP3    H260722   1.078   4.698  11.718 -1.5196 -0.6834 -0.5976
13103TIP3   OH260723   3.299   2.626  11.413  0.0963  0.3266 -0.1973
13103TIP3    H160724   3.293   2.575  11.332 -0.8775 -0.6916  0.4719
13103TIP3    H260725   3.285   2.561  11.483  2.4347  0.8864  0.8960
13104TIP3   OH260726   1.362   6.409   4.492 -0.0969  0.1133  0.2554
13104TIP3    H160727   1.435   6.386   4.549 -1.3983  0.5709  2.2047
13104TIP3    H260728   1.289   6.357   4.525 -1.1199  1.1029 -0.3760
13105TIP3   OH260729   3.300   5.042   3.691  0.0890  0.5367  0.1096
13105TIP3    H160730   3.251   5.116   3.654 -0.1966 -0.0507 -0.7224
13105TIP3    H260731   3.280   5.044   3.784  0.1601  1.5681  0.1095
13106TIP3   OH260732   3.864   4.681  16.986  0.6237 -0.6628  0.6303
13106TIP3    H160733   3.875   4.722  17.072 -0.4492  0.2487  0.3544
13106TIP3    H260734   3.816   4.601  17.004  0.7364 -0.6662  0.9259
13107TIP3   OH260735   4.720   3.680   3.076 -0.6650 -0.2308  0.2801
13107TIP3    H160736   4.744   3.737   3.004 -0.1265  1.7155  1.9190
13107TIP3    H260737   4.626   3.695   3.089 -0.7911 -0.6804 -0.0574
13108TIP3   OH260738   3.231   6.501  13.399  0.3379  0.1935 -0.3861
13108TIP3    H160739   3.206   6.442  13.328 -0.1169  0.9573 -0.8821
13108TIP3    H260740   3.205   6.588  13.368  0.3359  0.5683  0.6228
13109TIP3   OH260741   0.448   4.739   2.688 -0.2179 -1.0626  0.1719
13109TIP3    H160742   0.449   4.646   2.668  0.6471 -0.8806 -0.7362
13109TIP3    H260743   0.501   4.779   2.619 -1.1204  0.1808  0.1618
13110TIP3   OH260744   3.830   3.993   4.117  0.4320  0.0456 -0.7429
13110TIP3    H160745   3.844   3.963   4.206 -0.9641 -2.1626 -1.1904
13110TIP3    H260746   3.861   4.084   4.117 -2.6356  1.3461  2.8785
13111TIP3   OH260747   5.382   5.672  16.466 -0.5446 -0.3243 -0.0624
13111TIP3    H160748   5.465   5.661  16.419 -1.7407 -1.2560 -2.0845
13111TIP3    H260749   5.378   5.766  16.486  0.8021 -0.1968 -0.3097
13112TIP3   OH260750   3.670   5.183   2.680 -0.4031 -0.2765  0.2699
13112TIP3    H160751   3.686   5.123   2.608 -1.4737  0.0095 -0.2418
13112TIP3    H260752   3.755   5.221   2.701  0.4675 -2.6355  1.2478
13113TIP3   OH260753   6.432   6.655   3.822  0.9076 -0.3310  0.2300
13113TIP3    H160754   6.526   6.645   3.806  0.8864 -0.5762  0.2593
13113TIP3    H260755   6.394   6.663   3.735  0.9047 -0.6941  0.1945
13114TIP3   OH260756   1.501   2.587   6.387 -0.5548 -0.2795  0.1976
13114TIP3    H160757   1.406   2.601   6.394 -0.6100 -0.4690 -0.1419
13114TIP3    H260758   1.539   2.671   6.409 -0.9009  0.7347 -2.6897
13115TIP3   OH260759   4.555   0.143  16.406  0.9102  0.2911 -0.0705
13115TIP3    H160760   4.532   0.068  16.460  3.0851 -0.1722  0.3183
13115TIP3    H260761   4.556   0.217  16.466  0.5548  0.2974 -0.0715
13116TIP3   OH260762   5.108   4.685   6.134 -0.5849  0.6939  0.4858
13116TIP3    H160763   5.015   4.705   6.148 -0.8511  3.1925 -3.3977
13116TIP3    H260764   5.155   4.754   6.182 -0.6587 -0.2332  1.9674
13117TIP3   OH260765   1.067   1.052  14.977 -0.0667  0.1047  0.1313
13117TIP3    H160766   1.078   1.087  14.888  0.4647 -0.9289 -0.2169
13117TIP3    H260767   1.141   0.992  14.989 -1.2751 -1.3613  0.4937
13118TIP3   OH260768   6.701   1.637  13.678  0.5625 -0.1586 -0.0535
13118TIP3    H160769   6.650   1.593  13.746  0.0773  1.4292  0.6515
13118TIP3    H260770   6.674   1.594  13.597  3.1460 -4.0052  0.8566
13119TIP3   OH260771   4.526   0.590  13.245 -0.7182 -0.0181 -0.6266
13119TIP3    H160772   4.430   0.587  13.242 -0.6959 -0.1737 -1.3631
13119TIP3    H260773   4.551   0.643  13.169 -0.2477  0.7758  0.0584
13120TIP3   OH260774   1.152   2.611   0.401  0.4552 -0.5555 -0.0164
13120TIP3    H160775   1.184   2.700   0.411  1.2479 -0.7289 -0.8876
13120TIP3    H260776   1.167   2.570   0.486  0.7797 -0.0710  0.1609
13121TIP3   OH260777   1.422   3.111  15.607 -0.1218 -0.0189  0.6702
13121TIP3    H160778   1.492   3.166  15.572  0.6358 -0.8708  0.7973
13121TIP3    H260779   1.461   3.068  15.684  0.2106 -2.7222 -0.8907
13122TIP3   OH260780   0.595   5.209  16.927  0.4083  0.4437  0.0830
13122TIP3    H160781   0.530   5.158  16.976 -2.0781  2.1089 -1.2620
13122TIP3    H260782   0.587   5.298  16.963  0.3470  1.1291 -1.5483
13123TIP3   OH260783   5.318   2.861   0.767  0.4228  0.2162 -0.2640
13123TIP3    H160784   5.408   2.851   0.734  0.5250  2.2941 -0.7608
13123TIP3    H260785   5.312   2.954   0.791 -1.3245 -0.0881  0.6146
13124TIP3   OH260786   3.687   2.920   1.166 -0.3822  0.4566 -0.1108
13124TIP3    H160787   3.700   2.880   1.080 -1.3777  0.6492 -0.3681
13124TIP3    H260788   3.700   2.848   1.228 -3.1792 -0.6235 -0.6064
13125TIP3   OH260789   1.361   2.024   5.715  0.5956  0.0512 -0.0420
13125TIP3    H160790   1.345   1.936   5.748 -0.8016 -0.8372 -2.7937
13125TIP3    H260791   1.454   2.025   5.693  0.7620 -0.4821  0.6134
13126TIP3   OH260792   0.734   0.496   1.800 -0.3288  0.3868 -0.2192
13126TIP3    H160793   0.819   0.539   1.786 -0.3735  0.4476 -0.2988
13126TIP3    H260794   0.715   0.511   1.893  0.1863 -0.4101  0.0309
13127TIP3   OH260795   6.595   5.261  16.123 -0.3046  0.6177 -0.4097
13127TIP3    H160796   6.647   5.191  16.084  0.7532  1.2307 -0.1550
13127TIP3    H260797   6.518   5.267  16.067  0.9928  1.2357 -2.2519
13128TIP3   OH260798   3.240   3.501  17.204 -0.0134 -0.2679  0.3043
13128TIP3    H160799   3.250   3.502  17.299  1.7799 -0.2085  0.1457
13128TIP3    H260800   3.287   3.422  17.175 -1.2975 -0.7858 -0.4845
13129TIP3   OH260801   2.637   5.204  15.137  0.1620 -0.2038  0.4731
13129TIP3    H160802   2.576   5.172  15.070  0.9642  1.7294 -1.2601
13129TIP3    H260803   2.713   5.233  15.088  0.6775  1.5277  2.2117
13130TIP3   OH260804   4.590   1.423  15.155 -0.0641 -0.0393 -0.4592
13130TIP3    H160805   4.599   1.328  15.140  1.3205 -0.2199  1.2175
13130TIP3    H260806   4.668   1.461  15.116  0.5746  0.1184  0.9087
13131TIP3   OH260807   6.479   2.087  11.702  0.1189  0.3807  0.9602
13131TIP3    H160808   6.434   2.073  11.619 -1.0274 -0.2933  1.6577
13131TIP3    H260809   6.418   2.054  11.768  1.7221 -0.7322  1.9668
13132TIP3   OH260810   2.554   5.167  15.401  0.3110 -0.3427  0.5978
13132TIP3    H160811   2.462   5.185  15.384  0.0740 -0.6576  1.5036
13132TIP3    H260812   2.599   5.191  15.320 -0.8127 -2.0836 -0.6096
13133TIP3   OH260813   4.418   6.296  14.796  0.2222 -0.4247  0.4160
13133TIP3    H160814   4.340   6.255  14.836  0.0539  0.9769  1.6012
13133TIP3    H260815   4.491   6.267  14.851  0.0410  1.1947  1.5555
13134TIP3   OH260816   4.576   6.154   0.455  0.4693 -0.0535 -0.5223
13134TIP3    H160817   4.585   6.203   0.373  3.5975  2.6017  1.1535
13134TIP3    H260818   4.630   6.076   0.442 -0.4101 -0.5239 -1.4962
13135TIP3   OH260819   3.372   6.654  13.911 -0.2608  0.1042 -0.2415
13135TIP3    H160820   3.282   6.627  13.931  0.3975 -1.8742  0.2974
13135TIP3    H260821   3.384   6.629  13.819  0.2294 -1.1569  0.1485
13136TIP3   OH260822   1.344   5.618  14.781 -0.2977 -0.2536 -0.4470
13136TIP3    H160823   1.332   5.525  14.766 -2.3526  0.0330 -0.8856
13136TIP3    H260824   1.439   5.629  14.793 -0.0852 -2.4779  0.3653
13137TIP3   OH260825   4.938   4.233   4.877 -0.3099 -0.0466  0.1714
13137TIP3    H160826   4.857   4.272   4.844  0.4616  0.5330 -1.1139
13137TIP3    H260827   4.946   4.151   4.828 -0.7908 -0.7839  1.2798
13138TIP3   OH260828   2.927   4.541  16.839  0.6187 -0.2195 -0.5257
13138TIP3    H160829   2.904   4.614  16.782  1.9380  0.0444 -0.7610
13138TIP3    H260830   2.879   4.466  16.804  0.2482  0.2601 -1.0623
13139TIP3   OH260831   4.879   3.010  12.348 -0.1388  0.0661  0.3892
13139TIP3    H160832   4.867   3.064  12.270  0.7671 -0.5221 -0.1741
13139TIP3    H260833   4.974   3.006  12.359 -0.1858 -1.4201  0.4115
13140TIP3   OH260834   2.396   6.070  12.234  0.0910  0.0402  0.3854
13140TIP3    H160835   2.380   5.977  12.218 -1.3797 -0.2143  2.7629
13140TIP3    H260836   2.377   6.081  12.327  0.8162  2.6211  0.2918
13141TIP3   OH260837   0.459   5.702  14.238 -0.1837  0.5982  0.2505
13141TIP3    H160838   0.373   5.697  14.195  0.7863 -0.2712 -1.7247
13141TIP3    H260839   0.519   5.722  14.167  1.4124 -0.0161  1.3855
13142TIP3   OH260840   3.473   1.508  11.571 -0.1755 -0.0447  0.1565
13142TIP3    H160841   3.507   1.487  11.484 -0.8313  0.2205 -0.1705
13142TIP3    H260842   3.385   1.543  11.555 -0.9430 -1.4634  1.0304
13143TIP3   OH260843   3.720   4.775   3.295 -0.1482 -0.0077 -0.0062
13143TIP3    H160844   3.774   4.854   3.284 -0.2824 -0.0585 -1.0956
13143TIP3    H260845   3.750   4.716   3.226  0.5175 -1.2468  1.3155
13144TIP3   OH260846   5.586   2.747  12.917 -0.1172 -0.4027  0.0257
13144TIP3    H160847   5.550   2.760  12.829 -0.3313  1.2094  0.3212
13144TIP3    H260848   5.617   2.656  12.917 -0.5562 -0.5847 -1.5456
13145TIP3   OH260849   2.463   1.140  12.251 -0.0113  0.4862 -0.0375
13145TIP3    H160850   2.408   1.072  12.289  0.7344 -0.1326 -0.0377
13145TIP3    H260851   2.449   1.217  12.306 -1.0557  0.4079 -0.1885
13146TIP3   OH260852   2.963   0.566   1.671 -0.0538 -0.4948 -0.6948
13146TIP3    H160853   3.021   0.632   1.708  0.0841 -0.1303 -1.5258
13146TIP3    H260854   2.887   0.615   1.640 -0.2388 -0.8059 -0.7415
13147TIP3   OH260855   0.292   4.007  12.260 -0.6102  0.0423  0.1397
13147TIP3    H160856   0.336   3.949  12.197  1.1581  1.6737 -0.2247
13147TIP3    H260857   0.213   4.035  12.215 -0.7565 -0.9227 -0.2425
13148TIP3   OH260858   2.658   6.435  15.399  0.0652  0.2162 -0.1045
13148TIP3    H160859   2.710   6.499  15.350 -0.8306  1.3279  0.3612
13148TIP3    H260860   2.616   6.383  15.331 -0.2961  1.0381 -0.5299
13149TIP3   OH260861   0.986   0.965   5.571 -0.1738 -0.3786 -0.3091
13149TIP3    H160862   0.925   0.891   5.577 -0.4417 -0.1827 -0.6400
13149TIP3    H260863   1.072   0.924   5.565 -0.2491 -0.6541  0.3791
13150TIP3   OH260864   2.742   1.239  12.667 -0.0919  0.0699  0.5176
13150TIP3    H160865   2.701   1.211  12.748 -0.5045 -1.5003 -0.1906
13150TIP3    H260866   2.684   1.307  12.633 -0.6685 -0.2405  0.8620
13151TIP3   OH260867   3.181   0.284   2.124 -0.6496  0.8843 -0.2635
13151TIP3    H160868   3.236   0.363   2.115 -2.2381  2.3435  1.7947
13151TIP3    H260869   3.242   0.217   2.157  0.2571  2.0075  0.4616
13152TIP3   OH260870   0.398   4.266  15.519  0.0386  0.5056  0.1614
13152TIP3    H160871   0.352   4.236  15.596 -0.4840  0.0748 -0.3126
13152TIP3    H260872   0.329   4.284  15.455  0.5325 -0.8599 -0.8107
13153TIP3   OH260873   4.692   0.748   0.157 -0.0047 -0.2660  0.8362
13153TIP3    H160874   4.723   0.761   0.246 -1.1552 -1.3035  1.4225
13153TIP3    H260875   4.670   0.837   0.126 -0.2049  0.0373  1.8174
13154TIP3   OH260876   5.518   2.470   0.834 -0.5970  0.0755 -0.6881
13154TIP3    H160877   5.532   2.376   0.826 -2.2790 -0.1865 -1.0307
13154TIP3    H260878   5.538   2.505   0.747  2.2079  0.4227 -0.0076
13155TIP3   OH260879   6.646   5.390  12.894  0.0321 -0.3384 -0.1794
13155TIP3    H160880   6.657   5.484  12.883 -0.7289 -0.0691  1.0477
13155TIP3    H260881   6.679   5.373  12.983 -0.9539 -1.0024  0.0776
13156TIP3   OH260882   5.634   0.015  15.702  0.1407  0.4063  0.2060
13156TIP3    H160883   5.667  -0.075  15.712 -0.1866  0.1927 -0.5405
13156TIP3    H260884   5.617   0.045  15.791  0.3275 -0.2480  0.4659
13157TIP3   OH260885   3.348   0.659  12.972  0.0504  0.4975  0.1270
13157TIP3    H160886   3.430   0.618  12.999 -1.5041 -1.7956  1.7746
13157TIP3    H260887   3.362   0.685  12.881  2.4096 -0.2451  0.2281
13158TIP3   OH260888   2.436   6.217   2.138 -0.5722 -0.0921  0.3479
13158TIP3    H160889   2.413   6.210   2.046 -1.1375  2.1723  0.2473
13158TIP3    H260890   2.365   6.172   2.185 -1.1667  0.1971 -0.2649
13159TIP3   OH260891   2.180   3.079  15.591  0.5440 -0.7618  0.1265
13159TIP3    H160892   2.258   3.113  15.547  0.6359 -0.8932  0.1893
13159TIP3    H260893   2.107   3.122  15.546  0.6080 -1.3406 -0.5453
13160TIP3   OH260894   1.787   5.445  14.112 -0.9902  0.1275  0.1880
13160TIP3    H160895   1.831   5.427  14.030  2.7459 -1.6061  2.3032
13160TIP3    H260896   1.720   5.377  14.119  0.1520 -1.1039 -0.4856
13161TIP3   OH260897   6.239   2.283   0.926 -0.0312 -0.3040  0.0326
13161TIP3    H160898   6.225   2.276   0.831 -1.6343  0.5778  0.1651
13161TIP3    H260899   6.238   2.193   0.957 -0.9477 -0.5360 -0.6246
13162TIP3   OH260900   4.940   3.289   4.695 -0.3946  0.1097 -0.0524
13162TIP3    H160901   4.956   3.284   4.789  2.0729 -2.1490 -0.4741
13162TIP3    H260902   4.857   3.243   4.682 -1.4155  1.5444  1.0710
13163TIP3   OH260903   3.745   4.690   6.005  0.7166 -0.4238  0.6900
13163TIP3    H160904   3.800   4.729   5.937  0.5519  0.0970  0.8488
13163TIP3    H260905   3.674   4.753   6.018  0.3217 -0.8817  0.7983
13164TIP3   OH260906   6.551   2.962   1.152  0.3936 -0.5591  0.1202
13164TIP3    H160907   6.569   2.922   1.237  1.5763  0.0289  0.1652
13164TIP3    H260908   6.505   2.895   1.103 -1.7720 -0.3849  1.7557
13165TIP3   OH260909   6.330   0.783   2.248  0.4186 -0.5607 -0.2050
13165TIP3    H160910   6.406   0.728   2.230 -0.7215 -1.9934 -0.8014
13165TIP3    H260911   6.287   0.741   2.323 -1.1791 -1.2897 -1.4752
13166TIP3   OH260912   0.290   3.519  13.409 -0.2034  0.3225 -0.3229
13166TIP3    H160913   0.320   3.477  13.489  0.0209 -0.0221 -0.5828
13166TIP3    H260914   0.339   3.475  13.339  0.7939  1.7008 -0.5301
13167TIP3   OH260915   0.895   0.472  13.591 -0.5307  0.0970 -0.0482
13167TIP3    H160916   0.990   0.482  13.606 -0.6880  2.1726 -0.2329
13167TIP3    H260917   0.869   0.551  13.544 -2.2434 -0.8056 -0.7103
13168TIP3   OH260918   1.341   6.407  16.851  0.3290 -0.2441 -0.0420
13168TIP3    H160919   1.272   6.474  16.854  1.1711  0.6381 -0.1638
13168TIP3    H260920   1.303   6.337  16.799 -0.2754  0.4774 -0.6046
13169TIP3   OH260921   5.362   0.821   4.114  0.5874 -0.2603 -0.1561
13169TIP3    H160922   5.294   0.801   4.178  1.9964 -1.5141  1.0363
13169TIP3    H260923   5.418   0.885   4.158  0.5374  0.3008 -0.8835
13170TIP3   OH260924   5.048   2.912  16.102 -0.6546  0.3219 -0.2488
13170TIP3    H160925   4.995   2.975  16.055 -1.5866  0.1253  0.5032
13170TIP3    H260926   5.039   2.937  16.194 -1.3327 -1.0980  0.1002
13171TIP3   OH260927   3.856   6.227   0.486 -0.1576 -0.6022  0.1751
13171TIP3    H160928   3.876   6.151   0.542 -0.0002 -2.7684 -2.6109
13171TIP3    H260929   3.939   6.275   0.481 -0.0148 -0.6968  1.2534
13172TIP3   OH260930   4.034   0.850   1.704  0.7254  0.2009  0.1355
13172TIP3    H160931   3.957   0.873   1.652  1.2541 -1.2033 -1.3668
13172TIP3    H260932   4.006   0.860   1.795 -0.5755  1.6885 -0.3893
13173TIP3   OH260933   5.817   1.084  15.849  0.2117 -0.0996  0.7398
13173TIP3    H160934   5.837   1.133  15.769  0.2361  0.3010  0.9886
13173TIP3    H260935   5.752   1.020  15.822  0.7843 -0.4780  0.2270
13174TIP3   OH260936   1.596   1.291   4.007  0.4699  0.1706  0.4883
13174TIP3    H160937   1.636   1.289   3.920 -0.6977  1.2750 -0.1162
13174TIP3    H260938   1.618   1.378   4.041  1.1476 -0.3555  1.4184
13175TIP3   OH260939   5.448   3.885   3.026 -0.2915 -0.1822 -0.5271
13175TIP3    H160940   5.411   3.800   3.049 -0.1263 -0.1339 -0.0859
13175TIP3    H260941   5.543   3.872   3.032 -0.2569 -0.0608 -0.7946
13176TIP3   OH260942   2.220   2.015   0.275  0.1557  0.1996 -0.0445
13176TIP3    H160943   2.125   2.019   0.262  0.2429  0.9078 -0.5592
13176TIP3    H260944   2.237   2.071   0.351  0.1976  0.3936 -0.1951
13177TIP3   OH260945   0.311   0.306   5.056  0.4575 -0.1777 -0.4353
13177TIP3    H160946   0.253   0.364   5.007  0.6119  0.3697  0.0192
13177TIP3    H260947   0.381   0.364   5.088  1.4885 -0.8837 -1.3218
13178TIP3   OH260948   6.527   5.880  15.444 -0.1055 -0.0471  0.2309
13178TIP3    H160949   6.512   5.793  15.481  0.4410 -0.2673 -0.0583
13178TIP3    H260950   6.547   5.935  15.520  2.8960 -0.8852  0.1818
13179TIP3   OH260951   3.867   0.978   4.935  0.0915 -0.3111 -0.0401
13179TIP3    H160952   3.909   0.900   4.897  2.5373  2.2434 -3.2713
13179TIP3    H260953   3.922   1.000   5.010  1.4591  0.0301 -1.0887
13180TIP3   OH260954   3.494   4.891   1.500  0.3153 -0.0757 -0.4968
13180TIP3    H160955   3.476   4.811   1.548  3.4802 -2.0430 -2.2847
13180TIP3    H260956   3.407   4.925   1.477 -1.1842 -1.3983  2.6182
13181TIP3   OH260957   2.351   4.636  14.594 -0.3487  0.5308  0.2246
13181TIP3    H160958   2.309   4.693  14.530 -1.8735  0.2459  0.9195
13181TIP3    H260959   2.381   4.695  14.663 -0.5882  0.6308  0.2424
13182TIP3   OH260960   4.650   3.118  11.091  0.0042  0.3290  0.2663
13182TIP3    H160961   4.712   3.147  11.158  1.2912  0.8689 -1.0950
13182TIP3    H260962   4.617   3.199  11.053 -1.7741  0.0533  1.1324
13183TIP3   OH260963   0.878   6.334  11.857 -0.4285 -0.0660 -0.5262
13183TIP3    H160964   0.837   6.270  11.799  0.6044  0.2607 -1.6634
13183TIP3    H260965   0.971   6.329  11.836 -0.0918  0.3990  0.7974
13184TIP3   OH260966   5.158   0.631  16.305  0.1227  0.2049 -1.0722
13184TIP3    H160967   5.192   0.574  16.374 -1.1046 -1.0788 -1.4917
13184TIP3    H260968   5.219   0.620  16.232 -0.9368 -1.8772 -1.7249
13185TIP3   OH260969   1.365   4.312   2.274 -0.3550  0.0289 -0.7805
13185TIP3    H160970   1.289   4.342   2.224 -0.6756 -0.1400 -0.3988
13185TIP3    H260971   1.373   4.374   2.346  1.0033  1.1541 -1.8391
13186TIP3   OH260972   6.584   1.726  12.822 -0.5589  0.5486 -0.3729
13186TIP3    H160973   6.608   1.715  12.730 -1.2908 -0.2918 -0.4828
13186TIP3    H260974   6.513   1.790  12.821 -1.2497 -0.2063 -0.5097
13187TIP3   OH260975   3.169   5.490  14.067 -0.0533  0.1266 -0.4528
13187TIP3    H160976   3.252   5.444  14.058  0.1754  0.2358  0.9007
13187TIP3    H260977   3.103   5.425  14.042  0.3000 -0.7966  0.8973
13188TIP3   OH260978   2.050   1.134   4.901  0.3988 -0.4933  0.3175
13188TIP3    H160979   1.979   1.070   4.904  0.7083 -0.8028  1.2241
13188TIP3    H260980   2.129   1.084   4.922  0.3852  0.5226  3.2750
13189TIP3   OH260981   0.717   6.002   0.346 -0.2367 -0.3920  0.3357
13189TIP3    H160982   0.764   5.923   0.370 -0.0150 -0.1804  0.6004
13189TIP3    H260983   0.625   5.976   0.347 -0.1541 -0.6881  0.2591
13190TIP3   OH260984   6.047   3.964   3.515 -0.6873 -0.0313  0.3779
13190TIP3    H160985   6.087   3.973   3.428  0.0637 -2.5432  0.3827
13190TIP3    H260986   6.077   4.042   3.562  0.5666  0.3779 -0.9926
13191TIP3   OH260987   2.942   5.850   5.092 -0.2443 -0.7301  0.3393
13191TIP3    H160988   2.993   5.854   5.012  0.0395  1.2705  0.5458
13191TIP3    H260989   2.987   5.786   5.147  1.3155  0.0183  0.0006
13192TIP3   OH260990   1.056   5.945   4.787  0.7422 -0.3351  0.4649
13192TIP3    H160991   1.029   6.027   4.828 -0.8278 -1.1621  1.1714
13192TIP3    H260992   1.039   5.878   4.854  2.6664 -1.1871  0.1780
13193TIP3   OH260993   3.682   2.833   2.863  0.1257 -0.3533  0.0832
13193TIP3    H160994   3.654   2.860   2.775  3.1254 -0.3520 -0.9710
13193TIP3    H260995   3.647   2.745   2.873 -1.2975  0.1014 -0.5591
13194TIP3   OH260996   0.303   0.449   1.553  0.4947  0.5019  0.4904
13194TIP3    H160997   0.255   0.517   1.600  1.5845  1.9495 -0.4074
13194TIP3    H260998   0.240   0.377   1.544 -1.2664  2.0350 -0.0021
13195TIP3   OH260999   5.439   5.164  16.329 -0.2975 -0.5467  0.1728
13195TIP3    H161000   5.367   5.221  16.356  0.4335  1.2544 -1.5105
13195TIP3    H261001   5.396   5.087  16.291 -1.2915 -1.2173  2.4522
13196TIP3   OH261002   0.379   5.976  14.682  0.1374 -0.3723  0.0271
13196TIP3    H161003   0.305   5.984  14.742  0.2504 -1.6809  0.3674
13196TIP3    H261004   0.409   6.066  14.669 -0.8914  0.0804  0.6630
13197TIP3   OH261005   3.557   3.094   3.496  0.3387 -0.4141 -0.0201
13197TIP3    H161006   3.619   3.021   3.492 -0.3374 -1.0060  0.0519
13197TIP3    H261007   3.480   3.062   3.450 -0.0472  0.1831  0.2014
13198TIP3   OH261008   1.033   5.302   4.277 -0.1733 -0.5903 -0.6180
13198TIP3    H161009   0.978   5.252   4.217  0.7367 -3.4025  0.7102
13198TIP3    H261010   0.986   5.299   4.360  1.2156 -1.8159  0.1781
13199TIP3   OH261011   5.001   2.770  16.717 -0.4498 -0.3053  0.0329
13199TIP3    H161012   5.042   2.712  16.653 -1.2387 -0.7906 -0.0448
13199TIP3    H261013   4.963   2.711  16.782 -1.9721  0.0622 -0.4784
13200TIP3   OH261014   1.957   2.624   4.858  0.4287  0.1645  0.2526
13200TIP3    H161015   2.018   2.669   4.916 -0.3731  0.6841  0.7090
13200TIP3    H261016   1.934   2.544   4.905 -0.8770  0.9859  1.0735
13201TIP3   OH261017   5.314   5.923  14.098 -0.1795 -0.7653  0.2963
13201TIP3    H161018   5.274   5.966  14.174  2.4440  2.9891 -0.2006
13201TIP3    H261019   5.272   5.963  14.022  1.2251 -0.1531 -0.1907
13202TIP3   OH261020   3.568   6.066   1.925 -0.2947 -0.4928  0.2592
13202TIP3    H161021   3.516   6.008   1.869 -2.2548  1.1014  0.3239
13202TIP3    H261022   3.649   6.079   1.876  0.3623 -3.3985  0.3530
13203TIP3   OH261023   2.679   0.533  16.837  0.2311  0.5255  0.4086
13203TIP3    H161024   2.615   0.578  16.781 -0.2950  0.7996  1.2059
13203TIP3    H261025   2.682   0.444  16.803 -0.2895  0.6137  0.1165
13204TIP3   OH261026   6.587   6.679  12.382 -0.5193 -0.1168 -0.6759
13204TIP3    H161027   6.595   6.584  12.384  2.2372  0.0429 -1.0459
13204TIP3    H261028   6.549   6.698  12.296 -3.5038 -0.9090  0.3412
13205TIP3   OH261029   0.185   6.633   1.419  0.1843  0.3573 -0.5162
13205TIP3    H161030   0.234   6.701   1.466 -0.5848  1.6068 -1.4514
13205TIP3    H261031   0.214   6.641   1.328 -1.9993  1.4574 -1.2018
13206TIP3   OH261032   6.269   1.370   5.802  0.2550 -0.0828 -0.1992
13206TIP3    H161033   6.220   1.300   5.844 -0.0603  0.0277 -0.3768
13206TIP3    H261034   6.228   1.380   5.716 -0.1634  0.7916  0.0858
13207TIP3   OH261035   4.231   5.962  15.848 -0.5515 -1.0351 -0.3515
13207TIP3    H161036   4.158   6.011  15.885  0.3715  0.6735 -0.7130
13207TIP3    H261037   4.256   6.011  15.770 -0.0124 -2.4732 -1.1129
13208TIP3   OH261038   3.693   6.630   0.046 -0.4558  0.0902 -0.0679
13208TIP3    H161039   3.729   6.555  -0.001 -0.1273  1.2886 -1.8459
13208TIP3    H261040   3.752   6.642   0.121  1.1011  0.1710 -1.2529
13209TIP3   OH261041   3.629   4.130   5.873 -0.6448 -0.2796 -0.5354
13209TIP3    H161042   3.700   4.187   5.843  0.0929 -0.5346  0.6760
13209TIP3    H261043   3.549   4.175   5.846 -0.0714  1.0582 -0.0820
13210TIP3   OH261044   0.149   4.554  13.166 -0.3346  0.4475 -0.3423
13210TIP3    H161045   0.053   4.558  13.162 -0.3404  1.7391  0.3593
13210TIP3    H261046   0.176   4.552  13.075 -1.0584 -3.0295 -0.5974
13211TIP3   OH261047   0.740   4.619   3.260 -0.3142 -0.0042 -0.1275
13211TIP3    H161048   0.690   4.701   3.266  0.7276  0.5458  2.1206
13211TIP3    H261049   0.808   4.638   3.196 -1.4509  0.0778 -1.3518
13212TIP3   OH261050   1.657   1.738   1.726 -0.4823 -0.1857  0.2243
13212TIP3    H161051   1.752   1.727   1.723 -0.4113  0.5172 -2.2971
13212TIP3    H261052   1.626   1.708   1.641 -2.4254  0.5908  0.5869
13213TIP3   OH261053   0.564   5.312   3.471 -0.4702  0.5938 -0.2176
13213TIP3    H161054   0.541   5.377   3.405 -0.0645  0.6410 -0.3159
13213TIP3    H261055   0.653   5.336   3.498 -0.0662 -0.2943 -0.7141
13214TIP3   OH261056   2.867   3.231   0.514  0.0737 -0.2417  0.2428
13214TIP3    H161057   2.906   3.316   0.529  0.7073 -0.7096  1.3375
13214TIP3    H261058   2.894   3.207   0.425  1.6512 -0.2048  0.6837
13215TIP3   OH261059   0.094   5.841   1.594  0.7426 -0.1010 -0.3377
13215TIP3    H161060   0.104   5.797   1.678  1.0011 -0.3670 -0.5056
13215TIP3    H261061   0.077   5.933   1.616  0.0398 -0.3131  0.0172
13216TIP3   OH261062   4.013   5.867   2.566  0.8665 -0.6533  0.2779
13216TIP3    H161063   3.992   5.811   2.640 -0.6180 -0.2124  0.2316
13216TIP3    H261064   4.055   5.944   2.605  0.6660 -0.7078  0.6032
13217TIP3   OH261065   5.403   1.391  12.199  0.2434  0.1121 -0.0816
13217TIP3    H161066   5.437   1.302  12.193 -0.0486 -0.1615  1.8039
13217TIP3    H261067   5.355   1.404  12.117  1.6689 -0.8493 -1.1130
13218TIP3   OH261068   4.783   6.527  14.658  0.5026 -0.1621 -0.2938
13218TIP3    H161069   4.737   6.560  14.735  0.7730 -1.0253  0.2573
13218TIP3    H261070   4.845   6.596  14.635 -0.7938  0.8555 -0.8309
13219TIP3   OH261071   4.043   3.495   4.006  0.3731  0.6181 -0.1963
13219TIP3    H161072   3.960   3.488   3.959  0.1433  1.1135  0.1263
13219TIP3    H261073   4.109   3.468   3.942 -0.0337  0.2372 -0.4615
13220TIP3   OH261074   2.773   4.756   3.396  0.3583 -0.6903  0.5328
13220TIP3    H161075   2.783   4.850   3.381 -0.0955 -0.6409  0.5145
13220TIP3    H261076   2.721   4.725   3.322  2.3858 -1.3843 -0.6797
13221TIP3   OH261077   5.340   2.930  16.143  0.4024 -0.0213 -0.1825
13221TIP3    H161078   5.346   3.008  16.088 -0.7508 -0.4757 -1.0066
13221TIP3    H261079   5.246   2.916  16.153  0.4969  0.8753  3.1667
13222TIP3   OH261080   5.122   2.643  12.577  0.4635  0.3520  0.3730
13222TIP3    H161081   5.060   2.585  12.620  1.5549  0.1723  1.8052
13222TIP3    H261082   5.080   2.669  12.496 -0.7238 -1.1546  0.4822
13223TIP3   OH261083   2.018   3.024  15.151 -0.5058 -0.5654  0.3970
13223TIP3    H161084   2.070   2.950  15.183  0.0964 -0.3718 -0.1061
13223TIP3    H261085   2.020   3.087  15.224  1.0105 -0.0523 -0.0363
13224TIP3   OH261086   4.830   1.979  12.111  0.3288  0.6177  1.1038
13224TIP3    H161087   4.742   2.008  12.132  0.0119 -0.2683  1.0277
13224TIP3    H261088   4.885   2.018  12.180  0.1554  2.6272  0.1543
13225TIP3   OH261089   0.122   4.471  12.193 -0.7244 -0.1171 -0.3918
13225TIP3    H161090   0.179   4.475  12.116 -0.2845  2.2247  0.0014
13225TIP3    H261091   0.130   4.380  12.223  1.6913 -0.2284 -1.1652
13226TIP3   OH261092   2.206   2.371  12.440  0.5801  0.3397 -0.1365
13226TIP3    H161093   2.115   2.384  12.469  0.4818 -2.2107  1.0017
13226TIP3    H261094   2.257   2.431  12.493 -0.4535  2.3061 -1.2704
13227TIP3   OH261095   1.172   5.577  13.162 -0.1625  0.0503 -0.0447
13227TIP3    H161096   1.133   5.538  13.240  0.3597 -1.0542 -0.3128
13227TIP3    H261097   1.146   5.520  13.090 -1.6171  1.7124 -0.8947
13228TIP3   OH261098   4.047   0.850  16.436  0.1241  0.0850 -0.1650
13228TIP3    H161099   4.097   0.879  16.513 -0.1120  0.2550 -0.0735
13228TIP3    H261100   3.965   0.899  16.441  0.2376  0.3351 -0.7033
13229TIP3   OH261101   2.829   4.713  12.885  0.4562 -0.2787  0.0035
13229TIP3    H161102   2.734   4.713  12.876  0.4476 -3.8582 -1.2596
13229TIP3    H261103   2.859   4.775  12.819 -0.9265  2.0520  1.4100
13230TIP3   OH261104   1.642   3.573  12.779  0.0428  0.5479  0.0100
13230TIP3    H161105   1.551   3.588  12.806 -0.7360  0.0754 -2.1678
13230TIP3    H261106   1.636   3.508  12.709  1.8375  2.0072 -1.6214
13231TIP3   OH261107   0.529   1.025  11.948 -0.0187  0.0956 -0.1023
13231TIP3    H161108   0.480   0.956  11.993  0.1953  0.7463  1.1703
13231TIP3    H261109   0.520   1.102  12.004 -0.3525  1.1556 -1.5463
13232TIP3   OH261110   4.698   3.320  14.878 -0.3425 -0.4198 -0.8169
13232TIP3    H161111   4.706   3.270  14.959 -0.1168  0.9864  0.0671
13232TIP3    H261112   4.651   3.262  14.819 -1.7410 -0.9751  0.7553
13233TIP3   OH261113   5.449   6.001   5.098 -0.4674 -0.1190  0.3443
13233TIP3    H161114   5.497   6.009   5.180  0.6886 -1.1188 -0.1986
13233TIP3    H261115   5.453   6.088   5.059  0.2121  0.0141  0.6931
13234TIP3   OH261116   3.009   3.521  15.440  0.2860 -0.2154  0.1307
13234TIP3    H161117   3.046   3.453  15.497 -0.1609 -0.0813  0.5827
13234TIP3    H261118   2.963   3.472  15.371  1.7188 -0.3946 -0.7365
13235TIP3   OH261119   2.018   3.352   1.334  0.8589 -0.2422 -0.1624
13235TIP3    H161120   2.107   3.317   1.343  1.1627  0.4545 -0.3965
13235TIP3    H261121   1.983   3.309   1.256  2.0888  1.6706 -1.8945
13236TIP3   OH261122   0.318   2.581   4.526  0.0494 -0.2758  0.5272
13236TIP3    H161123   0.254   2.511   4.539  0.6575 -0.4726  2.8766
13236TIP3    H261124   0.267   2.662   4.536 -0.5748 -0.3175 -1.7947
13237TIP3   OH261125   4.139   1.145  11.503  0.0226 -0.1916 -0.1208
13237TIP3    H161126   4.191   1.181  11.432 -0.4409 -0.6942 -0.7236
13237TIP3    H261127   4.199   1.088  11.550  0.3733  0.2629 -0.0091
13238TIP3   OH261128   6.661   1.126  12.810  0.2329 -0.0804 -0.1112
13238TIP3    H161129   6.628   1.204  12.765 -1.5090 -1.0799 -0.6843
13238TIP3    H261130   6.742   1.105  12.765  0.9392  1.5961  0.3018
13239TIP3   OH261131   5.871   0.015  17.174  0.2976 -0.2538  0.5673
13239TIP3    H161132   5.829   0.047  17.093  0.3730 -0.2020  0.5492
13239TIP3    H261133   5.958   0.056  17.173  0.4603 -0.5991  0.4540
13240TIP3   OH261134   1.908   5.946  14.726  0.4273 -0.1395  0.4819
13240TIP3    H161135   1.914   5.981  14.815 -0.9699  0.5883  0.3169
13240TIP3    H261136   1.925   6.022  14.670 -1.6750  0.1311  0.1284
13241TIP3   OH261137   3.397   6.214  16.313  0.5294  0.0366  0.5415
13241TIP3    H161138   3.338   6.289  16.321  0.4146 -0.2353  2.5529
13241TIP3    H261139   3.485   6.253  16.310  0.4758  0.2683  1.6538
13242TIP3   OH261140   6.472   0.929   4.450 -0.1643 -0.0265 -0.1472
13242TIP3    H161141   6.502   0.885   4.371  0.1149  0.1999 -0.1672
13242TIP3    H261142   6.378   0.912   4.453  0.1360 -1.8017  0.5594
13243TIP3   OH261143   5.595   0.983  10.434  0.1444 -0.2898  0.0792
13243TIP3    H161144   5.582   0.951  10.523  2.6886  0.5145  0.8310
13243TIP3    H261145   5.649   0.916  10.392 -0.9568 -0.6201 -0.8765
13244TIP3   OH261146   1.570   4.870   5.929  0.0354 -0.6939  0.4187
13244TIP3    H161147   1.514   4.937   5.890  1.5663  0.6656  0.4546
13244TIP3    H261148   1.601   4.818   5.855 -0.8635 -1.1452  0.3510
13245TIP3   OH261149   2.464   0.405   5.665  0.0693 -0.2252  0.5447
13245TIP3    H161150   2.441   0.413   5.572 -0.1892 -0.7176  0.5648
13245TIP3    H261151   2.543   0.352   5.665  0.1250 -0.1426  0.6030
13246TIP3   OH261152   5.708   2.534   6.255  0.0872  0.1749 -0.2307
13246TIP3    H161153   5.639   2.596   6.277  0.4218  0.5718 -0.2772
13246TIP3    H261154   5.773   2.587   6.209  0.5787 -0.1180  0.1160
13247TIP3   OH261155   6.279   5.958   6.809  0.0387  0.2952 -0.5016
13247TIP3    H161156   6.360   5.912   6.832  0.1252  1.1130  0.9789
13247TIP3    H261157   6.209   5.896   6.827  0.3063 -0.3245 -1.5351
13248TIP3   OH261158   3.496   3.769  10.637  0.1453  0.3141 -0.2733
13248TIP3    H161159   3.510   3.780  10.543 -0.8156  3.6784 -0.1379
13248TIP3    H261160   3.538   3.845  10.677 -2.6415  1.0047  1.6420
13249TIP3   OH261161   2.421   5.661  14.597  0.1933  0.1016 -0.0222
13249TIP3    H161162   2.440   5.601  14.670 -0.1219  0.6364  0.5079
13249TIP3    H261163   2.384   5.738  14.639  0.8238  0.7724 -0.6825
13250TIP3   OH261164   3.554   5.005   4.075 -0.5837 -0.4555  0.3578
13250TIP3    H161165   3.568   4.989   3.981  0.8650  0.5394  0.3702
13250TIP3    H261166   3.473   5.056   4.078 -1.3226 -1.5456 -0.2315
13251TIP3   OH261167   6.125   3.818   4.619  0.3192 -0.0241  0.4001
13251TIP3    H161168   6.078   3.739   4.592  0.2265 -0.4728  1.7931
13251TIP3    H261169   6.057   3.878   4.648  0.4153  0.4614 -0.3386
13252TIP3   OH261170   3.812   4.609   3.093 -0.2761  0.1407  0.0156
13252TIP3    H161171   3.902   4.641   3.100 -0.3752  0.2834  0.8409
13252TIP3    H261172   3.775   4.658   3.020  0.7619 -1.0506 -1.3466
13253TIP3   OH261173   5.654   3.166  16.579 -0.4996  0.6746 -0.3221
13253TIP3    H161174   5.726   3.209  16.532  0.0212 -0.4329 -0.5834
13253TIP3    H261175   5.633   3.225  16.651  1.2012  0.6744  0.2219
13254TIP3   OH261176   2.889   5.550   0.689 -0.1065  0.1722 -0.6398
13254TIP3    H161177   2.860   5.601   0.614 -0.7730  0.5820 -0.1164
13254TIP3    H261178   2.850   5.595   0.765  2.1458  0.9600  0.1397
13255TIP3   OH261179   3.496   3.591  12.328  0.1848 -0.3720 -0.1505
13255TIP3    H161180   3.492   3.646  12.250  1.7295 -0.1629 -0.1056
13255TIP3    H261181   3.407   3.557  12.338 -0.9222  2.2524 -0.0639
13256TIP3   OH261182   1.515   3.738  15.977 -0.3307  0.1004  0.1728
13256TIP3    H161183   1.552   3.761  16.063  0.4605  0.8025 -0.3424
13256TIP3    H261184   1.500   3.822  15.934 -2.2558 -0.1692  0.2179
13257TIP3   OH261185   5.578   0.608   3.195  0.2521 -0.6402 -0.5235
13257TIP3    H161186   5.482   0.616   3.202  0.3403  0.4335 -0.3543
13257TIP3    H261187   5.605   0.685   3.145  1.0367 -0.9088 -0.5259
13258TIP3   OH261188   3.692   1.235  12.558  0.2108 -0.0421 -0.5686
13258TIP3    H161189   3.697   1.161  12.497 -2.0136  0.9744 -2.1119
13258TIP3    H261190   3.626   1.293  12.520 -1.5372  0.5339  2.9351
13259TIP3   OH261191   5.564   5.502  15.824  0.7058  0.1980 -0.4068
13259TIP3    H161192   5.504   5.435  15.792 -0.0927  1.3136 -1.3337
13259TIP3    H261193   5.602   5.540  15.745 -1.5300  3.2073 -0.2144
13260TIP3   OH261194   2.031   3.795  14.908 -0.8810  0.1854  0.1468
13260TIP3    H161195   1.997   3.820  14.993  1.1912 -0.7838  1.3416
13260TIP3    H261196   1.981   3.717  14.883 -0.1307 -0.7695  1.5010
13261TIP3   OH261197   1.885   6.536  16.424 -0.3175  0.0660  0.0727
13261TIP3    H161198   1.885   6.508  16.333 -0.4603 -1.6670  0.5739
13261TIP3    H261199   1.817   6.483  16.466 -3.7289  4.1056  0.3227
13262TIP3   OH261200   4.949   6.241   3.513 -0.1016 -0.0348 -0.4285
13262TIP3    H161201   4.957   6.217   3.420  1.1779 -0.5776 -0.2005
13262TIP3    H261202   4.930   6.335   3.511  0.6673  0.1278 -1.2521
13263TIP3   OH261203   3.904   0.649   0.217 -0.6527  0.5762  0.2797
13263TIP3    H161204   3.867   0.560   0.211  1.7994 -0.5630  0.8173
13263TIP3    H261205   3.837   0.705   0.177 -2.2501 -1.4970 -0.1744
13264TIP3   OH261206   2.514   6.085   4.506  0.0075 -0.0647 -0.2104
13264TIP3    H161207   2.537   6.018   4.571 -0.2776  0.6958  0.6930
13264TIP3    H261208   2.597   6.129   4.487  0.2190 -0.7412 -0.9009
13265TIP3   OH261209   2.086   5.549   6.213  0.3847 -0.3214 -0.4241
13265TIP3    H161210   2.029   5.543   6.137  0.4672 -0.8999 -0.4499
13265TIP3    H261211   2.171   5.520   6.181  1.5202  3.3429 -1.1647
13266TIP3   OH261212   5.569   2.958  10.941  0.1596 -0.2359 -0.5243
13266TIP3    H161213   5.585   3.048  10.971 -0.5519 -0.6732  1.2163
13266TIP3    H261214   5.475   2.945  10.952 -0.6693  0.2221 -4.9396
13267TIP3   OH261215   1.401   1.231   5.698  0.2108  0.1702 -0.0371
13267TIP3    H161216   1.435   1.301   5.642 -0.2690  1.3723  1.1211
13267TIP3    H261217   1.326   1.271   5.743 -0.3623 -1.2398  0.3164
13268TIP3   OH261218   0.757   1.049  12.705 -0.7301  0.4325 -0.1048
13268TIP3    H161219   0.717   1.051  12.619 -0.4854  0.5437 -0.2169
13268TIP3    H261220   0.799   0.964  12.710  1.5866  1.4276 -1.1719
13269TIP3   OH261221   0.451   6.692  15.973 -0.0090  0.5231  0.0922
13269TIP3    H161222   0.507   6.656  15.904 -1.0060  1.3860 -1.2425
13269TIP3    H261223   0.366   6.703  15.930 -0.2592  2.5684  1.0016
13270TIP3   OH261224   3.612   1.192  15.792  0.0898 -0.3511  0.1930
13270TIP3    H161225   3.688   1.133  15.799  0.3042 -0.1580 -0.4192
13270TIP3    H261226   3.611   1.218  15.700  0.2015  0.8793  0.5278
13271TIP3   OH261227   6.136   3.065  16.421  0.8780 -0.2352  0.3236
13271TIP3    H161228   6.057   3.043  16.371  1.0666  1.1780 -0.6625
13271TIP3    H261229   6.119   3.030  16.509 -1.6047  1.4297  0.6450
13272TIP3   OH261230   3.334   0.664  12.664 -0.3981  0.5638 -0.2258
13272TIP3    H161231   3.245   0.694  12.680 -0.3791  0.6178 -0.2212
13272TIP3    H261232   3.324   0.580  12.620 -0.4488  0.3515  0.1904
13273TIP3   OH261233   0.738   0.767   0.907 -0.2896  0.2923 -0.1962
13273TIP3    H161234   0.706   0.826   0.977 -0.4590 -0.1870  0.1356
13273TIP3    H261235   0.801   0.711   0.951  0.8532  1.0736 -0.8038
13274TIP3   OH261236   4.721   5.579   3.145  0.0965 -0.0589 -0.5273
13274TIP3    H161237   4.766   5.519   3.086  1.1595  0.1564  0.0401
13274TIP3    H261238   4.790   5.635   3.180 -0.7865  1.0659 -0.5330
13275TIP3   OH261239   5.967   2.330   0.399  0.6909 -0.4750  0.3167
13275TIP3    H161240   5.939   2.407   0.351 -1.1384 -0.4864  1.2663
13275TIP3    H261241   5.920   2.257   0.358 -0.1282 -0.6108  1.4301
13276TIP3   OH261242   5.009   2.965  11.609 -0.4612 -0.5977  0.0173
13276TIP3    H161243   5.007   2.978  11.514  2.8743 -1.1290 -0.2394
13276TIP3    H261244   5.026   3.052  11.645  2.4201 -0.9314 -0.2856
13277TIP3   OH261245   5.712   0.019   4.328  0.2346 -0.3903  0.1151
13277TIP3    H161246   5.806   0.009   4.339  0.3887  0.8635 -0.0012
13277TIP3    H261247   5.699   0.025   4.233  0.5597  3.6694  0.1639
13278TIP3   OH261248   5.436   5.638  12.827  0.4378  0.0795  0.0133
13278TIP3    H161249   5.377   5.614  12.898  1.1490  1.5912  1.1764
13278TIP3    H261250   5.492   5.706  12.864  3.2909 -1.6268 -0.8207
13279TIP3   OH261251   3.328   0.477   2.438  0.0790  0.1482  0.4696
13279TIP3    H161252   3.293   0.546   2.495 -0.2863 -0.7291  1.3152
13279TIP3    H261253   3.273   0.401   2.455  0.1861 -0.2358 -0.8051
13280TIP3   OH261254   4.612   5.774  15.799 -0.2376  0.0706 -0.0072
13280TIP3    H161255   4.597   5.828  15.877 -0.1324  2.0428 -1.3092
13280TIP3    H261256   4.705   5.783  15.781 -0.3244 -0.1159 -0.5560
13281TIP3   OH261257   3.650   6.408   3.491 -0.0259 -0.5810 -0.3876
13281TIP3    H161258   3.633   6.454   3.409 -0.0225 -0.8963 -0.5653
13281TIP3    H261259   3.737   6.370   3.480  1.4634  2.0938  0.9876
13282TIP3   OH261260   0.850   3.449   3.886  0.3627  0.1155 -0.4353
13282TIP3    H161261   0.774   3.473   3.833  0.3797  1.2462  0.0415
13282TIP3    H261262   0.899   3.388   3.830 -1.2936 -1.3085 -0.4263
13283TIP3   OH261263   6.617   2.632  13.825 -0.7603 -0.1532  0.3100
13283TIP3    H161264   6.622   2.571  13.899 -0.4771  1.9245  2.0734
13283TIP3    H261265   6.698   2.682  13.829 -1.0402  0.4563 -1.0176
13284TIP3   OH261266   2.608   2.997   4.520 -0.2168 -0.3327  0.2228
13284TIP3    H161267   2.532   2.969   4.571 -0.5264 -1.2984 -0.7330
13284TIP3    H261268   2.656   2.917   4.502  0.2400  0.0773 -0.4207
13285TIP3   OH261269   3.123   3.904  11.963  0.5120  0.1972  0.0334
13285TIP3    H161270   3.081   3.832  12.010  1.9465 -1.0993 -0.5594
13285TIP3    H261271   3.175   3.860  11.895  0.7835  1.8564 -0.8681
13286TIP3   OH261272   5.603   3.249  14.708  0.5106 -0.3598  0.0633
13286TIP3    H161273   5.687   3.208  14.686  0.0533 -0.7092 -1.1222
13286TIP3    H261274   5.623   3.342  14.719  1.1705 -0.5498  0.5358
13287TIP3   OH261275   2.753   3.585  13.920  0.5869  0.0128  0.7344
13287TIP3    H161276   2.751   3.679  13.904 -3.0550 -0.1493 -0.7888
13287TIP3    H261277   2.679   3.570  13.979 -0.4218 -2.0946 -0.9506
13288TIP3   OH261278   5.255   5.921  10.823 -0.4502  0.2640  0.3768
13288TIP3    H161279   5.206   5.956  10.749  1.8126 -0.0379 -1.3760
13288TIP3    H261280   5.314   5.993  10.848  1.7555 -0.9645 -0.9567
13289TIP3   OH261281   0.562   1.584   6.224 -0.5058 -0.1773  0.2244
13289TIP3    H161282   0.540   1.671   6.257 -0.1489 -0.1179  0.3162
13289TIP3    H261283   0.481   1.551   6.186 -0.1215  1.0744 -1.8153
13290TIP3   OH261284   6.551   3.772  13.068  0.3320 -0.3108  0.4559
13290TIP3    H161285   6.597   3.770  13.152  0.0377 -1.2654  0.6058
13290TIP3    H261286   6.619   3.755  13.003  0.7935  1.6145  0.3581
13291TIP3   OH261287   2.911   0.899   4.580 -0.1960 -0.2941 -0.5755
13291TIP3    H161288   2.934   0.989   4.557 -2.4070 -0.1654 -2.6866
13291TIP3    H261289   2.831   0.908   4.633  0.5023 -0.9714  0.6184
13292TIP3   OH261290   3.690   3.495  15.026  0.1745 -0.0974  0.6960
13292TIP3    H161291   3.633   3.509  14.950  0.5574 -0.9468  0.2413
13292TIP3    H261292   3.651   3.549  15.095 -1.4539 -1.0053  0.5368
13293TIP3   OH261293   2.610   0.928   0.519 -0.6577 -0.4992  0.1019
13293TIP3    H161294   2.616   0.840   0.483 -1.8085 -0.0296 -1.3694
13293TIP3    H261295   2.541   0.923   0.585  2.2856 -1.6508  3.4015
13294TIP3   OH261296   4.831   1.252  15.315  0.3002  0.2434  0.5018
13294TIP3    H161297   4.743   1.268  15.349  0.4235  0.8239  0.5586
13294TIP3    H261298   4.882   1.327  15.345  0.6171  0.3289 -0.2328
13295TIP3   OH261299   6.022   1.292  12.438 -0.1498 -0.0477  0.3314
13295TIP3    H161300   5.953   1.356  12.419  1.4895  0.9711 -3.1511
13295TIP3    H261301   6.011   1.224  12.371  1.9545  0.0099 -0.1706
13296TIP3   OH261302   6.530   1.663   0.148  0.1412 -0.4943 -0.3247
13296TIP3    H161303   6.534   1.757   0.130  0.7735 -0.2876  0.8404
13296TIP3    H261304   6.527   1.623   0.061  0.4716  0.5725 -0.8520
13297TIP3   OH261305   2.886   6.058   3.166 -0.0532  0.5065  0.0501
13297TIP3    H161306   2.977   6.057   3.196  0.9633  1.9123 -2.6388
13297TIP3    H261307   2.884   6.000   3.090 -1.3336  0.6848 -0.0854
13298TIP3   OH261308   0.315   0.751  10.260  0.4581  0.3587  0.7125
13298TIP3    H161309   0.321   0.828  10.203 -1.5695  0.5478  0.6924
13298TIP3    H261310   0.230   0.712  10.240  0.0169 -0.0340  3.0075
13299TIP3   OH261311   1.740   1.132  14.175  0.2687 -0.4339 -0.2198
13299TIP3    H161312   1.806   1.079  14.220  0.3189  1.2994  1.8983
13299TIP3    H261313   1.769   1.222  14.187 -0.1127  0.2010 -3.2441
13300TIP3   OH261314   4.087   0.749   3.113 -0.1657 -0.0718  0.1945
13300TIP3    H161315   3.997   0.746   3.145 -0.1711 -0.3639  0.1511
13300TIP3    H261316   4.078   0.744   3.018 -0.0869 -0.4014  0.2055
13301TIP3   OH261317   4.412   6.715   5.117  0.1151  0.4488 -0.2091
13301TIP3    H161318   4.453   6.672   5.042 -1.9801 -1.1438 -0.5581
13301TIP3    H261319   4.441   6.806   5.112 -0.3165  0.5196 -3.2478
13302TIP3   OH261320   0.126   2.540   0.057 -0.2205 -0.2475  0.0216
13302TIP3    H161321   0.099   2.521  -0.033  0.0745  2.2283 -0.6509
13302TIP3    H261322   0.194   2.476   0.076 -1.5670 -2.0128 -0.7998
13303TIP3   OH261323   1.668   0.540  12.250 -0.2877 -0.5545  0.1284
13303TIP3    H161324   1.711   0.455  12.263  1.1980  0.3339  1.5474
13303TIP3    H261325   1.739   0.604  12.262 -1.3090  0.8885 -1.1740
13304TIP3   OH261326   3.029   4.408  16.291 -0.7072  0.5922 -0.6669
13304TIP3    H161327   3.068   4.360  16.364 -0.2076  0.5396 -0.9612
13304TIP3    H261328   2.950   4.358  16.269 -1.3129  1.0755  0.3672
13305TIP3   OH261329   1.284   0.585   3.420  0.4103 -0.1363  0.0778
13305TIP3    H161330   1.326   0.592   3.506  0.0333  1.1209  0.1782
13305TIP3    H261331   1.238   0.668   3.409 -0.7362 -0.8495 -0.7292
13306TIP3   OH261332   0.308   0.539  13.704  0.6699 -0.2725  0.0043
13306TIP3    H161333   0.218   0.519  13.729  0.1478  1.0649 -0.7079
13306TIP3    H261334   0.353   0.455  13.706 -0.4548 -0.8790  0.8960
13307TIP3   OH261335   1.532   3.483  11.671 -0.1733 -0.6499  0.2381
13307TIP3    H161336   1.491   3.496  11.756 -0.3135 -2.8201  0.5525
13307TIP3    H261337   1.496   3.553  11.616 -0.8086  0.2121  1.6902
13308TIP3   OH261338   2.214   1.932   5.258  0.1425  0.7625 -0.3680
13308TIP3    H161339   2.242   1.923   5.349  1.3689 -1.6416 -0.8972
13308TIP3    H261340   2.133   1.882   5.252  0.4411  0.3058 -0.7204
13309TIP3   OH261341   3.095   1.776  11.272  0.6694 -0.2758  0.0168
13309TIP3    H161342   3.032   1.704  11.267  0.1050  0.2038  0.2411
13309TIP3    H261343   3.180   1.733  11.261  0.3405 -0.9825  0.1814
13310TIP3   OH261344   2.726   2.115   4.387 -0.3964  0.1524 -0.1776
13310TIP3    H161345   2.741   2.126   4.293 -3.0189 -0.5276 -0.7256
13310TIP3    H261346   2.648   2.060   4.394  0.2177 -0.5425  2.4283
13311TIP3   OH261347   3.746   3.525   5.131  1.0413  0.1181  0.1481
13311TIP3    H161348   3.787   3.546   5.215  2.5705 -1.7574 -0.0542
13311TIP3    H261349   3.666   3.578   5.129  2.9210  3.2034  1.0042
13312TIP3   OH261350   4.529   1.429  13.500 -0.2323  0.3540  0.1056
13312TIP3    H161351   4.581   1.456  13.576  1.5475 -0.5355 -0.7255
13312TIP3    H261352   4.517   1.510  13.450 -0.3801  0.7261  0.7278
13313TIP3   OH261353   1.062   2.143   0.517  0.3081 -0.4249 -0.0517
13313TIP3    H161354   1.034   2.190   0.595  0.7061 -2.3541  1.3269
13313TIP3    H261355   1.156   2.128   0.530 -0.0257 -2.6406  0.2004
13314TIP3   OH261356   0.820   0.859  13.310  0.2202 -0.1282  0.2721
13314TIP3    H161357   0.893   0.806  13.341  1.1328  1.0411  0.1704
13314TIP3    H261358   0.752   0.847  13.377  0.2229 -1.7362  0.0399
13315TIP3   OH261359   6.771   2.585  12.949  0.1392  0.1410 -0.1665
13315TIP3    H161360   6.829   2.657  12.924 -0.1504  0.2390 -0.5655
13315TIP3    H261361   6.687   2.607  12.909 -0.1455 -0.0598  0.3084
13316TIP3   OH261362   4.986   6.504  17.025 -0.0695  0.6755 -0.1303
13316TIP3    H161363   4.980   6.431  16.963 -1.4874  2.2478 -1.9987
13316TIP3    H261364   5.008   6.579  16.970  1.0406  1.7364  1.6855
13317TIP3   OH261365   3.160   2.443  16.366  0.0625  0.3075 -0.0229
13317TIP3    H161366   3.235   2.491  16.401  0.2881 -0.6565  0.8652
13317TIP3    H261367   3.093   2.451  16.433  1.0864 -3.0505  1.6199
13318TIP3   OH261368   6.131   0.114   1.333 -0.5493  0.0092 -0.4216
13318TIP3    H161369   6.047   0.135   1.374  1.1876  1.9181  2.5408
13318TIP3    H261370   6.167   0.044   1.388  1.2736  1.7064  0.6745
13319TIP3   OH261371   3.171   1.706  12.836 -0.1565 -0.1215 -0.1991
13319TIP3    H161372   3.076   1.711  12.826 -0.3020  0.2549  1.1682
13319TIP3    H261373   3.189   1.756  12.915  1.2113 -0.0172 -0.5616
13320TIP3   OH261374   1.927   5.939  16.355  0.5372 -0.1612 -0.2078
13320TIP3    H161375   1.908   5.850  16.385  0.3376  0.0016  0.1593
13320TIP3    H261376   1.881   5.946  16.272 -0.8015  0.1204  0.5234
13321TIP3   OH261377   6.655   2.199   4.119  0.2231 -0.2877  0.1856
13321TIP3    H161378   6.638   2.290   4.140 -0.5208 -0.4452  0.2949
13321TIP3    H261379   6.713   2.168   4.188  1.5244  0.4396 -0.5524
13322TIP3   OH261380   3.545   6.008   3.969 -0.2163 -0.7652 -0.4717
13322TIP3    H161381   3.563   6.031   3.878  0.1101 -3.3858 -1.1687
13322TIP3    H261382   3.451   5.993   3.972 -0.0128 -2.3176 -0.8660
13323TIP3   OH261383   4.507   2.811   0.059 -0.4942 -0.3526  0.3027
13323TIP3    H161384   4.535   2.804   0.150  1.2215  1.9424  0.0415
13323TIP3    H261385   4.462   2.895   0.053  1.1740  0.5263 -1.2835
13324TIP3   OH261386   2.433   1.641   3.033  0.2343  0.3558  0.5564
13324TIP3    H161387   2.384   1.714   2.996  3.1736  1.6395 -1.2064
13324TIP3    H261388   2.507   1.682   3.077  0.4940 -1.5052  1.9644
13325TIP3   OH261389   5.162   4.625  15.686 -0.3383  0.1639 -0.1531
13325TIP3    H161390   5.203   4.705  15.721  1.0289  0.7733 -2.8545
13325TIP3    H261391   5.236   4.565  15.672 -1.0504 -0.6638 -0.4117
13326TIP3   OH261392   1.387   3.271   3.380 -0.1643  0.5027 -0.3002
13326TIP3    H161393   1.364   3.281   3.287 -0.5004  2.1183 -0.0594
13326TIP3    H261394   1.311   3.302   3.428  0.1644  0.0614  0.5336
13327TIP3   OH261395   3.950   0.302  17.042 -0.2543  0.3449  0.4273
13327TIP3    H161396   3.861   0.330  17.021 -0.8683 -0.0729  2.2829
13327TIP3    H261397   3.990   0.283  16.957 -2.0789  0.0604 -0.4147
13328TIP3   OH261398   5.821   1.289  16.035  0.3428 -0.0967  0.1153
13328TIP3    H161399   5.821   1.222  15.966 -1.3477  0.3262 -0.3425
13328TIP3    H261400   5.828   1.240  16.117  0.4956 -0.7359 -0.2771
13329TIP3   OH261401   2.315   6.263  10.976 -0.1197 -0.5925 -0.3143
13329TIP3    H161402   2.336   6.261  11.069 -1.2281  0.0951 -0.0237
13329TIP3    H261403   2.308   6.171  10.950 -2.7581 -0.8653  1.0358
13330TIP3   OH261404   6.320   4.661  15.480 -0.5545 -0.4222 -0.6589
13330TIP3    H161405   6.356   4.735  15.431  0.6418 -0.2653  0.4217
13330TIP3    H261406   6.345   4.584  15.429 -0.0599 -0.2088 -0.7388
13331TIP3   OH261407   3.430   4.609   1.627 -0.3162 -0.1439  0.2099
13331TIP3    H161408   3.340   4.603   1.659 -0.9388  1.5052 -1.0920
13331TIP3    H261409   3.441   4.531   1.573 -0.6020 -0.8676  1.1680
13332TIP3   OH261410   1.009   6.246   1.409  0.4090 -0.1137 -0.1568
13332TIP3    H161411   1.000   6.216   1.499  0.2350  1.1073  0.2408
13332TIP3    H261412   1.029   6.339   1.416 -1.0145  0.3334 -1.4049
13333TIP3   OH261413   1.456   2.195  15.060 -0.0474 -0.0630  0.2337
13333TIP3    H161414   1.499   2.276  15.087 -0.1518  0.0001  0.2113
13333TIP3    H261415   1.462   2.138  15.137  0.6448 -0.2883  0.0203
13334TIP3   OH261416   0.232   4.393   0.777 -0.0805  0.0297  0.1423
13334TIP3    H161417   0.312   4.439   0.803  0.5272 -0.9184  0.0209
13334TIP3    H261418   0.161   4.453   0.799  0.6025  0.4709  1.2161
13335TIP3   OH261419   1.487   2.616   3.437  0.0530 -0.5817  0.3641
13335TIP3    H161420   1.422   2.548   3.420 -0.7569  0.2354  0.1023
13335TIP3    H261421   1.436   2.694   3.455  0.9688  0.1042  0.0797
13336TIP3   OH261422   3.740   5.935  15.591  0.5107  0.0085 -0.3469
13336TIP3    H161423   3.653   5.945  15.630  1.6047  1.4681  1.9684
13336TIP3    H261424   3.756   6.019  15.547  2.3631  1.7057  3.0913
13337TIP3   OH261425   0.324   3.348  15.045 -0.0763  0.5549 -0.2161
13337TIP3    H161426   0.236   3.311  15.046 -0.0696  0.4915  1.3923
13337TIP3    H261427   0.311   3.443  15.045 -0.1744  0.5503  0.5533
13338TIP3   OH261428   5.513   2.817  14.664  0.3446 -0.1150  0.3252
13338TIP3    H161429   5.525   2.810  14.758 -2.0157  0.4667  0.7419
13338TIP3    H261430   5.480   2.906  14.650 -2.3761 -1.1690 -0.6068
13339TIP3   OH261431   1.346   1.510   3.762  0.5334  0.0743 -0.1822
13339TIP3    H161432   1.341   1.548   3.675  1.4271 -0.3557 -0.4347
13339TIP3    H261433   1.429   1.543   3.798  0.6540 -0.5363  0.1187
13340TIP3   OH261434   5.528   3.257   3.170 -0.4200 -0.2525 -0.0263
13340TIP3    H161435   5.514   3.165   3.147  0.7503 -0.9846  1.9510
13340TIP3    H261436   5.590   3.289   3.104  0.0479 -1.2324 -0.0866
13341TIP3   OH261437   1.137   6.676   4.775  0.1296 -0.4128  0.4395
13341TIP3    H161438   1.065   6.671   4.711 -0.3024 -1.4836  0.9872
13341TIP3    H261439   1.127   6.762   4.815 -0.0972 -0.0606 -0.3542
13342TIP3   OH261440   1.570   6.157   5.779 -0.6367  0.3771 -0.1321
13342TIP3    H161441   1.503   6.220   5.753 -1.2512  0.1156  0.7513
13342TIP3    H261442   1.559   6.083   5.719 -2.0295 -0.2175  0.8031
13343TIP3   OH261443   2.523   3.718   3.686 -0.8015 -0.1092  0.2555
13343TIP3    H161444   2.485   3.662   3.754 -1.5093  0.6046  0.4652
13343TIP3    H261445   2.448   3.759   3.644 -0.4419 -1.2922 -1.6461
13344TIP3   OH261446   1.794   0.286  14.555  0.6168 -0.5791  0.5756
13344TIP3    H161447   1.699   0.292  14.550  0.6459 -0.6747 -0.2015
13344TIP3    H261448   1.812   0.249  14.642 -0.0976 -1.5476  0.3219
13345TIP3   OH261449   4.129   2.968   4.138  0.3299 -0.1966  0.5135
13345TIP3    H161450   4.084   3.015   4.209  1.3776  1.3903  0.1742
13345TIP3    H261451   4.058   2.938   4.081 -0.4489 -0.2400  1.4818
13346TIP3   OH261452   1.958   4.009   6.068 -0.0276  0.0291  0.2918
13346TIP3    H161453   1.956   4.048   6.156  0.1990  1.7251 -0.4257
13346TIP3    H261454   1.868   4.017   6.036  0.0379  0.0284  0.1073
13347TIP3   OH261455   1.742   3.343   4.881  0.4946 -0.6483 -0.2413
13347TIP3    H161456   1.647   3.341   4.872  0.4253  2.0676 -1.1620
13347TIP3    H261457   1.757   3.376   4.969  0.6179 -1.2672 -0.0236
13348TIP3   OH261458   1.833   1.505  13.818 -0.1979  0.2788 -0.2101
13348TIP3    H161459   1.809   1.451  13.893  1.0226 -0.1338 -0.0900
13348TIP3    H261460   1.749   1.532  13.780 -0.8352 -0.7255  0.4214
13349TIP3   OH261461   1.657   6.513   6.775  0.1992 -0.6384  0.0991
13349TIP3    H161462   1.612   6.483   6.853  0.4788  1.4338  1.1198
13349TIP3    H261463   1.601   6.581   6.738  0.7148 -0.6450 -0.7465
13350TIP3   OH261464   3.652   0.643  16.352  0.1562  0.0113 -0.4792
13350TIP3    H161465   3.732   0.591  16.358  0.4489  0.6227  1.2530
13350TIP3    H261466   3.665   0.698  16.275  2.6972  2.1249  1.2888
13351TIP3   OH261467   4.339   6.238  14.457 -0.0151  0.1664 -0.0051
13351TIP3    H161468   4.350   6.204  14.546  0.6780  0.3844  0.0005
13351TIP3    H261469   4.282   6.314  14.468  1.1062  0.9647  0.4431
13352TIP3   OH261470   2.044   3.219  15.890 -0.1001 -0.1005 -0.4223
13352TIP3    H161471   1.981   3.157  15.925  0.2643  0.1779  0.7631
13352TIP3    H261472   2.006   3.246  15.806 -1.7186  0.2715  0.3744
13353TIP3   OH261473   3.044   2.414   4.690 -0.1094  0.9167  0.0476
13353TIP3    H161474   3.014   2.437   4.778  0.2203  3.3464 -0.4061
13353TIP3    H261475   2.971   2.364   4.652  1.0653 -3.4296  2.7885
13354TIP3   OH261476   6.213   0.524  13.602  0.5553  0.0423  0.9424
13354TIP3    H161477   6.282   0.574  13.558  1.0113  0.2694  1.8832
13354TIP3    H261478   6.220   0.436  13.566 -0.5254  0.7129 -1.0444
13355TIP3   OH261479   4.902   4.319  14.040  0.2200 -0.3198 -0.0963
13355TIP3    H161480   4.976   4.326  13.980 -1.6964  0.2054 -2.5382
13355TIP3    H261481   4.915   4.390  14.103  1.2553  0.3657 -1.0536
13356TIP3   OH261482   1.017   4.509   4.211 -0.3665  0.0642  0.0325
13356TIP3    H161483   0.994   4.601   4.203 -0.3250 -0.0137 -1.0658
13356TIP3    H261484   1.004   4.473   4.124 -0.7392 -1.0622  0.5312
13357TIP3   OH261485   4.989   5.257   2.681 -0.4703 -0.1520 -0.9257
13357TIP3    H161486   4.993   5.232   2.773  1.1329 -1.6759 -1.3619
13357TIP3    H261487   5.069   5.308   2.666 -1.6796  1.8515 -1.0625
13358TIP3   OH261488   4.979   3.626  11.687  0.5714 -0.4561  0.4438
13358TIP3    H161489   5.051   3.586  11.735  1.6324 -1.4202 -1.8055
13358TIP3    H261490   4.992   3.599  11.596  0.7100  3.9569 -1.1289
13359TIP3   OH261491   1.246   1.439  10.952 -0.1856  0.3138 -0.2189
13359TIP3    H161492   1.204   1.368  10.904 -1.0777  0.5056  0.2526
13359TIP3    H261493   1.339   1.416  10.954 -0.4233 -0.6699 -0.3521
13360TIP3   OH261494   5.148   3.929   1.468 -0.0389  0.2932 -0.0844
13360TIP3    H161495   5.108   3.880   1.396  0.8037  0.8655 -0.9786
13360TIP3    H261496   5.234   3.955   1.434 -0.6479  2.8823  0.0940
13361TIP3   OH261497   5.115   3.387  15.498 -1.0346  0.4923  0.2038
13361TIP3    H161498   5.081   3.337  15.572  2.6075  0.9004  2.3919
13361TIP3    H261499   5.164   3.323  15.446 -2.6732  0.4315 -1.3696
13362TIP3   OH261500   3.527   0.068  15.085  0.2774  0.3638  0.4070
13362TIP3    H161501   3.526   0.150  15.035  3.4800  0.2803  0.0084
13362TIP3    H261502   3.443   0.027  15.064 -0.5787  2.5802 -0.9788
13363TIP3   OH261503   0.140   6.641  14.942  0.9161 -0.1311 -0.4473
13363TIP3    H161504   0.172   6.660  14.853  0.4285  1.3554 -0.3379
13363TIP3    H261505   0.220   6.634  14.994  1.1738  0.2532 -0.7774
13364TIP3   OH261506   0.685   0.036  11.717 -0.3004  0.1272 -0.4546
13364TIP3    H161507   0.766   0.059  11.761 -0.3565 -1.9653  0.9214
13364TIP3    H261508   0.706  -0.043  11.667 -1.8522 -1.8005  1.6632
13365TIP3   OH261509   6.746   4.167  14.695  0.5747 -0.0747  0.3616
13365TIP3    H161510   6.829   4.206  14.720  1.9379 -1.4794 -1.5754
13365TIP3    H261511   6.745   4.082  14.740 -0.2760  0.3311  1.1229
13366TIP3   OH261512   4.745   2.256  11.736 -0.4901 -0.7530 -0.3801
13366TIP3    H161513   4.784   2.183  11.785 -1.9904 -1.0230  0.4612
13366TIP3    H261514   4.813   2.322  11.734 -0.5742 -0.4504  2.7263
13367TIP3   OH261515   5.858   4.700   4.067  0.3209  0.1702 -0.2888
13367TIP3    H161516   5.823   4.678   4.154  0.5343  0.3925 -0.1433
13367TIP3    H261517   5.853   4.619   4.018 -1.1071  0.3772 -0.5165
13368TIP3   OH261518   3.521   2.985   5.772 -0.0024 -0.4083  0.1448
13368TIP3    H161519   3.547   3.073   5.745 -1.8463  0.1605  0.1170
13368TIP3    H261520   3.572   2.968   5.851 -3.7721  3.1887  3.8457
13369TIP3   OH261521   4.003   4.305   4.606  0.5272 -0.1221  0.1219
13369TIP3    H161522   4.041   4.229   4.649 -0.4380 -0.6695  0.0341
13369TIP3    H261523   3.909   4.287   4.605  0.4495  0.2828 -1.4305
13370TIP3   OH261524   0.345   6.076   1.001  0.0732 -0.1876 -0.0501
13370TIP3    H161525   0.396   6.110   0.927 -1.3264  1.1427 -0.4617
13370TIP3    H261526   0.351   6.144   1.068 -1.1243  0.0081 -0.1137
13371TIP3   OH261527   1.150   5.690  16.811  0.1406 -0.6559 -0.2196
13371TIP3    H161528   1.223   5.752  16.808  1.9551 -2.7435 -1.2586
13371TIP3    H261529   1.141   5.658  16.721 -1.9946 -0.5965 -0.0919
13372TIP3   OH261530   0.380   2.617   2.485  0.0824 -0.6381  0.4237
13372TIP3    H161531   0.460   2.633   2.534  1.0094  0.9676 -1.4897
13372TIP3    H261532   0.322   2.690   2.508  0.7042  0.3982 -1.1331
13373TIP3   OH261533   1.186   1.523   5.333  0.1688  0.1093  0.1156
13373TIP3    H161534   1.113   1.580   5.311  0.4605  0.8417  0.9457
13373TIP3    H261535   1.163   1.487   5.419  0.0274 -0.9781 -0.3603
13374TIP3   OH261536   4.777   5.045   1.456  1.0363 -0.4901  0.4346
13374TIP3    H161537   4.828   5.040   1.537  1.3677 -1.4424  0.1855
13374TIP3    H261538   4.831   4.999   1.391  0.4650 -0.3367 -0.1602
13375TIP3   OH261539   6.035   0.409  16.073 -0.2800  0.5640 -0.2029
13375TIP3    H161540   6.049   0.318  16.046  0.8582  1.0494 -1.3489
13375TIP3    H261541   6.116   0.434  16.116 -1.4656  0.3338  2.3095
13376TIP3   OH261542   6.156   0.929   4.500 -0.1625  0.2102 -0.3081
13376TIP3    H161543   6.073   0.883   4.489  0.8515 -1.7584 -0.1502
13376TIP3    H261544   6.131   1.017   4.530 -2.1557 -0.7571  1.1058
13377TIP3   OH261545   2.781   5.279   3.985  0.3336  0.0077 -0.2055
13377TIP3    H161546   2.810   5.312   4.070  0.3406  0.4850 -0.3914
13377TIP3    H261547   2.716   5.342   3.955  1.5756  0.7972 -1.3507
13378TIP3   OH261548   5.465   5.616   3.023  0.2110  0.1288  0.5440
13378TIP3    H161549   5.492   5.656   2.941  0.2799 -0.3379  0.3363
13378TIP3    H261550   5.373   5.640   3.033  0.0348 -0.3001  0.0294
13379TIP3   OH261551   2.467   6.067  16.288 -0.2795 -0.1089  0.3504
13379TIP3    H161552   2.453   5.976  16.314  0.3839 -0.8234 -1.5712
13379TIP3    H261553   2.383   6.095  16.253 -0.2466 -0.3098  0.1032
13380TIP3   OH261554   3.266   4.185  14.075 -1.2595  0.2546 -0.3911
13380TIP3    H161555   3.253   4.232  14.158  0.1964  0.6247 -0.3463
13380TIP3    H261556   3.243   4.095  14.095  2.5538 -0.5016  1.5734
13381TIP3   OH261557   0.640   6.034   5.864  0.0624  1.1090  0.6454
13381TIP3    H161558   0.605   5.966   5.922  1.1166  0.2573  0.3316
13381TIP3    H261559   0.724   5.999   5.835 -1.0931  0.6982 -2.6848
13382TIP3   OH261560   3.081   3.645  12.293  0.4713 -0.4669  0.0471
13382TIP3    H161561   3.151   3.581  12.304 -0.3457 -1.4300 -0.2045
13382TIP3    H261562   3.087   3.671  12.201 -0.3923 -1.6461 -0.3639
13383TIP3   OH261563   6.613   4.533   4.025  0.1711  0.3203  0.4982
13383TIP3    H161564   6.625   4.453   4.077 -0.2522  0.1100  0.2739
13383TIP3    H261565   6.526   4.524   3.987  0.3646  0.6105 -0.0196
13384TIP3   OH261566   5.023   0.370  12.621  0.0779  0.0715 -0.1501
13384TIP3    H161567   5.029   0.446  12.563  1.0898 -0.5691 -0.9192
13384TIP3    H261568   4.973   0.305  12.571 -0.8315  0.2384  0.5257
13385TIP3   OH261569   2.524   2.385  17.084  0.2462 -0.2420 -0.3210
13385TIP3    H161570   2.590   2.348  17.026  0.2707 -0.2476 -0.2906
13385TIP3    H261571   2.566   2.462  17.122 -0.1134  0.3305 -1.0591
13386TIP3   OH261572   4.463   0.524  14.150 -0.2423  0.0549  0.0670
13386TIP3    H161573   4.540   0.567  14.112  0.4306 -1.0425  0.1528
13386TIP3    H261574   4.390   0.580  14.124  0.7260  2.0368  1.3513
13387TIP3   OH261575   5.006   5.669  15.516 -0.1895 -0.3309  0.1204
13387TIP3    H161576   5.044   5.589  15.482  0.3607 -0.5193  1.1492
13387TIP3    H261577   4.919   5.674  15.474  0.7738 -0.0756 -1.9682
13388TIP3   OH261578   4.178   2.183   0.754 -0.0150 -1.4505 -0.2811
13388TIP3    H161579   4.183   2.276   0.730 -1.6889 -1.3792 -0.4834
13388TIP3    H261580   4.261   2.146   0.725  1.3671  0.2696  1.1876
13389TIP3   OH261581   4.607   2.987   3.643 -0.1064 -0.0689  0.5769
13389TIP3    H161582   4.630   2.996   3.550 -1.1809  0.8740  0.3769
13389TIP3    H261583   4.690   2.974   3.687  0.7985  2.4320 -0.1861
13390TIP3   OH261584   5.771   4.035  13.710  0.6119 -0.1301 -0.2322
13390TIP3    H161585   5.785   4.081  13.793 -1.5124 -0.3510  0.2924
13390TIP3    H261586   5.706   3.968  13.730  0.2121 -0.3214 -2.0185
13391TIP3   OH261587   2.611   1.757   3.181  0.4894 -0.1281  0.2233
13391TIP3    H161588   2.552   1.828   3.207  0.6272  0.4066 -0.8872
13391TIP3    H261589   2.698   1.794   3.190  0.5376  0.0764 -1.0082
13392TIP3   OH261590   3.140   6.312   3.074  0.0162  0.2585 -0.1907
13392TIP3    H161591   3.141   6.219   3.050 -0.0279 -0.1039  1.1292
13392TIP3    H261592   3.206   6.320   3.143 -1.4750  0.7394  1.2618
13393TIP3   OH261593   4.293   3.802   6.684 -0.3216  0.5082 -0.2215
13393TIP3    H161594   4.316   3.794   6.592 -0.3032 -2.3577 -0.0539
13393TIP3    H261595   4.210   3.849   6.685  0.1921  1.4851 -1.5993
13394TIP3   OH261596   1.201   0.535  17.195  0.2428  0.0495 -0.2949
13394TIP3    H161597   1.281   0.503  17.236  2.4638  2.0277 -2.7609
13394TIP3    H261598   1.141   0.550  17.268  2.3009 -0.9206  1.7164
13395TIP3   OH261599   1.190   4.431  11.992 -0.2451 -0.0986 -0.4727
13395TIP3    H161600   1.103   4.466  12.012  0.3364  0.8673  0.4416
13395TIP3    H261601   1.248   4.507  11.991  1.1291 -1.0063  1.9179
13396TIP3   OH261602   1.364   6.739  12.682 -0.1770 -0.1972 -0.3749
13396TIP3    H161603   1.376   6.685  12.760 -2.5317  0.1617  0.3143
13396TIP3    H261604   1.445   6.789  12.674  0.2124 -0.4165  1.7091
13397TIP3   OH261605   6.677   5.975   6.007  0.0367  0.6544  0.1499
13397TIP3    H161606   6.628   6.022   6.074 -0.1190  1.2971 -0.4085
13397TIP3    H261607   6.741   5.923   6.057 -1.9646 -1.1566  0.9635
13398TIP3   OH261608   3.380   6.545  11.344  0.5617  0.2558 -0.8163
13398TIP3    H161609   3.361   6.463  11.389  1.2320  0.1751 -0.6649
13398TIP3    H261610   3.297   6.571  11.306  0.0048  0.2338  0.3256
13399TIP3   OH261611   0.374   1.253   0.441  0.0005 -0.3519 -0.1868
13399TIP3    H161612   0.362   1.182   0.504  1.8451  0.6803  1.4609
13399TIP3    H261613   0.328   1.327   0.480  1.7482  0.4863  0.4054
13400TIP3   OH261614   4.807   5.465   5.767 -0.5749 -0.4602 -0.5134
13400TIP3    H161615   4.812   5.392   5.828  0.1272 -0.7872 -0.9459
13400TIP3    H261616   4.827   5.426   5.682  4.0271  0.8240 -0.2709
13401TIP3   OH261617   3.422   5.798  16.857 -1.0547 -0.3493  0.1209
13401TIP3    H161618   3.471   5.814  16.776 -0.6890  1.5715  0.6550
13401TIP3    H261619   3.377   5.715  16.842 -0.3419 -0.4578 -1.7266
13402TIP3   OH261620   6.136   4.521   0.166  0.0145  0.6792 -0.1806
13402TIP3    H161621   6.149   4.450   0.103  0.8242 -0.5199  1.2837
13402TIP3    H261622   6.220   4.565   0.171  0.1086  0.4238  0.4744
13403TIP3   OH261623   5.884   4.052   2.558 -0.1800 -0.0379 -0.6529
13403TIP3    H161624   5.822   4.102   2.505 -0.2833 -0.6951 -1.1695
13403TIP3    H261625   5.920   3.987   2.497 -0.7418 -1.2068  0.2163
13404TIP3   OH261626   3.901   2.557   2.388  0.1814  0.0773  0.2620
13404TIP3    H161627   3.855   2.587   2.467  1.1983  1.8807  0.2090
13404TIP3    H261628   3.872   2.617   2.319  0.4170 -0.5824 -0.4239
13405TIP3   OH261629   6.117   6.417   5.068  0.2318 -0.1172  0.0635
13405TIP3    H161630   6.105   6.508   5.094 -1.1062 -0.3715  0.3925
13405TIP3    H261631   6.143   6.421   4.976 -0.8681  0.5521 -0.2248
13406TIP3   OH261632   1.613   4.697   1.461  0.0701 -0.0346 -0.2941
13406TIP3    H161633   1.559   4.752   1.517  0.2242  0.3505 -0.5209
13406TIP3    H261634   1.650   4.757   1.397 -2.0953 -0.7936 -2.4052
13407TIP3   OH261635   4.726   0.318   4.904 -0.1089 -0.0080  0.4499
13407TIP3    H161636   4.670   0.386   4.941  1.6215  1.3327  0.7453
13407TIP3    H261637   4.693   0.237   4.942 -0.7784  0.9287  1.9702
13408TIP3   OH261638   1.748   5.247  17.249  0.1378  0.4923  0.1178
13408TIP3    H161639   1.667   5.251  17.300  0.1513 -0.8982  0.2769
13408TIP3    H261640   1.720   5.244  17.158 -0.0168 -0.1739  0.1791
13409TIP3   OH261641   5.125   3.087   3.103 -0.4910  0.2370  0.1246
13409TIP3    H161642   5.173   3.107   3.022 -0.6709 -0.3577 -0.1333
13409TIP3    H261643   5.033   3.087   3.077 -0.4744 -2.0157 -0.1746
13410TIP3   OH261644   2.387   5.931   4.275  0.1109  0.2144  0.3477
13410TIP3    H161645   2.318   5.965   4.218 -1.2079 -0.9885  1.1593
13410TIP3    H261646   2.397   5.997   4.343  1.2767  1.3795 -0.8747
13411TIP3   OH261647   1.006   4.213   3.358 -0.1177  0.0752  0.1809
13411TIP3    H161648   1.003   4.131   3.307 -0.4091  0.2416 -0.0747
13411TIP3    H261649   0.914   4.239   3.366  0.0121  0.6855 -0.2425
13412TIP3   OH261650   6.706   0.547   1.063  0.3744  0.3590  0.0164
13412TIP3    H161651   6.727   0.456   1.045  1.7180  0.6569  0.0357
13412TIP3    H261652   6.778   0.579   1.117  0.0750  1.5301 -0.2506
13413TIP3   OH261653   5.187   4.823  14.526  0.3292  0.9855  0.0243
13413TIP3    H161654   5.212   4.734  14.502  0.5707  0.8668  0.7042
13413TIP3    H261655   5.234   4.879  14.464 -0.7047  0.6134 -1.1522
13414TIP3   OH261656   5.186   2.305   0.427  0.1571 -0.7866  0.8098
13414TIP3    H161657   5.257   2.270   0.372 -0.3364 -1.5812  0.6705
13414TIP3    H261658   5.231   2.354   0.496  0.7931  0.3598 -0.3692
13415TIP3   OH261659   1.419   1.740   1.193 -0.0115 -0.2996 -0.2600
13415TIP3    H161660   1.334   1.698   1.180  0.0713 -0.9413  1.0646
13415TIP3    H261661   1.417   1.817   1.137 -1.2485 -0.6101 -0.6710
13416TIP3   OH261662   0.343   5.564  15.862 -0.1151  0.1662  0.0419
13416TIP3    H161663   0.329   5.603  15.776  1.0429  0.6567  0.0605
13416TIP3    H261664   0.316   5.472  15.852  1.4710 -0.1998 -1.3014
13417TIP3   OH261665   3.357   3.988  16.915  0.0745  0.3168 -0.2941
13417TIP3    H161666   3.340   3.902  16.953 -0.5646  0.3111 -0.5781
13417TIP3    H261667   3.421   4.028  16.974 -2.2464  1.0396  1.9291
13418TIP3   OH261668   0.614   2.737  15.823 -0.6159  0.6845  0.3228
13418TIP3    H161669   0.596   2.831  15.831  0.0501  0.9432 -0.9214
13418TIP3    H261670   0.530   2.695  15.841 -1.0317  1.5500  0.4521
13419TIP3   OH261671   2.834   4.891   5.696  0.0742  0.0933  0.2076
13419TIP3    H161672   2.796   4.915   5.781 -0.6471 -1.5639  0.3792
13419TIP3    H261673   2.793   4.951   5.634 -1.1713 -0.2219  0.7062
13420TIP3   OH261674   4.324   5.344   5.122  0.0055 -0.7089  0.4374
13420TIP3    H161675   4.378   5.330   5.200 -1.2738  1.9286  1.9368
13420TIP3    H261676   4.384   5.381   5.057  0.7097 -1.2050  0.7921
13421TIP3   OH261677   4.565   1.548  16.033  0.0711  0.2975 -0.0670
13421TIP3    H161678   4.522   1.570  16.115  1.3329 -0.7380  0.9093
13421TIP3    H261679   4.643   1.605  16.030 -0.2955  0.7782 -0.8681
13422TIP3   OH261680   5.126   2.277  11.701 -0.2484 -0.3012  0.1997
13422TIP3    H161681   5.194   2.248  11.641 -0.4740  0.5874 -0.5091
13422TIP3    H261682   5.114   2.203  11.761  2.1062 -0.0764  1.0557
13423TIP3   OH261683   4.943   1.911  14.575 -0.2903  0.0249 -0.0583
13423TIP3    H161684   4.946   1.876  14.486 -0.6002 -1.9789  0.6484
13423TIP3    H261685   5.019   1.872  14.619 -0.7865  0.0249  0.8414
13424TIP3   OH261686   5.806   2.037   5.474 -0.4863  0.2492 -0.2462
13424TIP3    H161687   5.730   2.093   5.480 -1.1017 -0.2496 -2.4462
13424TIP3    H261688   5.835   2.024   5.564 -2.2354  1.4677  0.5167
13425TIP3   OH261689   0.506   6.602   1.280 -0.1677 -0.1779  0.6807
13425TIP3    H161690   0.528   6.623   1.371 -2.3971  1.4528  0.9013
13425TIP3    H261691   0.522   6.683   1.232 -2.3078  0.0513  0.2811
13426TIP3   OH261692   5.232   1.100  14.623  0.3910  0.2895 -0.0987
13426TIP3    H161693   5.172   1.028  14.644 -1.6882  1.7023 -0.8472
13426TIP3    H261694   5.302   1.059  14.571 -0.6172 -1.2275 -0.3194
13427TIP3   OH261695   2.328   4.319  13.993  0.1805 -0.2864 -0.1295
13427TIP3    H161696   2.312   4.332  13.900  1.4393 -0.1799 -0.3424
13427TIP3    H261697   2.271   4.382  14.037 -0.1947 -0.1302 -0.8327
13428TIP3   OH261698   6.692   6.536   0.842  0.1136  0.0787 -0.2843
13428TIP3    H161699   6.652   6.516   0.757 -0.3828  0.0104 -0.0349
13428TIP3    H261700   6.680   6.631   0.852 -2.4569 -0.2926  1.0151
13429TIP3   OH261701   4.835   1.876   2.565  0.0567 -0.3770 -0.0446
13429TIP3    H161702   4.797   1.791   2.543  0.5441 -0.9822  1.3560
13429TIP3    H261703   4.925   1.855   2.592  0.2981  0.6293 -0.0418
13430TIP3   OH261704   4.949   6.048  13.674  0.4092 -0.5895 -0.3383
13430TIP3    H161705   4.942   6.008  13.587 -0.2197 -1.5526  0.1323
13430TIP3    H261706   4.881   6.004  13.726  0.1856  0.5875  0.4087
13431TIP3   OH261707   0.142   1.868  11.221  0.0060  0.0587 -0.2165
13431TIP3    H161708   0.066   1.926  11.236  1.8201  2.4364  0.3942
13431TIP3    H261709   0.129   1.796  11.283 -1.9053  0.2147 -0.3728
13432TIP3   OH261710   3.863   4.156  11.018 -0.1526  0.0261  0.0564
13432TIP3    H161711   3.911   4.122  11.094  1.3805  1.7432 -0.0962
13432TIP3    H261712   3.771   4.134  11.037  0.4423 -1.6245  1.2768
13433TIP3   OH261713   5.328   3.051   2.828  0.1149 -0.3905  0.2769
13433TIP3    H161714   5.292   2.968   2.797 -1.2520  0.4365 -0.4163
13433TIP3    H261715   5.259   3.115   2.813  1.8784  1.3192 -1.2504
13434TIP3   OH261716   6.415   3.966   6.047 -0.6024  0.6648 -0.6077
13434TIP3    H161717   6.424   4.006   5.960 -2.0886  0.9876 -0.6285
13434TIP3    H261718   6.455   4.029   6.107  2.6099 -0.5945 -1.2353
13435TIP3   OH261719   6.225   0.647  12.055  0.1012 -0.0324 -0.4328
13435TIP3    H161720   6.227   0.607  11.968  2.0171 -3.3686  0.9635
13435TIP3    H261721   6.314   0.679  12.069 -0.4862  1.5678 -0.0781
13436TIP3   OH261722   1.734   1.504   4.448 -0.5861  0.2379 -0.1210
13436TIP3    H161723   1.791   1.427   4.446  0.3311  0.8244  1.6923
13436TIP3    H261724   1.664   1.481   4.509 -0.0294  0.9901  0.8329
13437TIP3   OH261725   6.639   0.903  14.589  0.1233 -0.4869  0.0517
13437TIP3    H161726   6.599   0.884  14.674 -0.1726 -0.1790 -0.0168
13437TIP3    H261727   6.574   0.957  14.543  0.8624  0.5620  0.1848
13438TIP3   OH261728   3.662   2.377  12.368 -0.2375 -0.0151 -0.0365
13438TIP3    H161729   3.714   2.397  12.291  1.9067 -1.9275  0.7573
13438TIP3    H261730   3.694   2.437  12.435  0.5066 -0.7177  0.2607
13439TIP3   OH261731   0.853   2.779  11.523 -0.0701 -0.2500 -0.5453
13439TIP3    H161732   0.884   2.807  11.609 -0.9088  0.0596 -0.3346
13439TIP3    H261733   0.802   2.853  11.490 -0.2932 -0.6101 -1.0246
13440TIP3   OH261734   1.921   3.358   3.763  0.0488 -0.3224 -0.5376
13440TIP3    H161735   1.916   3.425   3.695 -0.3432 -0.1203 -0.3081
13440TIP3    H261736   1.965   3.285   3.721 -0.7867 -0.4497 -1.2083
13441TIP3   OH261737   4.091   2.693  13.970  0.1363  0.0848  0.6394
13441TIP3    H161738   4.161   2.723  14.028 -0.1743  0.8515  0.6281
13441TIP3    H261739   4.023   2.760  13.977 -0.6074 -0.6375  0.6472
13442TIP3   OH261740   1.246   5.076  13.668 -0.2853  0.0795 -0.4789
13442TIP3    H161741   1.213   5.100  13.754  1.8586 -1.9906  1.0617
13442TIP3    H261742   1.275   5.158  13.629  0.9411  0.8285  1.8342
13443TIP3   OH261743   3.565   2.158  14.410  0.1946  0.0144  0.5423
13443TIP3    H161744   3.598   2.234  14.362 -1.2645 -0.5483 -1.5476
13443TIP3    H261745   3.470   2.168  14.406 -0.0415 -2.0008 -0.0355
13444TIP3   OH261746   3.038   6.227   5.348  0.3513  0.3174 -0.3240
13444TIP3    H161747   3.006   6.220   5.258 -0.6443 -2.5997  0.1407
13444TIP3    H261748   3.114   6.168   5.350 -0.2064 -0.4057  0.9262
13445TIP3   OH261749   4.078   5.439   0.256  0.6389 -0.2539 -0.3655
13445TIP3    H161750   4.011   5.404   0.198  1.4299 -0.2166 -1.3127
13445TIP3    H261751   4.113   5.515   0.210  1.5130 -0.4252  0.0045
13446TIP3   OH261752   2.507   4.010  12.569  0.1814  0.6302 -0.1857
13446TIP3    H161753   2.534   4.074  12.503 -1.3312  1.6464  0.1266
13446TIP3    H261754   2.500   4.061  12.650  1.9382 -0.5786  0.8077
13447TIP3   OH261755   2.932   2.752   0.354  1.1738 -0.0966  0.0482
13447TIP3    H161756   2.961   2.675   0.403 -1.4692 -1.3197 -0.1296
13447TIP3    H261757   2.870   2.795   0.412 -0.0595 -0.1430 -1.1789
13448TIP3   OH261758   0.203   2.343   1.195  0.0487  0.2344 -0.0772
13448TIP3    H161759   0.260   2.309   1.263 -0.1205  1.5217  0.7554
13448TIP3    H261760   0.218   2.286   1.119  1.9333  0.1549  0.3154
13449TIP3   OH261761   5.221   1.643  11.430 -0.7545 -0.4134 -0.5410
13449TIP3    H161762   5.307   1.623  11.466 -0.0537  1.1077 -1.2669
13449TIP3    H261763   5.205   1.735  11.454 -2.1223 -0.6322 -0.5264
13450TIP3   OH261764   5.592   4.550   1.350  0.1033  0.1187  0.3679
13450TIP3    H161765   5.582   4.463   1.312  2.7093  0.6345 -1.8465
13450TIP3    H261766   5.534   4.606   1.300 -1.3852 -0.2264  1.6285
13451TIP3   OH261767   3.447   5.636  15.321  0.1476 -0.3823 -0.2375
13451TIP3    H161768   3.499   5.613  15.398  0.8985 -0.6731 -0.8213
13451TIP3    H261769   3.372   5.684  15.356  1.5503  1.3469  0.5305
13452TIP3   OH261770   4.148   6.227  13.737  0.1162 -0.0390 -0.6037
13452TIP3    H161771   4.175   6.141  13.768  0.1615  0.9114  2.2432
13452TIP3    H261772   4.053   6.227  13.743  0.1161  0.1240 -0.5904
13453TIP3   OH261773   6.547   2.400   3.077  0.2594  0.2709 -0.0376
13453TIP3    H161774   6.632   2.428   3.112  0.7874 -2.5731  1.1709
13453TIP3    H261775   6.490   2.393   3.153  0.2542 -2.0658 -0.1878
13454TIP3   OH261776   0.144   4.092   2.236  0.1481 -0.3685  0.3192
13454TIP3    H161777   0.214   4.060   2.180 -0.8514 -0.5385 -0.8543
13454TIP3    H261778   0.114   4.173   2.194 -2.1828 -1.7075 -0.7596
13455TIP3   OH261779   3.566   1.659   3.734  0.0598  0.4482  0.6383
13455TIP3    H161780   3.508   1.600   3.782  0.7095 -0.6034  0.1650
13455TIP3    H261781   3.654   1.635   3.763  0.3020  1.6910  0.9804
13456TIP3   OH261782   1.665   4.412   1.569 -0.1201  0.2667 -0.4194
13456TIP3    H161783   1.637   4.492   1.523 -0.1551  0.6869  0.3031
13456TIP3    H261784   1.742   4.382   1.522  0.2072  1.0349 -0.3919
13457TIP3   OH261785   3.730   0.341   0.740 -0.3113  0.1994 -0.4865
13457TIP3    H161786   3.711   0.397   0.665 -0.8889 -1.0007 -1.2645
13457TIP3    H261787   3.806   0.289   0.714 -0.8119 -0.5675 -0.4375
13458TIP3   OH261788   6.364   0.223   3.776 -0.1386 -0.6874  0.4182
13458TIP3    H161789   6.436   0.242   3.836 -1.1279 -0.8019  1.6867
13458TIP3    H261790   6.406   0.188   3.697  1.1336 -1.4563  1.4163
13459TIP3   OH261791   3.833   0.119  16.800  0.1954  0.2154 -0.4749
13459TIP3    H161792   3.925   0.130  16.776 -0.1249 -0.3239 -2.1168
13459TIP3    H261793   3.834   0.062  16.876  1.1716 -1.1048 -1.4467
13460TIP3   OH261794   2.117   3.769  12.880 -0.1132 -0.0299  0.1811
13460TIP3    H161795   2.175   3.746  12.807 -0.1852 -1.8811  0.6529
13460TIP3    H261796   2.033   3.788  12.838  0.1140 -0.0574 -0.2987
13461TIP3   OH261797   0.228   5.967   3.872  0.4029 -0.3670  0.0728
13461TIP3    H161798   0.277   6.036   3.828 -1.0899  1.5772  1.2956
13461TIP3    H261799   0.293   5.921   3.925  1.2210  1.0440  0.3468
13462TIP3   OH261800   2.896   2.582  11.112  0.5612  0.1770 -0.7112
13462TIP3    H161801   2.917   2.670  11.081  0.6753 -0.4090 -2.3734
13462TIP3    H261802   2.822   2.595  11.171  1.4386  1.5228  0.1740
13463TIP3   OH261803   0.289   0.603  15.128  0.2695  0.5460  0.0691
13463TIP3    H161804   0.232   0.556  15.067  0.7863  1.0765 -0.8460
13463TIP3    H261805   0.376   0.596  15.089  1.0231 -0.9256  1.8260
13464TIP3   OH261806   5.925   2.932  15.286  0.4416  0.4102 -0.0851
13464TIP3    H161807   5.875   2.851  15.290 -0.0165  0.5644 -1.8795
13464TIP3    H261808   6.016   2.905  15.303  0.4981 -0.7185 -1.9877
13465TIP3   OH261809   5.561   5.018  13.841  0.1537 -0.3872  0.3191
13465TIP3    H161810   5.588   5.093  13.788 -1.0190 -0.2831 -0.1674
13465TIP3    H261811   5.543   4.949  13.777  1.6420 -1.2660  0.7774
13466TIP3   OH261812   1.204   0.753  16.367  0.5099 -0.3267  0.6471
13466TIP3    H161813   1.285   0.706  16.387 -0.1239 -0.9015  1.9972
13466TIP3    H261814   1.198   0.751  16.272  0.8316 -2.4232  0.6291
13467TIP3   OH261815   1.723   5.812  11.883 -0.1098 -0.3253 -0.2481
13467TIP3    H161816   1.666   5.747  11.925 -0.1827 -0.1881 -0.1372
13467TIP3    H261817   1.715   5.793  11.789 -2.1000  1.1304 -0.4149
13468TIP3   OH261818   5.387   2.809   1.735  0.5724  0.1445 -0.0531
13468TIP3    H161819   5.294   2.832   1.733  0.6342  0.6967  1.6880
13468TIP3    H261820   5.403   2.764   1.651 -1.1213  0.5168 -0.6072
13469TIP3   OH261821   0.636   0.690   1.245 -0.0325 -0.1058 -0.0813
13469TIP3    H161822   0.581   0.768   1.244  1.9531  1.4216  0.8695
13469TIP3    H261823   0.675   0.688   1.332  0.1192 -2.1026 -0.1342
13470TIP3   OH261824   1.856   0.897  14.283 -0.1358  0.1156 -0.2701
13470TIP3    H161825   1.874   0.805  14.299 -0.7625 -0.2641 -1.6036
13470TIP3    H261826   1.818   0.929  14.365 -1.2473 -1.1783 -0.2486
13471TIP3   OH261827   2.795   5.293  11.736 -0.6707  0.1348 -0.5529
13471TIP3    H161828   2.804   5.359  11.668 -0.4743 -0.3603 -1.0086
13471TIP3    H261829   2.809   5.341  11.818  0.0363  0.5497 -0.9084
13472TIP3   OH261830   5.623   0.743  16.223 -0.5629  0.4841  0.2956
13472TIP3    H161831   5.633   0.746  16.318  0.3124 -2.7129  0.4200
13472TIP3    H261832   5.712   0.733  16.189 -1.0463 -3.5184 -0.3630
13473TIP3   OH261833   3.681   4.451  15.465  0.1761 -0.6100  0.5081
13473TIP3    H161834   3.588   4.434  15.447  0.5202  0.5724 -3.1417
13473TIP3    H261835   3.728   4.391  15.407  1.5833  1.2621 -0.3890
13474TIP3   OH261836   4.270   4.142  14.686  0.1324 -0.2187 -0.6307
13474TIP3    H161837   4.360   4.126  14.712  0.1198  0.8459  0.1249
13474TIP3    H261838   4.227   4.173  14.765 -0.1702  2.0592 -1.5929
13475TIP3   OH261839   1.324   0.367   1.766  0.1853 -0.0548 -0.1673
13475TIP3    H161840   1.242   0.417   1.765 -0.1149 -0.5338 -0.0182
13475TIP3    H261841   1.381   0.414   1.706 -0.4341 -0.1049 -0.8080
13476TIP3   OH261842   2.330   2.332  14.757 -0.2740  0.1037 -0.7145
13476TIP3    H161843   2.423   2.319  14.772 -0.3930  0.1890  0.1408
13476TIP3    H261844   2.326   2.409  14.700  0.1755  0.0811 -0.7794
13477TIP3   OH261845   6.493   6.578   1.405 -0.5628 -0.3733  0.0316
13477TIP3    H161846   6.478   6.618   1.320 -1.9386  0.3700  0.5895
13477TIP3    H261847   6.482   6.484   1.390 -0.9010 -0.2369 -0.5841
13478TIP3   OH261848   1.479   5.477  11.705  0.0437 -0.9018 -0.2220
13478TIP3    H161849   1.492   5.566  11.738 -0.6699 -1.0195  0.3828
13478TIP3    H261850   1.504   5.483  11.612  1.5303 -0.4452  0.1805
13479TIP3   OH261851   2.298   3.475  16.809  0.1579  0.6109  0.2687
13479TIP3    H161852   2.388   3.445  16.821  0.5573  1.6072 -0.1089
13479TIP3    H261853   2.264   3.420  16.737  0.1678 -0.3391  0.9683
13480TIP3   OH261854   1.506   5.330   3.652 -0.6089 -0.2834 -0.0987
13480TIP3    H161855   1.536   5.246   3.687 -2.3732 -1.2891 -0.8710
13480TIP3    H261856   1.420   5.311   3.616 -0.3914  1.5075 -1.7087
13481TIP3   OH261857   0.510   0.364   5.237 -0.0701 -0.2437  0.2538
13481TIP3    H161858   0.543   0.454   5.238 -1.0173  0.1175  0.5198
13481TIP3    H261859   0.570   0.317   5.179  0.9401  0.3539  0.7886
13482TIP3   OH261860   2.602   2.387   4.916  0.0062  1.2270 -0.0421
13482TIP3    H161861   2.602   2.396   5.011 -0.0724  1.1946 -0.0387
13482TIP3    H261862   2.539   2.317   4.898  0.6787  0.6224 -0.0632
13483TIP3   OH261863   5.147   2.977   1.687 -0.1128 -0.6300  0.2348
13483TIP3    H161864   5.064   3.018   1.713  1.3376  2.1363  0.8129
13483TIP3    H261865   5.177   3.029   1.613  1.6667 -0.8408  0.7684
13484TIP3   OH261866   6.357   1.885   0.717 -0.3021 -0.2020 -0.3223
13484TIP3    H161867   6.295   1.953   0.690 -1.4751 -0.8447  0.6581
13484TIP3    H261868   6.386   1.912   0.804 -0.4089 -0.7055 -0.1271
13485TIP3   OH261869   3.480   4.964  15.691 -0.0548  0.0586 -0.2678
13485TIP3    H161870   3.447   4.889  15.741  0.6997 -0.1489 -0.0623
13485TIP3    H261871   3.497   4.929  15.603 -1.5305  0.4608 -0.7332
13486TIP3   OH261872   5.437   2.777   5.242 -0.0896  0.3462  0.0722
13486TIP3    H161873   5.485   2.856   5.218 -1.0979  0.7933 -0.5044
13486TIP3    H261874   5.386   2.755   5.164  1.2313 -1.7032 -0.3258
13487TIP3   OH261875   3.049   5.595  17.200 -0.3744  0.1482  0.2293
13487TIP3    H161876   3.112   5.595  17.272  2.7775 -0.4871 -2.3063
13487TIP3    H261877   2.964   5.592  17.243  1.1968  2.0461  3.9281
13488TIP3   OH261878   4.439   6.011  16.527 -0.2137  0.0726  0.4413
13488TIP3    H161879   4.500   5.942  16.501 -0.4123  0.0352  0.0646
13488TIP3    H261880   4.385   6.026  16.449 -1.3544 -0.6041  1.0685
13489TIP3   OH261881   2.524   0.184   3.241  0.4295 -0.2538 -0.2486
13489TIP3    H161882   2.540   0.235   3.161  3.9351 -1.0226 -0.2197
13489TIP3    H261883   2.585   0.110   3.234 -0.7918 -1.6021  2.1285
13490TIP3   OH261884   3.762   5.072   1.254 -0.5901  0.1135 -0.1659
13490TIP3    H161885   3.778   4.980   1.272 -0.4927 -0.1748 -1.6036
13490TIP3    H261886   3.705   5.072   1.177 -0.2484  1.2565 -0.4353
13491TIP3   OH261887   4.655   6.603   6.177 -0.1871  0.2930 -0.3237
13491TIP3    H161888   4.682   6.513   6.194 -0.2209  0.4187  0.4539
13491TIP3    H261889   4.736   6.648   6.153  0.3846  0.6813  2.0405
13492TIP3   OH261890   4.306   0.798   1.973  1.0540  0.4071 -0.0238
13492TIP3    H161891   4.367   0.730   2.002 -0.6085 -1.4777 -0.6602
13492TIP3    H261892   4.309   0.864   2.042  3.0972 -0.0684  0.3971
13493TIP3   OH261893   3.709   5.038   2.955  0.1470  0.0947 -0.3600
13493TIP3    H161894   3.742   4.950   2.938 -1.9863 -1.1402  1.4109
13493TIP3    H261895   3.737   5.089   2.879  1.1306 -2.1840 -1.6265
13494TIP3   OH261896   6.695   3.272   2.592 -0.0580 -0.6221  0.0872
13494TIP3    H161897   6.775   3.324   2.580 -0.9879  0.7396 -0.3135
13494TIP3    H261898   6.663   3.297   2.679 -0.1772 -1.0096  0.1575
13495TIP3   OH261899   5.414   3.858   0.573 -0.5648 -0.1452 -0.0283
13495TIP3    H161900   5.352   3.785   0.568  0.1209 -0.8976  1.6358
13495TIP3    H261901   5.481   3.828   0.634  1.5279  0.5959 -1.8308
13496TIP3   OH261902   1.804   6.334  17.211  0.2255 -0.2693 -0.0106
13496TIP3    H161903   1.863   6.389  17.159  0.0232 -0.4366 -0.4181
13496TIP3    H261904   1.762   6.276  17.148  0.0183 -0.5154  0.3462
13497TIP3   OH261905   0.938   3.641  13.955  0.1016 -0.5361  0.1842
13497TIP3    H161906   0.859   3.616  14.003 -0.6563  1.2867 -0.0328
13497TIP3    H261907   0.929   3.735  13.940  0.7090 -0.8422 -2.8101
13498TIP3   OH261908   3.834   6.544  13.045  0.0768 -0.7298 -0.5500
13498TIP3    H161909   3.850   6.473  13.108  0.8821  0.0143  0.1095
13498TIP3    H261910   3.752   6.519  13.002 -0.3889 -1.3682  0.6473
13499TIP3   OH261911   5.586   4.350   6.254 -0.2446 -0.1175  0.0534
13499TIP3    H161912   5.521   4.376   6.319 -2.5134  0.3610 -2.2244
13499TIP3    H261913   5.581   4.254   6.251  0.2697 -0.1793  0.9246
13500TIP3   OH261914   3.901   2.473   1.230  0.3803 -0.0988  0.8572
13500TIP3    H161915   3.903   2.393   1.283 -0.3296 -2.9695 -3.0057
13500TIP3    H261916   3.992   2.487   1.204  0.1705 -1.5983 -0.8934
13501TIP3   OH261917   2.667   3.323   5.587  0.3635 -0.5586  0.2526
13501TIP3    H161918   2.585   3.352   5.546 -0.5659 -1.2112  1.5466
13501TIP3    H261919   2.638   3.277   5.666  2.0156 -0.4100  0.9765
13502TIP3   OH261920   4.601   5.820   3.015  0.1294  0.2476  0.6517
13502TIP3    H161921   4.626   5.909   2.990  2.0695 -0.2227  0.7467
13502TIP3    H261922   4.647   5.764   2.953 -0.0565 -0.7398  1.3812
13503TIP3   OH261923   5.345   2.037  13.559 -0.4549 -0.6173 -0.1043
13503TIP3    H161924   5.411   2.096  13.522 -2.0321  0.0476 -2.0703
13503TIP3    H261925   5.336   2.064  13.650  0.7800  0.3596 -0.2504
13504TIP3   OH261926   6.467   2.405   0.813  0.1021  0.3567 -0.1739
13504TIP3    H161927   6.423   2.486   0.786 -1.5596 -1.5273 -3.8046
13504TIP3    H261928   6.405   2.362   0.872 -1.0825 -0.2473 -1.7923
13505TIP3   OH261929   1.820   1.297  12.480 -0.2882  0.4160  1.0946
13505TIP3    H161930   1.751   1.319  12.542 -1.8828  2.5081 -1.2297
13505TIP3    H261931   1.880   1.372  12.483 -0.1774  0.3620  0.3965
13506TIP3   OH261932   5.557   2.722   1.083 -0.0708  0.4157  0.4578
13506TIP3    H161933   5.570   2.659   1.013 -1.1542  0.9937 -0.2871
13506TIP3    H261934   5.464   2.716   1.104 -0.2746  1.9998  0.1290
13507TIP3   OH261935   4.254   6.254   4.189  0.4487  0.6978 -0.1478
13507TIP3    H161936   4.314   6.261   4.264 -1.2311  0.0729  1.3283
13507TIP3    H261937   4.263   6.338   4.144  1.2478  1.2371  0.9478
13508TIP3   OH261938   1.758   4.799   5.476  0.6353 -0.0521  0.1203
13508TIP3    H161939   1.684   4.777   5.532 -1.0873  3.6801 -0.4323
13508TIP3    H261940   1.827   4.826   5.536  0.1093  0.3448  0.5534
13509TIP3   OH261941   4.673   6.351   5.753 -0.2241 -0.2121 -0.1332
13509TIP3    H161942   4.664   6.263   5.716  0.4179  0.2082 -1.3490
13509TIP3    H261943   4.625   6.407   5.693  1.8650  0.6542 -1.0951
13510TIP3   OH261944   1.515   4.870  10.291  0.0835 -1.0787 -0.6977
13510TIP3    H161945   1.445   4.806  10.298 -0.2221 -0.8246 -1.3497
13510TIP3    H261946   1.516   4.914  10.376 -1.8309  0.2255 -1.2887
13511TIP3   OH261947   4.428   1.881  16.552 -0.0675 -0.0376  0.1827
13511TIP3    H161948   4.522   1.899  16.558 -0.2943  0.9769  1.1447
13511TIP3    H261949   4.388   1.966  16.534 -0.8410 -0.3585  0.3423
13512TIP3   OH261950   0.189   4.848   3.011 -0.5549 -0.2023 -0.3741
13512TIP3    H161951   0.182   4.814   3.100 -0.7013  0.3917 -0.1549
13512TIP3    H261952   0.271   4.896   3.010  1.1571 -2.9093 -1.5032
13513TIP3   OH261953   6.220   5.808  12.521  0.0496  0.0237  0.3551
13513TIP3    H161954   6.274   5.828  12.445  0.2884  1.3684  0.8530
13513TIP3    H261955   6.141   5.767  12.485  1.0300 -1.1953 -0.4419
13514TIP3   OH261956   3.528   1.629   1.751 -0.7397  0.0198 -0.1303
13514TIP3    H161957   3.554   1.703   1.806 -0.8226 -0.4852  0.5978
13514TIP3    H261958   3.508   1.669   1.666  1.3457  0.5868 -0.4309
13515TIP3   OH261959   6.661   1.832   2.791  0.0678  0.4672 -0.2541
13515TIP3    H161960   6.728   1.832   2.723  0.6110  0.0241  0.2809
13515TIP3    H261961   6.698   1.781   2.863 -0.8352  0.2100  0.0495
13516TIP3   OH261962   5.209   6.433  12.934 -0.0630 -0.3534 -0.4247
13516TIP3    H161963   5.226   6.428  12.840  0.1413  0.1595 -0.4193
13516TIP3    H261964   5.130   6.379  12.948  0.0781 -0.6676 -0.8402
13517TIP3   OH261965   2.229   6.487  16.074  0.3542 -0.1847 -0.3771
13517TIP3    H161966   2.315   6.526  16.064 -0.0458  0.9034  0.1916
13517TIP3    H261967   2.212   6.443  15.991  1.1446  0.2195 -0.7641
13518TIP3   OH261968   6.086   3.668   0.611 -0.4475  0.5798  0.5066
13518TIP3    H161969   6.062   3.759   0.627 -0.6286  0.2837  2.1203
13518TIP3    H261970   6.114   3.635   0.697  0.3523 -0.6702 -0.2023
13519TIP3   OH261971   1.119   0.364  16.028 -0.3526  0.0050 -0.3682
13519TIP3    H161972   1.114   0.418  15.950  2.2697  0.6397 -0.1874
13519TIP3    H261973   1.213   0.349  16.042 -0.7351 -0.5333  2.3331
13520TIP3   OH261974   1.313   2.728  10.141 -0.5523  0.4240 -0.0953
13520TIP3    H161975   1.393   2.770  10.175  0.2965 -0.0118 -1.4663
13520TIP3    H261976   1.339   2.638  10.125 -1.0734  0.4901 -1.3688
13521TIP3   OH261977   3.716   0.580  14.229 -0.0109 -0.2483 -0.0349
13521TIP3    H161978   3.623   0.603  14.224 -0.6563 -2.8105 -2.0887
13521TIP3    H261979   3.721   0.518  14.302  0.2404  0.3927  0.5008
13522TIP3   OH261980   4.988   1.502  12.170  0.8365 -0.4737  0.2010
13522TIP3    H161981   5.026   1.433  12.225  1.4161  1.8969  3.0132
13522TIP3    H261982   4.950   1.564  12.232 -1.8468  0.6059 -2.2711
13523TIP3   OH261983   1.718   6.744   3.413 -0.6408  0.1802 -0.2204
13523TIP3    H161984   1.806   6.778   3.401 -0.7646  1.1748  1.3654
13523TIP3    H261985   1.729   6.649   3.416  0.6402  0.3390  1.5651
13524TIP3   OH261986   5.187   1.903  15.079 -0.1061 -0.1977 -0.1962
13524TIP3    H161987   5.204   1.814  15.110 -0.2682  0.3444  1.5191
13524TIP3    H261988   5.118   1.936  15.135 -0.6544  0.7385 -1.3680
13525TIP3   OH261989   3.811   3.178   5.977  0.3032 -0.4278 -0.4851
13525TIP3    H161990   3.797   3.084   5.993  0.0453 -0.2780  0.1836
13525TIP3    H261991   3.735   3.220   6.017  0.2717  0.0488 -1.0420
13526TIP3   OH261992   0.736   5.880   1.695 -0.3026  0.4016  0.5207
13526TIP3    H161993   0.683   5.929   1.758  1.3704  1.2443  1.3204
13526TIP3    H261994   0.687   5.887   1.613 -0.6670  2.5123  0.8600
13527TIP3   OH261995   3.710   6.108   5.401 -0.1977 -0.3604 -0.4653
13527TIP3    H161996   3.683   6.025   5.362  0.1425 -0.0701 -1.3287
13527TIP3    H261997   3.787   6.134   5.350  0.7677 -0.3814  0.9146
13528TIP3   OH261998   5.999   1.181   0.146 -0.7823 -0.1484  0.0619
13528TIP3    H161999   6.081   1.229   0.150 -0.6744 -0.3063 -0.2258
13528TIP3    H262000   5.931   1.249   0.143 -0.7287 -0.0137  1.4224
13529TIP3   OH262001   4.935   4.366   4.354 -0.6026  0.1046  0.5105
13529TIP3    H162002   4.968   4.331   4.437 -0.7801 -1.4560 -0.0362
13529TIP3    H262003   4.876   4.299   4.322  1.0901 -0.3737 -1.9278
13530TIP3   OH262004   6.060   5.146  14.257  0.0508  0.3082 -0.0460
13530TIP3    H162005   5.971   5.181  14.265 -0.9033 -1.3673 -2.1765
13530TIP3    H262006   6.100   5.199  14.188 -1.1382 -1.9791 -2.7262
13531TIP3   OH262007   5.248   4.405   2.589  0.1604  0.3961  0.0643
13531TIP3    H162008   5.257   4.422   2.495  1.3028  0.5899  0.1931
13531TIP3    H262009   5.214   4.487   2.625 -1.3727 -0.0413 -0.3174
13532TIP3   OH262010   5.899   0.031  11.967  0.0684 -0.2130 -0.2112
13532TIP3    H162011   5.918  -0.006  11.881 -1.7032  1.6799 -1.5060
13532TIP3    H262012   5.955   0.108  11.972 -0.0756 -0.1359  0.2007
13533TIP3   OH262013   1.956   0.649  13.548  0.1715 -0.6198  0.1428
13533TIP3    H162014   2.007   0.728  13.566 -0.5998 -0.0100 -0.2980
13533TIP3    H262015   1.956   0.602  13.631  0.9100 -0.3275  0.3237
13534TIP3   OH262016   0.407   0.807   2.728  0.6856  0.1156  0.4531
13534TIP3    H162017   0.362   0.723   2.735  1.7546 -0.3529  1.9756
13534TIP3    H262018   0.381   0.856   2.806 -0.2935  1.4208 -0.6355
13535TIP3   OH262019   3.297   3.712   6.136  0.2861 -0.1096  0.0960
13535TIP3    H162020   3.391   3.696   6.133  0.4106  0.3621 -3.8006
13535TIP3    H262021   3.289   3.802   6.168  1.0141 -0.5342  1.5539
13536TIP3   OH262022   5.170   4.201  14.659 -0.0994  0.0375 -0.9553
13536TIP3    H162023   5.226   4.131  14.693  0.9992  0.9562 -0.7759
13536TIP3    H262024   5.196   4.279  14.710 -1.8172  0.4270 -0.6169
13537TIP3   OH262025   3.627   0.181  11.958  0.2976 -0.2267  0.2360
13537TIP3    H162026   3.696   0.133  12.003  1.4021  2.3138  1.4586
13537TIP3    H262027   3.548   0.163  12.009  0.9871  0.3491  1.5596
13538TIP3   OH262028   2.680   2.816  16.897  0.3401 -0.0939 -0.3171
13538TIP3    H162029   2.661   2.869  16.974  1.7765  0.4492 -0.3059
13538TIP3    H262030   2.624   2.739  16.907 -0.4756  0.5831  0.5715
13539TIP3   OH262031   4.726   2.878   0.618 -0.2651 -0.5754 -0.5335
13539TIP3    H162032   4.799   2.821   0.644  1.2923  1.8977  0.8971
13539TIP3    H262033   4.667   2.879   0.693 -0.3315 -0.3637 -0.5881
13540TIP3   OH262034   0.474   4.336  12.117 -0.3632 -0.2843  0.1938
13540TIP3    H162035   0.519   4.419  12.099  1.1985 -1.1966 -0.2738
13540TIP3    H262036   0.522   4.298  12.191 -1.5467 -0.4415  0.9085
13541TIP3   OH262037   4.966   5.824   5.161  0.1412 -0.7181  0.1967
13541TIP3    H162038   4.887   5.797   5.208  2.1601 -4.2235  1.9642
13541TIP3    H262039   4.969   5.767   5.084 -0.9203  2.1172 -2.1411
13542TIP3   OH262040   3.358   5.550   6.504 -0.0324  0.3971  0.1273
13542TIP3    H162041   3.380   5.618   6.567  1.8692  1.8249 -1.9368
13542TIP3    H262042   3.370   5.591   6.418 -0.0532 -2.1574 -1.2069
13543TIP3   OH262043   6.327   3.943   2.774  0.3544 -0.4951  0.0711
13543TIP3    H162044   6.382   3.989   2.710  2.0128  0.3085  1.9689
13543TIP3    H262045   6.244   3.927   2.728  1.5215 -0.1262 -2.3068
13544TIP3   OH262046   3.491   4.862   0.446 -0.0029  0.1402  0.2555
13544TIP3    H162047   3.469   4.787   0.391 -0.1005 -0.6391  1.3243
13544TIP3    H262048   3.584   4.878   0.430 -0.2338  0.5072 -0.8021
13545TIP3   OH262049   3.787   2.605  15.288 -0.0923 -0.0241  0.2732
13545TIP3    H162050   3.752   2.656  15.214 -1.4501  0.0536  0.9302
13545TIP3    H262051   3.818   2.671  15.350  1.9050 -0.1013 -0.5797
13546TIP3   OH262052   6.513   2.301  13.679  0.2670  0.2406 -0.2924
13546TIP3    H162053   6.602   2.265  13.682  0.8940  1.6935 -0.5915
13546TIP3    H262054   6.456   2.224  13.670  1.2836 -0.9203  2.3070
13547TIP3   OH262055   4.723   1.316  13.303  0.0381 -0.0851  0.4352
13547TIP3    H162056   4.675   1.345  13.381 -0.6524  1.4198 -0.5148
13547TIP3    H262057   4.760   1.396  13.266 -0.5039 -0.6208 -1.3517
13548TIP3   OH262058   0.662   1.924  13.959 -0.7863 -0.5437 -0.2335
13548TIP3    H162059   0.606   1.980  13.906  0.3958  0.0394 -0.9176
13548TIP3    H262060   0.647   1.954  14.049 -0.3700  0.7190 -0.5640
13549TIP3   OH262061   6.136   1.172   5.947  0.6206 -0.1912 -0.1628
13549TIP3    H162062   6.109   1.081   5.937  0.1746 -0.1540  0.6402
13549TIP3    H262063   6.097   1.200   6.030  1.3108  0.5279 -0.0703
13550TIP3   OH262064   1.648   4.521  13.495 -0.3227 -0.2461 -0.1470
13550TIP3    H162065   1.706   4.535  13.420  0.2287  1.4468  0.5614
13550TIP3    H262066   1.630   4.427  13.493  1.0312 -0.5218 -1.4167
13551TIP3   OH262067   3.989   0.887  12.034 -0.0132 -0.3361 -0.0056
13551TIP3    H162068   3.955   0.939  11.961 -1.8859 -1.0997  0.2636
13551TIP3    H262069   4.059   0.834  11.996  0.5359  0.8518 -0.7295
13552TIP3   OH262070   4.440   6.266  13.017 -0.2337  0.1095 -0.1444
13552TIP3    H162071   4.387   6.201  12.972 -0.8791 -1.1701  2.2706
13552TIP3    H262072   4.382   6.343  13.025  0.3235  0.8552 -2.4636
13553TIP3   OH262073   6.222   1.536  14.243 -0.0617  0.2153 -0.4109
13553TIP3    H162074   6.287   1.468  14.222  0.9059  0.9404  0.1592
13553TIP3    H262075   6.138   1.491  14.239  0.4657 -0.7266 -1.2682
13554TIP3   OH262076   2.052   1.925   0.544 -0.5027  0.6419  0.5452
13554TIP3    H162077   2.109   1.981   0.492 -0.0283  1.2648  1.6945
13554TIP3    H262078   2.077   1.836   0.520 -2.8193  0.7755 -3.0173
13555TIP3   OH262079   5.214   1.313  17.258 -0.3130 -0.0056 -0.6422
13555TIP3    H162080   5.183   1.343  17.344 -0.7692 -0.0529 -0.7848
13555TIP3    H262081   5.198   1.218  17.260 -1.2883  0.1389 -1.1646
13556TIP3   OH262082   0.174   2.070   4.552 -0.2140 -0.0723 -0.2354
13556TIP3    H162083   0.227   2.114   4.619 -0.7639  0.2827 -0.0230
13556TIP3    H262084   0.139   1.992   4.597 -1.3493  0.6616  0.2012
13557TIP3   OH262085   3.398   4.250  12.290  0.2014 -0.5280  0.3740
13557TIP3    H162086   3.348   4.183  12.244 -1.5291 -0.7288  2.3891
13557TIP3    H262087   3.457   4.201  12.348 -0.5909 -0.3398  1.3626
13558TIP3   OH262088   0.599   1.438  12.337  0.4020 -0.3257  0.2084
13558TIP3    H162089   0.541   1.367  12.311  0.1790 -0.1757  0.2952
13558TIP3    H262090   0.610   1.427  12.432  0.1356 -0.0757  0.2711
13559TIP3   OH262091   4.954   6.355   2.864  0.0709 -0.0708  0.3258
13559TIP3    H162092   4.990   6.359   2.775 -0.4720  0.8504  0.1249
13559TIP3    H262093   4.895   6.280   2.863 -1.7865  1.3077 -0.8565
13560TIP3   OH262094   5.263   3.703   0.029  0.7803 -0.3947  0.6499
13560TIP3    H162095   5.267   3.679   0.121  0.4705  1.7804  1.2951
13560TIP3    H262096   5.244   3.797   0.030 -0.8587 -0.6341 -1.6564
13561TIP3   OH262097   0.768   4.829   5.665 -0.0394  0.3054  0.1653
13561TIP3    H162098   0.690   4.788   5.629  0.2102 -0.9529  0.9866
13561TIP3    H262099   0.768   4.917   5.629 -1.2158 -0.0493 -0.7546
13562TIP3   OH262100   5.051   4.416  12.746 -0.0011  0.3137  0.1280
13562TIP3    H162101   5.074   4.339  12.694  1.8615  0.6566  0.3747
13562TIP3    H262102   4.959   4.403  12.769  0.4850 -2.3214  0.9616
13563TIP3   OH262103   0.232   4.540  15.684  0.0224 -0.1577  0.2059
13563TIP3    H162104   0.146   4.580  15.697 -0.1414 -0.7163  0.9056
13563TIP3    H262105   0.259   4.568  15.597 -0.9870 -0.1903 -0.1264
13564TIP3   OH262106   1.802   5.368   1.328  0.0076 -0.1819 -0.1834
13564TIP3    H162107   1.805   5.329   1.416 -0.0567 -0.7102 -0.4143
13564TIP3    H262108   1.725   5.330   1.287  0.8959 -1.1479 -1.0190
13565TIP3   OH262109   1.087   0.139  16.293  0.1747  0.3821  0.2363
13565TIP3    H162110   1.085   0.070  16.227  0.5412  1.1379 -0.5745
13565TIP3    H262111   1.005   0.127  16.343 -0.1736 -0.0957 -0.4417
13566TIP3   OH262112   6.464   1.410  12.494 -0.2322 -0.2342  0.0223
13566TIP3    H162113   6.420   1.457  12.565  0.0435 -1.5142  1.0742
13566TIP3    H262114   6.460   1.318  12.520  0.6032 -0.6452 -1.2274
13567TIP3   OH262115   2.027   0.701   5.947 -0.3807 -0.0085  0.0470
13567TIP3    H162116   1.964   0.656   6.003 -0.7791  1.4093  0.7873
13567TIP3    H262117   2.055   0.777   5.999 -1.1132  1.6185 -1.8379
13568TIP3   OH262118   4.849   2.314  10.867 -0.0018  0.1405 -0.1342
13568TIP3    H162119   4.838   2.366  10.788  0.1808 -0.1291 -0.3399
13568TIP3    H262120   4.901   2.239  10.839  2.5524  1.4304  0.8221
13569TIP3   OH262121   2.974   3.710  17.244 -0.2104  0.2839 -0.2785
13569TIP3    H162122   2.983   3.802  17.268 -0.0991  0.2387 -0.1442
13569TIP3    H262123   3.062   3.674  17.256 -0.3430  0.0677  0.0535
13570TIP3   OH262124   3.129   0.156  11.715  0.6166  0.1880  0.4164
13570TIP3    H162125   3.208   0.172  11.664  0.3791 -1.1536 -0.4302
13570TIP3    H262126   3.122   0.231  11.774  1.3730  1.3546 -0.9244
13571TIP3   OH262127   0.401   1.940   4.680  0.4475  0.0202  0.1986
13571TIP3    H162128   0.331   1.961   4.742 -0.4547 -0.3524 -0.6714
13571TIP3    H262129   0.481   1.943   4.733 -0.1684  0.8448  1.1305
13572TIP3   OH262130   3.251   0.099   6.257 -0.1191  0.2633  0.5027
13572TIP3    H162131   3.213   0.179   6.220  0.1970  0.4415  0.5600
13572TIP3    H262132   3.280   0.125   6.344  1.4117  0.5119 -0.0427
13573TIP3   OH262133   4.955   2.360   1.786  0.0675 -0.0317  0.6327
13573TIP3    H162134   4.976   2.356   1.879 -1.1086 -0.6850  0.8807
13573TIP3    H262135   4.968   2.270   1.755 -0.6662 -0.0648  0.4162
13574TIP3   OH262136   6.732   0.814  11.474 -0.4323 -0.1942 -0.0943
13574TIP3    H162137   6.766   0.771  11.395  1.0492  0.2696  0.2571
13574TIP3    H262138   6.658   0.866  11.443 -0.3033 -0.5615 -1.0589
13575TIP3   OH262139   6.358   0.362  16.538 -0.6600  0.0256 -0.4047
13575TIP3    H162140   6.424   0.294  16.551 -2.6402 -1.6617  1.7557
13575TIP3    H262141   6.302   0.327  16.468 -0.0357  0.8540 -1.3394
13576TIP3   OH262142   6.648   1.198   2.577  0.3190  0.3525  0.3257
13576TIP3    H162143   6.680   1.159   2.658 -2.3117 -0.3497  1.1242
13576TIP3    H262144   6.694   1.282   2.572  2.1312 -0.5121  1.3745
13577TIP3   OH262145   3.562   4.772  12.129  0.1407  0.2149  0.5950
13577TIP3    H162146   3.608   4.692  12.157  0.0956 -0.3056 -0.7349
13577TIP3    H262147   3.618   4.810  12.062 -0.9341  0.0104 -0.4706
13578TIP3   OH262148   2.266   3.497   3.618  0.1484 -0.4030  0.0418
13578TIP3    H162149   2.235   3.407   3.630 -1.8299  0.2924  0.5717
13578TIP3    H262150   2.328   3.492   3.546 -0.9613 -2.0053 -0.8669
13579TIP3   OH262151   6.322   4.159   3.481  0.0499 -0.0757 -0.2095
13579TIP3    H162152   6.416   4.159   3.460  0.0666 -1.1881 -0.1787
13579TIP3    H262153   6.318   4.128   3.572 -0.4353 -1.5711 -0.7156
13580TIP3   OH262154   6.275   5.544  15.272 -1.1209 -0.1045  0.2851
13580TIP3    H162155   6.299   5.458  15.238 -1.7790  0.2669 -1.2275
13580TIP3    H262156   6.182   5.554  15.248 -1.2345  0.7478  1.0259
13581TIP3   OH262157   6.393   3.751   4.142 -0.5461  0.2725  0.7118
13581TIP3    H162158   6.332   3.782   4.209 -2.4744  1.8853 -1.6308
13581TIP3    H262159   6.385   3.656   4.145 -0.7726  0.3045  2.5309
13582TIP3   OH262160   6.023   2.723  11.848 -0.1873 -0.2314  0.1421
13582TIP3    H162161   6.012   2.731  11.753  0.1308 -2.0857 -0.0872
13582TIP3    H262162   6.117   2.712  11.860 -0.2057  0.1884  0.7031
13583TIP3   OH262163   1.346   2.439   1.976  0.3775 -0.0253  0.2413
13583TIP3    H162164   1.424   2.455   1.922  0.3698 -0.2011  0.1803
13583TIP3    H262165   1.336   2.520   2.026  1.3631 -0.4548  1.1984
13584TIP3   OH262166   2.982   1.613   5.436 -0.2699 -0.1151 -0.2749
13584TIP3    H162167   3.010   1.533   5.480 -2.5791 -0.8895 -0.0650
13584TIP3    H262168   2.887   1.615   5.448 -0.4361  2.0096 -1.3835
13585TIP3   OH262169   0.616   5.515  15.663 -0.2485 -0.2898  1.1028
13585TIP3    H162170   0.613   5.459  15.740 -0.3428  0.8713  1.9640
13585TIP3    H262171   0.587   5.601  15.694 -2.4666 -0.2829 -0.6728
13586TIP3   OH262172   4.733   1.439  16.299 -0.6723 -0.0481 -0.1131
13586TIP3    H162173   4.817   1.437  16.343  0.4911 -1.1737 -2.2066
13586TIP3    H262174   4.749   1.486  16.217 -1.0788 -3.2044 -2.1912
13587TIP3   OH262175   6.331   4.594  14.423 -0.7047 -0.0251  0.4641
13587TIP3    H162176   6.249   4.612  14.376  0.0040  0.1743 -0.7341
13587TIP3    H262177   6.305   4.593  14.515 -1.9158  0.8403  0.1676
13588TIP3   OH262178   1.619   6.411  12.425  0.1971  0.4696  0.0243
13588TIP3    H162179   1.674   6.414  12.347 -4.2986 -0.4629 -3.6583
13588TIP3    H262180   1.603   6.318  12.440 -1.3124  0.7145  0.1067
13589TIP3   OH262181   5.774   5.116   0.088  1.0711 -0.2213  0.6393
13589TIP3    H162182   5.786   5.151  -0.000  0.7966  0.2692  0.7954
13589TIP3    H262183   5.833   5.167   0.143  0.6443  0.0246  0.8744
13590TIP3   OH262184   4.628   6.250   6.119  0.3489  0.2652  0.4987
13590TIP3    H162185   4.568   6.231   6.191 -1.0010  1.0813 -0.3463
13590TIP3    H262186   4.714   6.255   6.159 -0.5113  1.9724  2.3032
13591TIP3   OH262187   4.549   3.867   5.116 -1.0930 -0.5383  0.4523
13591TIP3    H162188   4.457   3.847   5.106 -1.2814  0.2476  0.5209
13591TIP3    H262189   4.554   3.915   5.199 -0.4738 -1.4699  0.9736
13592TIP3   OH262190   5.987   1.436  12.970  0.4021 -0.5633 -0.0942
13592TIP3    H162191   5.977   1.420  12.876 -0.8479 -0.7742  0.0476
13592TIP3    H262192   5.932   1.513  12.987 -2.8830 -2.9624  1.1229
13593TIP3   OH262193   3.351   5.060  13.799 -0.0864 -0.0011  0.3403
13593TIP3    H162194   3.444   5.038  13.809  0.0420  0.8698  1.1433
13593TIP3    H262195   3.320   5.000  13.731  1.5247  1.0104 -1.3661
13594TIP3   OH262196   0.555   4.258  17.240 -0.4290 -0.8554  0.8919
13594TIP3    H162197   0.624   4.305  17.289 -1.2324  1.0210  0.3296
13594TIP3    H262198   0.568   4.285  17.149 -2.6192  0.5974  0.9216
13595TIP3   OH262199   4.692   3.210   2.141  0.6216  0.4111 -0.5203
13595TIP3    H162200   4.739   3.207   2.058  1.0618 -2.1489 -0.2735
13595TIP3    H262201   4.601   3.191   2.118  0.5987  0.4825 -0.4903
13596TIP3   OH262202   2.855   6.696   1.240  0.6551 -0.0429 -0.0248
13596TIP3    H162203   2.906   6.766   1.281  1.8338 -1.5208  1.1305
13596TIP3    H262204   2.832   6.638   1.312 -1.0738 -0.4057 -0.8292
13597TIP3   OH262205   4.935   4.254  14.967  0.1528 -0.4739  0.3508
13597TIP3    H162206   5.024   4.222  14.954  0.3920  1.0082 -2.4074
13597TIP3    H262207   4.937   4.346  14.940 -2.1361 -0.2875  0.5483
13598TIP3   OH262208   1.056   6.025  13.735 -0.1801 -0.1964 -0.0252
13598TIP3    H162209   0.990   6.039  13.802  0.0373 -0.2910  0.2087
13598TIP3    H262210   1.039   5.937  13.701 -0.6560  0.0762 -0.5038
13599TIP3   OH262211   4.670   0.806   2.937  0.1379 -0.1184  0.2204
13599TIP3    H162212   4.692   0.769   2.852  2.9837 -1.0393  1.2375
13599TIP3    H262213   4.711   0.893   2.937 -1.8310  0.8669 -0.1296
13600TIP3   OH262214   5.733   5.347   2.774  0.3328  0.5514 -0.7773
13600TIP3    H162215   5.666   5.406   2.740  0.7679  1.3049 -0.3424
13600TIP3    H262216   5.792   5.403   2.824  1.7040  0.0224 -1.7403
13601TIP3   OH262217   1.305   6.682  13.511 -0.2640 -0.0789  0.2676
13601TIP3    H162218   1.265   6.601  13.542 -1.3040 -0.0514 -0.9267
13601TIP3    H262219   1.384   6.692  13.565 -0.7867 -1.2070  1.2882
13602TIP3   OH262220   5.268   0.035  16.033  0.8397  0.6280 -0.2193
13602TIP3    H162221   5.222   0.074  16.108  1.9540  1.5071  0.0239
13602TIP3    H262222   5.209  -0.034  16.003 -0.1095  0.9555  0.8110
13603TIP3   OH262223   0.902   3.182   2.518 -0.4106 -0.0039 -0.4491
13603TIP3    H162224   0.808   3.197   2.518 -0.3058  1.1132 -3.1750
13603TIP3    H262225   0.912   3.088   2.501 -0.9895 -0.3960  1.2214
13604TIP3   OH262226   4.495   0.004   5.679 -0.1018  0.7526 -0.8289
13604TIP3    H162227   4.405   0.021   5.709  0.1929  2.3606 -0.7269
13604TIP3    H262228   4.521  -0.075   5.725 -0.9322  1.1606  0.4051
13605TIP3   OH262229   0.790   6.078  16.383  0.0713  0.2405  0.9519
13605TIP3    H162230   0.726   6.091  16.454 -0.3337  0.4799  0.5496
13605TIP3    H262231   0.769   6.147  16.320 -1.2156 -1.4739 -0.5943
13606TIP3   OH262232   3.100   5.700  16.959  0.2397 -0.1925  0.6997
13606TIP3    H162233   3.061   5.699  17.047  1.5924  0.1416  1.3303
13606TIP3    H262234   3.155   5.622  16.956 -1.4004 -1.3823 -0.6573
13607TIP3   OH262235   3.375   4.068  13.660 -0.9000 -0.3956  0.6882
13607TIP3    H162236   3.467   4.079  13.637 -0.7699  0.6705  1.5984
13607TIP3    H262237   3.331   4.050  13.577  0.2021 -1.5835  0.3270
13608TIP3   OH262238   0.427   6.163   3.835 -0.1736 -0.0461  0.0140
13608TIP3    H162239   0.406   6.190   3.924 -0.7402  0.1792 -0.1861
13608TIP3    H262240   0.498   6.099   3.846  0.4019  0.6660  0.5610
13609TIP3   OH262241   5.103   6.009  11.821 -0.0199  0.1989  0.3963
13609TIP3    H162242   5.158   6.006  11.743 -2.3921  0.5143 -1.4142
13609TIP3    H262243   5.128   6.091  11.864  0.8745  0.3677 -0.3971
13610TIP3   OH262244   3.778   2.460   0.281 -0.4345 -0.5389  0.6235
13610TIP3    H162245   3.856   2.423   0.322  1.0067  1.5057 -0.0978
13610TIP3    H262246   3.790   2.555   0.287 -1.1913 -0.1407 -2.5045
13611TIP3   OH262247   5.908   6.009  13.921  0.6647 -0.0413 -0.2670
13611TIP3    H162248   5.889   5.996  13.828 -0.1839 -2.0443  0.1202
13611TIP3    H262249   5.937   5.923  13.952  1.5013  0.7191  1.2152
13612TIP3   OH262250   0.679   2.047  16.213 -0.2833  0.5808 -0.1927
13612TIP3    H162251   0.711   2.013  16.129 -0.3550  1.0029 -0.3958
13612TIP3    H262252   0.728   2.128  16.226 -0.4205  0.6215  0.0762
13613TIP3   OH262253   0.149   4.734  13.683  0.2641  0.4018 -0.1606
13613TIP3    H162254   0.097   4.814  13.693 -0.6080  0.1205 -2.0151
13613TIP3    H262255   0.108   4.671  13.742 -0.3952  0.7117 -0.2739
13614TIP3   OH262256   5.606   5.540   0.722  0.4216 -0.3521  0.1781
13614TIP3    H162257   5.585   5.603   0.791  0.6118  0.0079 -0.0885
13614TIP3    H262258   5.572   5.580   0.642  1.4595 -0.0913 -0.1544
13615TIP3   OH262259   3.379   5.704  14.233  0.3875 -0.2394 -0.2739
13615TIP3    H162260   3.402   5.680  14.143 -0.2891 -0.3353 -0.4271
13615TIP3    H262261   3.297   5.658  14.250  0.5088 -0.2204  0.3971
13616TIP3   OH262262   6.662   1.928   5.597 -0.5125 -0.0911 -0.2333
13616TIP3    H162263   6.591   1.927   5.533 -0.0172  0.2271 -0.7983
13616TIP3    H262264   6.702   1.841   5.589  0.2562  0.3241 -1.1842
13617TIP3   OH262265   6.734   5.757   5.275  0.1752  0.0833  0.5391
13617TIP3    H162266   6.826   5.780   5.280  0.1769  0.2544 -0.2442
13617TIP3    H262267   6.732   5.670   5.234  0.0908 -0.7834  2.2839
13618TIP3   OH262268   1.532   6.097   1.616 -0.2984 -0.0779  0.3866
13618TIP3    H162269   1.507   6.164   1.680  0.3630 -0.8058  1.4465
13618TIP3    H262270   1.587   6.144   1.553 -0.1643  0.4602  0.8976
13619TIP3   OH262271   0.622   0.298   3.416  0.6403  0.0952  0.3618
13619TIP3    H162272   0.652   0.233   3.353  0.5000  0.2703  0.1150
13619TIP3    H262273   0.580   0.247   3.485  0.2861 -0.0576  0.0351
13620TIP3   OH262274   0.902   5.582  16.878  0.3196 -0.1097  0.2893
13620TIP3    H162275   0.993   5.606  16.861  0.4152 -1.0784 -0.6374
13620TIP3    H262276   0.860   5.582  16.792 -0.8042  1.2086  0.7937
13621TIP3   OH262277   2.689   4.158  13.454 -0.2858 -0.2392  0.5119
13621TIP3    H162278   2.784   4.174  13.451 -0.2291 -0.3954  1.3372
13621TIP3    H262279   2.674   4.092  13.386 -0.1220  1.2413 -1.0541
13622TIP3   OH262280   5.481   0.835  14.130  0.0161  0.1289 -0.2671
13622TIP3    H162281   5.559   0.784  14.111 -0.4713 -0.1774 -1.5320
13622TIP3    H262282   5.512   0.907  14.185  1.1676 -0.0431 -0.6616
13623TIP3   OH262283   1.603   6.433  16.756 -0.0145 -0.3537 -0.0334
13623TIP3    H162284   1.515   6.409  16.784  0.6460 -0.7304  1.8723
13623TIP3    H262285   1.606   6.528  16.762 -0.2448 -0.3490 -0.0033
13624TIP3   OH262286   0.358   4.411   3.567 -0.1965 -0.0905 -0.5392
13624TIP3    H162287   0.410   4.490   3.584  0.1028 -0.0796 -1.4634
13624TIP3    H262288   0.362   4.362   3.649  2.4656 -0.7734 -0.9641
13625TIP3   OH262289   1.668   6.155   4.479  0.0176 -0.7392  0.1796
13625TIP3    H162290   1.597   6.161   4.543 -0.3859  2.1718 -0.4033
13625TIP3    H262291   1.747   6.146   4.533 -0.4803 -0.2494  1.0177
13626TIP3   OH262292   3.918   2.381  16.394  0.0558 -0.4081  0.0961
13626TIP3    H162293   3.899   2.389  16.488  0.2328  0.4460  0.0597
13626TIP3    H262294   3.834   2.393  16.351 -0.1681 -1.5758  0.1688
13627TIP3   OH262295   4.816   4.057   2.994 -1.0020 -0.0318  0.1133
13627TIP3    H162296   4.820   4.152   3.002 -1.8508  0.4133 -3.3626
13627TIP3    H262297   4.722   4.037   2.990 -0.8247 -0.9808  0.3145
13628TIP3   OH262298   1.508   1.406  13.171  0.2716 -0.5988  0.0141
13628TIP3    H162299   1.513   1.501  13.176  0.4781 -0.6448  0.6582
13628TIP3    H262300   1.510   1.388  13.077  0.8586  0.0001 -0.0999
13629TIP3   OH262301   2.702   0.315  17.198 -0.3857 -0.4512 -0.7998
13629TIP3    H162302   2.788   0.280  17.222 -0.9871 -1.2063  0.3040
13629TIP3    H262303   2.657   0.241  17.157 -0.2699  0.1425 -2.0456
13630TIP3   OH262304   2.212   1.963   2.392  0.0494 -0.0190  0.1792
13630TIP3    H162305   2.305   1.980   2.399 -0.1368  0.8209  0.7467
13630TIP3    H262306   2.171   2.049   2.385 -0.7667 -0.2946  1.1583
13631TIP3   OH262307   4.874   6.724   5.890 -0.1373  0.1026 -0.0630
13631TIP3    H162308   4.952   6.711   5.837 -0.7112  0.7702 -1.0989
13631TIP3    H262309   4.892   6.802   5.942 -0.7845  1.3738 -1.6550
13632TIP3   OH262310   6.685   5.053  12.039 -0.3461 -0.0513 -0.4545
13632TIP3    H162311   6.684   5.073  11.946 -0.6925 -0.4175 -0.5306
13632TIP3    H262312   6.778   5.044  12.061 -0.0632  2.8517 -0.1414
13633TIP3   OH262313   4.940   5.623   6.172 -0.4736  0.1520  0.5881
13633TIP3    H162314   4.948   5.573   6.091  1.8530  1.6100 -0.1830
13633TIP3    H262315   4.846   5.622   6.192 -0.9488 -1.2843 -1.4286
13634TIP3   OH262316   2.489   6.475   5.219 -0.0309 -0.2129 -0.2091
13634TIP3    H162317   2.492   6.434   5.133  1.9238 -1.7496  0.5319
13634TIP3    H262318   2.412   6.437   5.261 -0.7504  0.2273 -1.0853
13635TIP3   OH262319   2.936   1.784  11.742 -0.5272  0.0609  0.2116
13635TIP3    H162320   2.912   1.805  11.652 -0.1012  0.0019  0.0810
13635TIP3    H262321   2.927   1.867  11.789  0.6786  0.4570 -0.2007
13636TIP3   OH262322   6.353   4.396  16.835  0.6482 -0.3959 -0.4519
13636TIP3    H162323   6.325   4.450  16.761 -0.0666  0.1218  0.1820
13636TIP3    H262324   6.408   4.455  16.887  1.9548 -1.0461 -1.0555
13637TIP3   OH262325   4.852   1.602   1.168 -0.1405  0.2226  0.0540
13637TIP3    H162326   4.919   1.669   1.155  0.1764 -0.2165 -0.6454
13637TIP3    H262327   4.771   1.643   1.136  0.2655 -0.1250 -1.5062
13638TIP3   OH262328   2.710   0.850   3.272 -0.2566 -0.1631  0.0259
13638TIP3    H162329   2.775   0.888   3.332 -1.0400  0.0382  0.7587
13638TIP3    H262330   2.749   0.767   3.246  0.0472 -0.3221  0.9214
13639TIP3   OH262331   1.463   3.778  13.706  0.1187 -0.8785 -0.1470
13639TIP3    H162332   1.449   3.696  13.659  1.6516 -1.2448 -0.0200
13639TIP3    H262333   1.502   3.752  13.789 -1.0996 -0.1241  0.7054
13640TIP3   OH262334   6.786   1.263   1.211  0.7763 -0.0467 -0.6061
13640TIP3    H162335   6.704   1.234   1.252  0.9425  0.0386 -0.2092
13640TIP3    H262336   6.829   1.181   1.185 -0.0082 -0.0678 -1.9843
13641TIP3   OH262337   2.923   1.792   1.982 -0.5458  0.0092 -0.5243
13641TIP3    H162338   2.990   1.739   1.938 -1.0656 -1.2737  0.1681
13641TIP3    H262339   2.840   1.753   1.955 -1.1482  2.1814 -2.1555
13642TIP3   OH262340   0.447   2.200   0.185 -0.6627 -0.1309  0.0892
13642TIP3    H162341   0.358   2.165   0.192 -0.5948 -0.3939 -0.3473
13642TIP3    H262342   0.461   2.213   0.091  0.2111 -1.3092  0.0215
13643TIP3   OH262343   1.376   4.458  12.243  0.4478  0.6324 -0.6226
13643TIP3    H162344   1.455   4.502  12.275 -0.4963  2.0622 -0.1762
13643TIP3    H262345   1.337   4.519  12.181 -0.7527  0.3196 -0.2155
13644TIP3   OH262346   5.852   5.177  11.657  0.1577 -0.3597  0.2111
13644TIP3    H162347   5.794   5.113  11.699  0.9848 -1.8690 -0.8263
13644TIP3    H262348   5.907   5.124  11.600  0.3718  1.4013 -1.2811
13645TIP3   OH262349   0.856   0.535  14.141 -0.3307 -0.1347  0.4982
13645TIP3    H162350   0.876   0.626  14.120  0.9579 -0.4297  0.4100
13645TIP3    H262351   0.762   0.526  14.122 -0.4125  1.0952  0.2657
13646TIP3   OH262352   2.577   0.746   2.719  0.1374 -0.0133 -0.5115
13646TIP3    H162353   2.531   0.774   2.798 -0.2483  0.2146 -0.8109
13646TIP3    H262354   2.583   0.825   2.666  1.8193  0.2064 -0.0322
13647TIP3   OH262355   2.801   0.446   4.891 -0.5204  0.3418  0.3138
13647TIP3    H162356   2.707   0.451   4.911 -0.5701 -0.2773  0.2293
13647TIP3    H262357   2.842   0.419   4.973 -0.7787 -2.7174 -0.4506
13648TIP3   OH262358   3.846   2.754  11.398  0.0566 -0.2674  0.1587
13648TIP3    H162359   3.846   2.846  11.372  0.7371 -0.4776 -0.5913
13648TIP3    H262360   3.857   2.756  11.493 -0.2538  0.4326  0.1838
13649TIP3   OH262361   4.328   0.656   0.236 -0.3899 -0.4408 -0.2881
13649TIP3    H162362   4.377   0.710   0.298 -0.0981 -0.1233 -0.7904
13649TIP3    H262363   4.346   0.695   0.151 -1.1902 -0.5711 -0.5213
13650TIP3   OH262364   1.985   3.981   5.445 -0.3949 -0.0057  0.9358
13650TIP3    H162365   1.973   4.074   5.463 -0.6345 -0.2633  2.2157
13650TIP3    H262366   1.936   3.966   5.364 -0.4844  0.9449  0.8045
13651TIP3   OH262367   3.470   2.351  11.557 -0.0289  0.1765  1.2912
13651TIP3    H162368   3.455   2.418  11.623  0.6033 -0.2251  1.8576
13651TIP3    H262369   3.411   2.279  11.582  0.5651 -0.1708  1.7151
13652TIP3   OH262370   3.126   2.032   2.430  0.0791 -0.1460  0.0144
13652TIP3    H162371   3.107   1.985   2.511 -0.0512  3.0548  2.0225
13652TIP3    H262372   3.088   1.978   2.361 -3.8128 -0.9461  2.4833
13653TIP3   OH262373   0.825   6.174   5.085  0.2793 -0.4915  0.5207
13653TIP3    H162374   0.764   6.122   5.032 -1.0189  2.8918 -1.6358
13653TIP3    H262375   0.770   6.237   5.131  1.8637  0.0864  1.7061
13654TIP3   OH262376   1.673   2.206  11.273 -0.3073  0.5386  0.0341
13654TIP3    H162377   1.670   2.136  11.208 -0.9634 -0.6555  1.2987
13654TIP3    H262378   1.765   2.215  11.294 -0.2865 -0.6618  0.5672
13655TIP3   OH262379   2.999   6.336   1.436 -0.0730 -0.0467  0.3961
13655TIP3    H162380   2.971   6.248   1.413 -0.6718 -0.0181  0.9665
13655TIP3    H262381   3.047   6.367   1.360 -0.8121 -0.4525 -0.2490
13656TIP3   OH262382   0.246   4.191   4.040 -0.6108  0.3978 -0.3667
13656TIP3    H162383   0.218   4.112   3.995 -2.2932  0.6619  0.1635
13656TIP3    H262384   0.258   4.165   4.131  0.8414  0.3176 -0.5543
13657TIP3   OH262385   5.269   1.124   6.861 -0.3640  0.6163 -0.5081
13657TIP3    H162386   5.240   1.038   6.834 -0.0153  0.8123 -1.5536
13657TIP3    H262387   5.333   1.150   6.794  3.2628 -0.3383  2.2513
13658TIP3   OH262388   6.566   3.338  10.723 -0.3009  0.1364 -0.3709
13658TIP3    H162389   6.608   3.418  10.691  0.1653 -0.0129 -0.1297
13658TIP3    H262390   6.609   3.319  10.806 -2.1184  1.0308  0.8405
13659TIP3   OH262391   6.683   3.969   0.378 -0.2634  0.0416  0.2740
13659TIP3    H162392   6.587   3.970   0.378 -0.3039  0.7014 -1.7630
13659TIP3    H262393   6.708   4.045   0.325  1.3734 -0.4140  0.3357
13660TIP3   OH262394   5.473   5.227   4.601  0.1504  0.4035 -0.2573
13660TIP3    H162395   5.438   5.291   4.538  2.3104  0.4044 -1.5368
13660TIP3    H262396   5.407   5.158   4.603 -0.8157  1.2478 -1.1489
13661TIP3   OH262397   6.036   2.134   1.938 -0.4011  0.2428 -0.6200
13661TIP3    H162398   6.125   2.122   1.970 -0.6404  1.1902  0.5047
13661TIP3    H262399   5.992   2.050   1.955  0.0944 -0.0004 -0.5351
13662TIP3   OH262400   1.694   1.373   5.928  0.7495  0.0947  0.2368
13662TIP3    H162401   1.703   1.431   6.004  2.8161 -1.8427  1.5984
13662TIP3    H262402   1.624   1.313   5.952 -0.6347  1.2402 -0.7196
13663TIP3   OH262403   6.784   1.418   2.522 -0.2072 -0.1915  0.1150
13663TIP3    H162404   6.869   1.417   2.564  0.0462  0.1792 -0.3804
13663TIP3    H262405   6.795   1.475   2.446 -1.0920  0.4566  0.4533
13664TIP3   OH262406   0.596   0.322  13.171  0.7187  0.0683 -0.8456
13664TIP3    H162407   0.627   0.313  13.262  2.1658 -0.8009 -1.3771
13664TIP3    H262408   0.639   0.401  13.139 -0.1341  0.6178 -0.6616
13665TIP3   OH262409   2.765   4.312   1.256 -0.0593 -0.2720 -0.1234
13665TIP3    H162410   2.856   4.322   1.229  0.2065  0.5552  1.0123
13665TIP3    H262411   2.752   4.218   1.266  0.0715 -0.5499 -2.2182
13666TIP3   OH262412   2.589   2.270   1.619 -0.4443  0.2683 -0.6026
13666TIP3    H162413   2.534   2.261   1.697  0.0609 -1.7588 -0.4430
13666TIP3    H262414   2.529   2.296   1.549 -1.0123  1.4124  0.2778
13667TIP3   OH262415   3.136   6.424  11.226  0.4511 -0.3175  0.4899
13667TIP3    H162416   3.067   6.472  11.272  0.4132 -2.1245  2.4730
13667TIP3    H262417   3.107   6.422  11.135  0.3019  3.0277  0.3202
13668TIP3   OH262418   5.597   2.417   4.840 -0.7082  0.5199 -0.3963
13668TIP3    H162419   5.529   2.448   4.780 -1.3293  1.6565  0.8395
13668TIP3    H262420   5.662   2.375   4.783 -2.7970 -1.3738 -1.5517
13669TIP3   OH262421   3.574   5.757   1.884  0.2583 -0.0580 -0.6471
13669TIP3    H162422   3.601   5.696   1.814  0.2233 -1.6375  0.6577
13669TIP3    H262423   3.616   5.723   1.963 -1.9281  0.0279  0.6272
13670TIP3   OH262424   6.259   3.633   2.509 -0.5773  0.2087  0.3581
13670TIP3    H162425   6.349   3.653   2.537 -0.2872  0.6657 -0.8501
13670TIP3    H262426   6.225   3.577   2.579  1.0930 -1.0675  0.2290
13671TIP3   OH262427   1.854   1.561   5.224  0.0553 -0.4063  0.5924
13671TIP3    H162428   1.910   1.505   5.279  1.6424  0.0740 -0.4505
13671TIP3    H262429   1.802   1.499   5.173  1.3235 -0.9724 -0.0725
13672TIP3   OH262430   4.464   0.703   4.110  0.2205 -0.4429  0.3941
13672TIP3    H162431   4.466   0.617   4.151  0.3503  0.2776  1.9592
13672TIP3    H262432   4.502   0.762   4.175  0.0391  0.8211 -0.5999
13673TIP3   OH262433   2.515   3.981  10.595  0.6911 -0.4248 -0.4521
13673TIP3    H162434   2.434   4.032  10.590  0.1069 -1.0919  1.3651
13673TIP3    H262435   2.566   4.010  10.520  0.0151  2.1474 -0.0146
13674TIP3   OH262436   4.228   1.943   6.691 -0.2267  0.4067  0.2252
13674TIP3    H162437   4.244   1.986   6.606  0.8003  0.0263  0.2165
13674TIP3    H262438   4.262   1.854   6.680 -0.6744  0.1541  0.8359
13675TIP3   OH262439   5.446   4.221  14.865  0.9238 -0.2296 -0.0923
13675TIP3    H162440   5.526   4.273  14.873  1.4762 -1.1738  0.6494
13675TIP3    H262441   5.425   4.224  14.772 -0.1786  2.9477  0.1416
13676TIP3   OH262442   3.943   5.924  14.666  0.4676  0.2265  0.1200
13676TIP3    H162443   3.963   5.834  14.641 -2.4264 -0.9685  1.6004
13676TIP3    H262444   4.026   5.959  14.699  1.8016 -1.6805 -1.0186
13677TIP3   OH262445   2.604   5.380  14.289  0.1637 -0.8500  0.0582
13677TIP3    H162446   2.589   5.468  14.326  0.1662 -0.4225 -0.9263
13677TIP3    H262447   2.663   5.395  14.216  1.4518 -1.8940  0.8422
13678TIP3   OH262448   5.480   0.909  12.720 -0.0638  0.5315 -0.5363
13678TIP3    H162449   5.387   0.886  12.712 -0.5492  2.6350 -1.6326
13678TIP3    H262450   5.498   0.905  12.814 -1.2166 -0.0488 -0.3249
13679TIP3   OH262451   0.625   6.028   0.753  0.1611  0.3381  0.8810
13679TIP3    H162452   0.554   6.070   0.705 -1.8828 -2.9419  0.6961
13679TIP3    H262453   0.617   6.061   0.843 -2.0173 -0.3440  0.9886
13680TIP3   OH262454   5.504   5.643  14.965 -0.0070  0.0253  0.0647
13680TIP3    H162455   5.519   5.707  14.895  0.2290 -1.7327 -1.5649
13680TIP3    H262456   5.411   5.651  14.985 -0.5972 -0.9358 -2.0403
13681TIP3   OH262457   5.040   5.577  11.424 -0.1224  0.4005  0.0698
13681TIP3    H162458   5.041   5.497  11.476 -2.5911  0.6371  0.6070
13681TIP3    H262459   5.080   5.553  11.341  1.9434 -0.5471  1.2654
13682TIP3   OH262460   0.605   1.872  13.362 -0.2990  0.2443 -0.0116
13682TIP3    H162461   0.527   1.892  13.413 -1.1364 -1.1565 -0.6763
13682TIP3    H262462   0.622   1.951  13.311 -2.0121  0.1606 -0.7520
13683TIP3   OH262463   2.535   0.688   5.334  0.2856  0.5801 -0.1179
13683TIP3    H162464   2.581   0.673   5.251 -2.1998  2.3156 -1.9705
13683TIP3    H262465   2.598   0.736   5.388  2.2730 -1.3619 -0.5709
13684TIP3   OH262466   5.770   5.413  16.022 -0.4083  0.2073  0.4802
13684TIP3    H162467   5.710   5.354  15.975 -0.6000  0.5409  0.3032
13684TIP3    H262468   5.756   5.392  16.115 -2.0943  1.4881  0.5563
13685TIP3   OH262469   1.774   6.248   3.453  0.0685  0.6107  0.2678
13685TIP3    H162470   1.720   6.195   3.395 -0.5296  0.3368  1.0449
13685TIP3    H262471   1.762   6.338   3.422  0.6367  0.3580 -0.7042
13686TIP3   OH262472   1.404   5.871  13.003 -0.5240  0.6334  0.5778
13686TIP3    H162473   1.414   5.806  13.072 -2.4668  1.6738  1.9262
13686TIP3    H262474   1.385   5.953  13.049  0.6642  1.9543 -1.1179
13687TIP3   OH262475   4.366   1.722   2.438 -0.3661  0.2487 -0.2125
13687TIP3    H162476   4.308   1.675   2.378  0.2668  0.2044 -0.7986
13687TIP3    H262477   4.431   1.764   2.382  0.4975 -0.1460  0.4477
13688TIP3   OH262478   2.232   0.585  12.553 -0.1621 -0.2543  0.0137
13688TIP3    H162479   2.233   0.556  12.644 -1.1992  0.7027  0.3575
13688TIP3    H262480   2.261   0.509  12.503  0.6118 -0.7391  1.1487
13689TIP3   OH262481   0.471   2.279   3.811  0.0929 -0.1985  0.4860
13689TIP3    H162482   0.430   2.258   3.727 -1.8729  0.0995  1.3353
13689TIP3    H262483   0.521   2.359   3.793 -0.8717  0.2610 -0.2603
13690TIP3   OH262484   0.590   0.660  14.300 -0.7758 -0.6399  0.3742
13690TIP3    H162485   0.681   0.683  14.319 -0.3822 -0.4567 -1.5593
13690TIP3    H262486   0.558   0.621  14.381  0.4542  0.9602  1.7093
13691TIP3   OH262487   4.976   0.059   1.448  0.0072  0.6668 -0.3469
13691TIP3    H162488   4.911  -0.006   1.421  0.3795  0.6582 -1.2904
13691TIP3    H262489   5.043   0.055   1.379  2.2196 -1.0171  1.7194
13692TIP3   OH262490   2.148   1.355   0.697 -0.4143  0.4082 -0.2808
13692TIP3    H162491   2.126   1.448   0.687 -2.6484  0.0462  0.5982
13692TIP3    H262492   2.241   1.354   0.717 -0.6869  2.6250  1.4866
13693TIP3   OH262493   3.330   5.123  10.494  0.2170 -0.4388  0.3733
13693TIP3    H162494   3.324   5.033  10.462  2.0989 -0.9707  1.4165
13693TIP3    H262495   3.418   5.131  10.529 -0.1591  1.6018  1.0022
13694TIP3   OH262496   2.201   2.691   0.062 -0.2831  0.6929  0.7915
13694TIP3    H162497   2.123   2.736   0.094 -1.6552 -0.4304 -0.8324
13694TIP3    H262498   2.265   2.702   0.132 -1.7811  1.9149  2.0398
13695TIP3   OH262499   0.006   2.447  12.163 -0.0921 -0.3261 -0.3344
13695TIP3    H162500   0.019   2.412  12.075  0.6218  2.0244 -1.2415
13695TIP3    H262501   0.061   2.392  12.219  1.5242 -0.2702 -1.7779
13696TIP3   OH262502   0.758   5.828  16.261 -0.1276 -0.4480 -0.3262
13696TIP3    H162503   0.814   5.763  16.303  0.6789  0.7271  0.4742
13696TIP3    H262504   0.786   5.912  16.298 -0.1189  0.5460 -2.4133
13697TIP3   OH262505   4.357   0.923  15.940 -0.1564  0.3028  0.3885
13697TIP3    H162506   4.409   0.849  15.970 -1.5683 -2.2547 -2.7941
13697TIP3    H262507   4.392   0.943  15.853 -2.7355  0.1675 -0.7782
13698TIP3   OH262508   0.833   0.002   3.983 -0.4632  0.1786  0.1006
13698TIP3    H162509   0.846   0.095   3.965 -0.5742  0.0392 -0.7454
13698TIP3    H262510   0.814  -0.036   3.898 -0.8744 -0.5470  0.5087
13699TIP3   OH262511   0.568   2.933  15.391 -0.2654 -0.3596 -0.0486
13699TIP3    H162512   0.574   2.991  15.315 -2.7055 -2.2708 -1.8441
13699TIP3    H262513   0.568   2.993  15.466 -1.0370  1.8620 -1.7010
13700TIP3   OH262514   3.617   4.133  14.224 -0.3468  0.7004  0.1091
13700TIP3    H162515   3.647   4.187  14.297 -1.0824  0.3099  0.7125
13700TIP3    H262516   3.697   4.094  14.188  0.1162  1.6321  0.0992
13701TIP3   OH262517   1.600   1.654   5.802  0.2264  0.3041  0.7101
13701TIP3    H162518   1.609   1.560   5.784  2.0034  0.7079 -0.8529
13701TIP3    H262519   1.657   1.669   5.877  1.2306  0.3584 -0.0346
13702TIP3   OH262520   4.491   3.361   5.847  0.8340  0.2807 -0.2151
13702TIP3    H162521   4.396   3.354   5.841  0.7444  0.2159  1.1404
13702TIP3    H262522   4.523   3.314   5.769 -0.2049 -0.7880 -0.0247
13703TIP3   OH262523   2.684   5.137  12.468  0.5059  0.0058 -0.1009
13703TIP3    H162524   2.609   5.195  12.482 -0.5539 -0.5183 -2.8956
13703TIP3    H262525   2.645   5.052  12.447  1.7955 -0.1259 -2.2885
13704TIP3   OH262526   2.774   4.896  16.903  0.1811 -0.0624  0.2296
13704TIP3    H162527   2.747   4.824  16.960 -0.9502  0.5220  0.4535
13704TIP3    H262528   2.701   4.910  16.844  0.5408  0.6459 -0.0691
13705TIP3   OH262529   3.835   1.494  13.581  0.0490 -0.0319 -0.1739
13705TIP3    H162530   3.921   1.463  13.553 -0.7453 -2.2999 -0.2518
13705TIP3    H262531   3.832   1.585  13.552  1.8066 -0.3635 -1.5440
13706TIP3   OH262532   3.413   5.267  13.987 -0.5171  0.7336  0.3046
13706TIP3    H162533   3.357   5.233  13.917  1.3999 -0.4722 -0.7593
13706TIP3    H262534   3.499   5.276  13.945  0.2146  2.0040  1.9863
13707TIP3   OH262535   3.063   3.519  15.011 -0.7056  0.3426 -0.6477
13707TIP3    H162536   3.145   3.504  15.058 -0.8860  1.6455  0.1225
13707TIP3    H262537   3.084   3.587  14.947 -1.3312  1.1866  0.0179
13708TIP3   OH262538   6.696   5.388  13.714 -0.0736  0.1953  0.0516
13708TIP3    H162539   6.681   5.453  13.783 -0.8187 -0.2104  0.2766
13708TIP3    H262540   6.617   5.334  13.714  0.6920 -0.9476  0.1122
13709TIP3   OH262541   0.633   4.338   1.059 -0.2196  0.4926  0.2270
13709TIP3    H162542   0.629   4.369   1.150  0.6148 -0.1133  0.4781
13709TIP3    H262543   0.720   4.363   1.028 -0.1340 -0.1623 -0.0837
13710TIP3   OH262544   4.047   0.428   0.539 -0.5929 -0.0316  0.6225
13710TIP3    H162545   4.076   0.445   0.450 -0.9988 -0.4666  0.4006
13710TIP3    H262546   4.054   0.512   0.583  1.1849 -0.1344  0.6435
13711TIP3   OH262547   6.502   0.869   3.791  0.0024 -0.3537  0.0587
13711TIP3    H162548   6.437   0.901   3.854 -0.7393 -2.3610  0.3966
13711TIP3    H262549   6.582   0.858   3.842 -0.4605 -1.4874  0.5999
13712TIP3   OH262550   2.555   5.799   2.355 -0.0193  0.2007 -0.6126
13712TIP3    H162551   2.596   5.857   2.290 -2.0679 -0.1954 -2.3728
13712TIP3    H262552   2.461   5.806   2.337 -0.6108 -0.6267  1.7804
13713TIP3   OH262553   2.469   2.048  16.493  0.1445 -0.7023 -0.2740
13713TIP3    H162554   2.476   1.979  16.559 -1.1857  0.1557  0.8256
13713TIP3    H262555   2.400   2.106  16.526  1.7158  1.5941 -0.7496
13714TIP3   OH262556   1.791   0.251   2.323  0.2166 -0.1250 -0.5830
13714TIP3    H162557   1.701   0.227   2.344  0.2392  0.8046  0.6467
13714TIP3    H262558   1.838   0.246   2.406  1.5049 -1.3067 -1.3221
13715TIP3   OH262559   2.341   0.362   1.180  0.1490 -0.1598 -0.2551
13715TIP3    H162560   2.308   0.439   1.134 -1.6161 -0.1902  0.8516
13715TIP3    H262561   2.421   0.391   1.222  0.7760  0.3848 -1.7738
13716TIP3   OH262562   0.680   3.313  12.805 -1.1352  0.1601  0.2236
13716TIP3    H162563   0.693   3.389  12.861 -0.3574  1.1665 -1.2526
13716TIP3    H262564   0.698   3.345  12.716  0.9627 -2.1239 -0.2943
13717TIP3   OH262565   0.561   0.093   5.464 -0.0540  0.0214  0.4050
13717TIP3    H162566   0.485   0.039   5.480 -1.0704  0.8890 -1.2055
13717TIP3    H262567   0.538   0.179   5.499 -0.4817  0.6986 -1.4278
13718TIP3   OH262568   0.108   5.246   6.986  0.4788 -0.2653  0.0505
13718TIP3    H162569   0.192   5.202   6.973 -0.4169 -1.8123 -0.7606
13718TIP3    H262570   0.114   5.325   6.933  1.8730  0.3203  1.0048
13719TIP3   OH262571   0.125   3.962  15.539 -0.0999  0.1727  0.0325
13719TIP3    H162572   0.218   3.983  15.547 -0.4814  1.8983  0.3150
13719TIP3    H262573   0.100   3.933  15.627 -0.0281  0.6271  0.2072
13720TIP3   OH262574   5.599   6.155   2.147  0.6119  0.1274 -0.0276
13720TIP3    H162575   5.679   6.137   2.097  1.1835  1.6356  0.2945
13720TIP3    H262576   5.528   6.125   2.091  1.1253  2.8987 -2.4005
13721TIP3   OH262577   5.249   5.349   0.955  0.4022 -0.2904  0.3165
13721TIP3    H162578   5.329   5.347   1.008 -0.9619 -0.0926  2.5216
13721TIP3    H262579   5.203   5.268   0.977 -0.2499 -0.1513 -0.4853
13722TIP3   OH262580   4.982   2.992  11.341 -0.5282 -0.3926  0.0704
13722TIP3    H162581   4.971   3.087  11.347  2.6173  0.1763 -1.6121
13722TIP3    H262582   4.954   2.969  11.253  0.9593 -0.6057 -0.3736
13723TIP3   OH262583   1.594   2.795  15.104  0.4079  0.3624 -0.5020
13723TIP3    H162584   1.641   2.857  15.047  0.4768  2.1989  1.4107
13723TIP3    H262585   1.663   2.745  15.146  0.3844 -0.4829 -1.4264
13724TIP3   OH262586   6.626   4.158   5.376 -0.2763 -0.1165  0.3533
13724TIP3    H162587   6.670   4.106   5.309 -1.7082  0.1135 -0.8166
13724TIP3    H262588   6.544   4.186   5.335 -1.0372  0.3389  2.0857
13725TIP3   OH262589   4.643   3.468  12.321 -0.1808 -0.5474  0.1113
13725TIP3    H162590   4.684   3.417  12.391  0.5711 -2.5672 -1.6540
13725TIP3    H262591   4.713   3.479  12.256 -1.3877 -0.7024 -1.2756
13726TIP3   OH262592   2.016   3.148   4.342  0.7336  0.4016  0.7450
13726TIP3    H162593   2.021   3.106   4.256  1.7845  2.2664 -0.1666
13726TIP3    H262594   1.984   3.080   4.401 -0.6462 -0.7444 -1.2457
13727TIP3   OH262595   6.616   4.641  11.526 -0.6501 -0.1768 -0.4848
13727TIP3    H162596   6.683   4.654  11.460  1.6684 -0.6315  1.6236
13727TIP3    H262597   6.586   4.551  11.512  4.7898 -3.0886  2.9220
13728TIP3   OH262598   2.046   0.208  17.032  0.1205  0.2491 -0.2676
13728TIP3    H162599   2.036   0.291  17.080  0.2573  0.7936 -1.1613
13728TIP3    H262600   1.960   0.194  16.991 -0.4734 -0.9751  1.2756
13729TIP3   OH262601   4.803   2.457   3.669  0.0434  0.2193  0.6767
13729TIP3    H162602   4.731   2.519   3.652 -1.8533 -1.9154  0.4022
13729TIP3    H262603   4.866   2.474   3.599 -0.4919  1.6994  0.5133
13730TIP3   OH262604   2.552   3.805  13.481  0.2085  0.1962 -0.1967
13730TIP3    H162605   2.525   3.897  13.476 -0.1735  0.1015  0.0853
13730TIP3    H262606   2.549   3.784  13.574 -0.0837 -0.2136 -0.2947
13731TIP3   OH262607   6.427   3.637   1.796 -0.0189  0.1215 -0.3117
13731TIP3    H162608   6.502   3.578   1.802  0.6673  1.0867  1.7567
13731TIP3    H262609   6.454   3.704   1.733  0.4025 -0.1519 -0.4243
13732TIP3   OH262610   2.957   5.760  13.313  0.3484  0.3145 -0.2754
13732TIP3    H162611   2.910   5.685  13.276 -2.4615  0.6410  2.2390
13732TIP3    H262612   3.021   5.721  13.372  0.0776 -0.1490 -0.2790
13733TIP3   OH262613   4.579   3.449   4.020  0.7154  0.7176  0.4160
13733TIP3    H162614   4.622   3.385   4.077 -1.0007  1.1610  2.3102
13733TIP3    H262615   4.516   3.398   3.970 -0.0834  0.7789  1.3386
13734TIP3   OH262616   4.625   1.203  12.587  0.7694  0.5794 -0.3719
13734TIP3    H162617   4.694   1.140  12.610 -0.3049 -0.6374 -0.3426
13734TIP3    H262618   4.605   1.183  12.495 -1.0340 -0.5963  0.2306
13735TIP3   OH262619   1.313   0.959   3.174 -0.0048  0.0190  0.5659
13735TIP3    H162620   1.407   0.977   3.180 -0.0908  0.2021  1.5655
13735TIP3    H262621   1.298   0.888   3.237 -0.1095 -1.8890 -1.4660
13736TIP3   OH262622   6.658   4.930   2.662 -0.5312  0.4395  0.2356
13736TIP3    H162623   6.622   4.990   2.728  0.3169  0.3572  0.7864
13736TIP3    H262624   6.581   4.890   2.622 -1.0975  1.4687  0.2586
13737TIP3   OH262625   5.483   4.716  14.953 -0.3702  0.2868  0.1214
13737TIP3    H162626   5.511   4.626  14.970  2.2218  0.7821 -1.0316
13737TIP3    H262627   5.437   4.711  14.870  0.6333  0.1453 -0.4391
13738TIP3   OH262628   2.416   4.142  17.165  0.3946  0.2852 -0.9865
13738TIP3    H162629   2.441   4.125  17.074  0.4469 -0.3729 -0.8597
13738TIP3    H262630   2.339   4.088  17.179 -1.0792  2.2031 -1.3267
13739TIP3   OH262631   2.017   4.081   4.323  0.7012 -0.5394 -0.3314
13739TIP3    H162632   2.031   4.116   4.412 -0.2665 -0.9897  0.0122
13739TIP3    H262633   2.086   4.015   4.313  1.1678 -0.0971 -0.1407
13740TIP3   OH262634   1.261   3.100   1.147  0.2229  0.1287 -0.5659
13740TIP3    H162635   1.292   3.089   1.057  2.0380  0.3099 -0.0066
13740TIP3    H262636   1.311   3.174   1.181 -0.7239  0.3249  0.4821
13741TIP3   OH262637   1.434   3.593  13.511 -0.1333 -0.2348 -0.1027
13741TIP3    H162638   1.467   3.590  13.421 -0.5637 -0.1412 -0.2651
13741TIP3    H262639   1.430   3.502  13.538  0.8681 -0.2180  0.1452
13742TIP3   OH262640   3.598   0.031  13.650 -0.5569 -0.1233 -0.1492
13742TIP3    H162641   3.643   0.099  13.599 -0.4663 -0.5322 -0.6186
13742TIP3    H262642   3.645  -0.050  13.629  0.9512  0.0139  2.3188
13743TIP3   OH262643   5.050   5.909  14.842  0.3256 -0.5351  0.6500
13743TIP3    H162644   4.983   5.841  14.845  0.6170 -0.8030  1.3578
13743TIP3    H262645   5.086   5.903  14.754 -0.5839 -0.3815  0.2654
13744TIP3   OH262646   1.248   0.818   6.478 -0.4641 -0.2831 -0.5409
13744TIP3    H162647   1.245   0.913   6.467  0.4412 -0.0963  0.5941
13744TIP3    H262648   1.221   0.783   6.394 -1.9993  0.9725 -0.6320
13745TIP3   OH262649   3.673   1.557  13.295 -0.3155  0.6791 -0.2693
13745TIP3    H162650   3.717   1.521  13.217  1.6982 -0.0107  1.0997
13745TIP3    H262651   3.626   1.483  13.332  1.1123  0.2191  0.7161
13746TIP3   OH262652   6.050   6.034   4.045  0.3987  0.3012 -0.1369
13746TIP3    H162653   6.063   6.080   3.962  0.3152 -0.1497 -0.4030
13746TIP3    H262654   5.955   6.038   4.059  0.4572  0.7661  0.1684
13747TIP3   OH262655   5.534   2.706  16.972 -0.5180 -0.0120  0.1815
13747TIP3    H162656   5.575   2.777  16.923 -1.1487  0.9392  0.9999
13747TIP3    H262657   5.517   2.743  17.058  0.9802 -1.7767  1.3283
13748TIP3   OH262658   3.080   3.716   1.474  0.1911 -0.6538  0.5092
13748TIP3    H162659   3.018   3.646   1.493  0.9237 -1.2591  0.7366
13748TIP3    H262660   3.153   3.671   1.431  1.0482 -0.1711  1.4212
13749TIP3   OH262661   4.357   4.418   1.780 -0.3006 -0.5361  0.1935
13749TIP3    H162662   4.345   4.395   1.872 -0.5475 -1.8185 -0.1499
13749TIP3    H262663   4.445   4.386   1.758 -1.2258 -2.6589 -0.6971
13750TIP3   OH262664   1.088   1.741   2.616  0.0238  0.1821  0.1384
13750TIP3    H162665   1.137   1.720   2.536 -0.8220 -0.6829 -0.1752
13750TIP3    H262666   1.053   1.829   2.601  0.2385  0.2011 -0.2605
13751TIP3   OH262667   6.770   2.639  16.642 -0.4563  0.8286  0.1274
13751TIP3    H162668   6.697   2.578  16.629  0.2866  0.0281 -0.3574
13751TIP3    H262669   6.835   2.613  16.577  1.3712 -0.1487  2.2451
13752TIP3   OH262670   3.423   6.227  15.892 -0.4402 -0.1492  0.0070
13752TIP3    H162671   3.350   6.236  15.953  0.8924 -0.1458  1.6537
13752TIP3    H262672   3.404   6.147  15.844 -0.6226 -1.1919  1.7331
13753TIP3   OH262673   3.008   1.554  11.135 -0.4821  0.6787  0.0218
13753TIP3    H162674   3.062   1.476  11.140 -0.7454  0.4680 -0.3862
13753TIP3    H262675   3.021   1.587  11.046 -0.9629  0.6749 -0.0496
13754TIP3   OH262676   0.390   1.721  11.063 -0.5406  0.4614 -0.0522
13754TIP3    H162677   0.306   1.683  11.037 -0.4861 -0.3963  0.9892
13754TIP3    H262678   0.369   1.812  11.082 -1.2877  0.1980  0.4359
13755TIP3   OH262679   3.582   5.763  13.311  0.1091 -0.1489 -0.3025
13755TIP3    H162680   3.537   5.796  13.389 -0.5797  0.2210 -0.8481
13755TIP3    H262681   3.527   5.791  13.238 -1.1301 -3.4120 -0.7720
13756TIP3   OH262682   6.356   2.192  12.720 -0.1444 -0.1031  0.0545
13756TIP3    H162683   6.433   2.159  12.766  1.1152  1.6313 -0.6928
13756TIP3    H262684   6.302   2.232  12.788  0.7739  0.7480  0.3084
13757TIP3   OH262685   5.179   1.263   3.805 -0.3865 -0.3190  0.4804
13757TIP3    H162686   5.239   1.190   3.788  0.3620  0.1084  1.1880
13757TIP3    H262687   5.228   1.340   3.777 -2.1983 -0.2178 -2.9075
13758TIP3   OH262688   2.241   3.496   2.273 -0.0729 -0.1536 -0.2681
13758TIP3    H162689   2.334   3.510   2.289 -0.5202  0.9299  1.8818
13758TIP3    H262690   2.220   3.417   2.323 -0.5975  0.5791  0.7151
13759TIP3   OH262691   0.520   0.731   4.669  0.0182 -0.4288  0.1647
13759TIP3    H162692   0.512   0.772   4.583 -0.5023 -0.1210  0.3581
13759TIP3    H262693   0.439   0.681   4.680  0.4698 -1.1953  0.1041
13760TIP3   OH262694   4.819   6.425  15.171  0.2328  0.1344  0.5278
13760TIP3    H162695   4.888   6.484  15.142 -0.6226  1.0029  0.2300
13760TIP3    H262696   4.839   6.342  15.128  1.1450  0.3418  0.5347
13761TIP3   OH262697   2.323   3.169  13.816  0.4166 -0.3476 -0.0827
13761TIP3    H162698   2.375   3.096  13.851  0.0340 -1.0253 -0.8678
13761TIP3    H262699   2.281   3.132  13.738  0.1258  0.6911 -0.4309
13762TIP3   OH262700   6.608   1.748   3.312 -0.2128  0.5066  0.4148
13762TIP3    H162701   6.633   1.790   3.229  0.8783  0.6445  0.7911
13762TIP3    H262702   6.522   1.711   3.295 -0.7562  1.9844 -0.2637
13763TIP3   OH262703   0.904   0.968  10.925 -0.0197  0.4998 -0.0999
13763TIP3    H162704   0.818   0.937  10.897 -0.1378 -0.9981  1.7037
13763TIP3    H262705   0.955   0.974  10.845 -1.0953 -0.9557 -0.9438
13764TIP3   OH262706   0.132   2.592   1.251 -0.6243 -0.3418  0.2643
13764TIP3    H162707   0.127   2.496   1.257 -0.7911 -0.4118 -0.7898
13764TIP3    H262708   0.054   2.616   1.201 -0.6225  0.3554  0.5935
13765TIP3   OH262709   5.675   2.983  12.533  0.0072 -0.0051 -0.0980
13765TIP3    H162710   5.689   2.889  12.535  0.8560  0.0885 -0.8530
13765TIP3    H262711   5.738   3.015  12.467  1.4834  1.3704  1.8648
13766TIP3   OH262712   2.149   2.709  14.998 -0.1651 -0.2266  0.4448
13766TIP3    H162713   2.124   2.733  15.087 -0.9383  1.8467 -0.2683
13766TIP3    H262714   2.068   2.679  14.958  0.1605 -1.0644  0.4033
13767TIP3   OH262715   6.710   2.020  10.383 -0.3408  0.1686  0.5676
13767TIP3    H162716   6.803   2.002  10.392  0.4301  2.1710 -2.0430
13767TIP3    H262717   6.688   2.074  10.459  0.6399 -0.1747  1.1094
13768TIP3   OH262718   2.707   4.360   0.848 -0.0368 -0.1130  0.0109
13768TIP3    H162719   2.647   4.386   0.918 -1.5487 -2.6137 -0.2383
13768TIP3    H262720   2.727   4.268   0.866  2.4295  0.1533 -0.8989
13769TIP3   OH262721   3.409   3.728   0.096 -0.5301  0.8357  0.3197
13769TIP3    H162722   3.482   3.701   0.041  0.1523  0.5027  1.3581
13769TIP3    H262723   3.416   3.674   0.174 -0.4384  2.4808  1.5058
13770TIP3   OH262724   6.068   0.754  16.281  0.0904 -0.0235  0.3953
13770TIP3    H162725   6.013   0.800  16.344 -0.0587  2.1074 -1.1464
13770TIP3    H262726   6.144   0.812  16.270 -0.1425 -0.0272 -1.7091
13771TIP3   OH262727   3.029   4.266  13.161 -0.3673  0.1885 -0.0877
13771TIP3    H162728   3.022   4.356  13.193  0.9044  0.9309 -1.6980
13771TIP3    H262729   3.109   4.266  13.109  0.4368 -2.2570  0.9753
13772TIP3   OH262730   0.006   2.456   5.148 -0.2252  0.0011 -0.4031
13772TIP3    H162731   0.082   2.477   5.201 -0.1300  0.2316 -0.6298
13772TIP3    H262732  -0.066   2.450   5.211 -0.0614 -0.0087 -0.2144
13773TIP3   OH262733   6.465   6.374   2.379  0.0573 -0.5131  0.4330
13773TIP3    H162734   6.417   6.297   2.410  1.0188 -1.4934 -0.4541
13773TIP3    H262735   6.511   6.406   2.457 -0.4087 -0.7793  0.8252
13774TIP3   OH262736   4.830   5.574  11.156 -0.3026 -0.2269  0.5284
13774TIP3    H162737   4.740   5.585  11.126 -0.6458 -0.4580  1.4486
13774TIP3    H262738   4.824   5.511  11.227  0.7495 -1.2137 -0.2195
13775TIP3   OH262739   5.781   3.424  13.356  0.1826  0.0752 -0.4499
13775TIP3    H162740   5.752   3.511  13.328  1.5439  0.5859 -0.3398
13775TIP3    H262741   5.716   3.364  13.317  0.2363  0.9887 -2.0635
13776TIP3   OH262742   1.456   0.638  16.381  0.6195  0.3889 -0.3035
13776TIP3    H162743   1.549   0.656  16.397  0.5072  0.4043  0.4005
13776TIP3    H262744   1.452   0.545  16.359  0.8607  0.5099 -0.8639
13777TIP3   OH262745   3.084   3.676  15.972 -0.7431  0.3033 -0.1728
13777TIP3    H162746   3.051   3.734  15.903  0.8756  1.3795 -0.1078
13777TIP3    H262747   3.007   3.656  16.025 -1.6884  0.9119 -1.2641
13778TIP3   OH262748   6.743   6.764  17.210  0.3689  0.0406  0.3114
13778TIP3    H162749   6.674   6.744  17.148 -0.9148 -0.4750  1.8527
13778TIP3    H262750   6.786   6.842  17.174 -0.1279 -0.4231 -1.3480
13779TIP3   OH262751   1.900   0.432  14.335  0.4266  0.5433 -0.0032
13779TIP3    H162752   1.880   0.374  14.408  0.3454  1.3172  0.5943
13779TIP3    H262753   1.951   0.377  14.275 -2.0057 -0.9952 -0.8110
13780TIP3   OH262754   0.956   4.675   1.227  0.0401  0.2603  0.4435
13780TIP3    H162755   0.930   4.590   1.191  2.4118 -1.4643  2.5124
13780TIP3    H262756   1.004   4.717   1.156 -1.7186  0.2654 -0.8312
13781TIP3   OH262757   2.629   4.762   2.827 -0.3332 -0.1474  0.6221
13781TIP3    H162758   2.540   4.734   2.852 -0.6826  0.3421 -0.0311
13781TIP3    H262759   2.684   4.686   2.846 -1.5325 -2.1229 -2.8898
13782TIP3   OH262760   1.714   0.708  16.471  0.5138 -0.2382  0.1030
13782TIP3    H162761   1.775   0.724  16.399  1.1574 -1.1661  0.4240
13782TIP3    H262762   1.755   0.751  16.546  0.7762 -0.8498  0.3174
13783TIP3   OH262763   1.475   2.514  15.984 -0.1916  0.2576  0.0563
13783TIP3    H162764   1.457   2.602  15.952 -1.1709  0.6543  1.5876
13783TIP3    H262765   1.520   2.528  16.068 -0.0563 -0.7058  0.1523
13784TIP3   OH262766   3.920   1.331  16.780 -0.8753 -0.7469 -0.6291
13784TIP3    H162767   3.916   1.423  16.756  1.7510 -0.0848  0.9916
13784TIP3    H262768   4.012   1.307  16.768 -1.0054 -2.4663  1.1527
13785TIP3   OH262769   2.590   4.708  11.960  0.1267 -0.2612  0.0535
13785TIP3    H162770   2.545   4.780  11.917  2.0626  1.3097  0.4920
13785TIP3    H262771   2.680   4.712  11.925  0.7748 -1.2430  1.5176
13786TIP3   OH262772   1.346   2.833   5.605 -0.1425  0.3715  0.4104
13786TIP3    H162773   1.373   2.759   5.550  1.8080 -2.0218  4.1515
13786TIP3    H262774   1.264   2.804   5.644 -0.0645  0.7996  0.8923
13787TIP3   OH262775   2.100   2.842   3.830  0.0190 -0.6549 -0.4030
13787TIP3    H162776   2.033   2.774   3.827  0.1149 -0.7265 -1.2844
13787TIP3    H262777   2.177   2.801   3.791  0.2483 -0.2297 -0.4005
13788TIP3   OH262778   1.001   3.115  16.093  0.8008  0.2018 -0.1763
13788TIP3    H162779   0.911   3.101  16.063 -0.4082  1.5919  2.5300
13788TIP3    H262780   1.022   3.035  16.142  0.8532  0.1077 -0.3499
13789TIP3   OH262781   4.531   5.588  12.089  0.1005  0.0242 -0.0767
13789TIP3    H162782   4.583   5.644  12.146  2.3393 -1.8511 -0.1856
13789TIP3    H262783   4.550   5.620  12.001 -0.1947  0.3557 -0.0210
13790TIP3   OH262784   5.162   4.422  15.154 -0.8456  0.1579 -0.0117
13790TIP3    H162785   5.210   4.378  15.225  0.2411 -0.4760 -1.1043
13790TIP3    H262786   5.125   4.351  15.102 -0.3123  0.5549 -0.9633
13791TIP3   OH262787   1.621   0.709   2.005 -0.2619 -0.0119  0.7989
13791TIP3    H162788   1.697   0.737   2.057  2.7972 -3.3323 -1.4485
13791TIP3    H262789   1.597   0.624   2.041 -0.3358 -0.7806 -0.9751
13792TIP3   OH262790   0.985   4.658   6.444  0.3939  0.1009  0.2000
13792TIP3    H162791   0.998   4.577   6.492  0.4872 -0.3771 -0.6108
13792TIP3    H262792   0.892   4.678   6.454  0.6535  0.6920  1.6182
13793TIP3   OH262793   1.846   3.520  13.815  0.2919 -0.4457 -0.1988
13793TIP3    H162794   1.760   3.485  13.837  0.0471  0.0580 -0.3439
13793TIP3    H262795   1.884   3.454  13.756  0.1950 -0.8851  0.2193
13794TIP3   OH262796   2.231   5.020   3.237 -0.4793 -0.1568  0.0876
13794TIP3    H162797   2.179   4.957   3.285  0.9584  0.4236  2.5840
13794TIP3    H262798   2.295   5.052   3.300 -0.2666  2.8116 -1.4323
13795TIP3   OH262799   3.395   1.516   4.725  0.1290  0.2077  0.2503
13795TIP3    H162800   3.311   1.482   4.694  0.0304 -0.9889  1.7748
13795TIP3    H262801   3.411   1.593   4.669 -0.6596 -1.0837 -1.8550
13796TIP3   OH262802   3.442   2.695  10.621  0.6455 -0.2005 -0.0512
13796TIP3    H162803   3.451   2.653  10.535  0.1509  0.7969 -0.6007
13796TIP3    H262804   3.466   2.786  10.606 -1.4113  0.4710  0.3949
13797TIP3   OH262805   2.866   1.584  16.438 -0.2377 -0.4825  0.6259
13797TIP3    H162806   2.946   1.618  16.478 -0.1013 -0.9075  0.7213
13797TIP3    H262807   2.827   1.659  16.393  1.6678 -0.8479 -1.8374
13798TIP3   OH262808   1.440   1.623  10.699 -0.3051 -0.4022  0.0230
13798TIP3    H162809   1.511   1.598  10.640  0.6163 -0.7358  1.2267
13798TIP3    H262810   1.485   1.663  10.773 -1.3177 -1.2586  1.1300
13799TIP3   OH262811   0.729   1.453   5.884  0.6043 -0.0094  0.0784
13799TIP3    H162812   0.702   1.545   5.888  0.8471  0.0249  1.3670
13799TIP3    H262813   0.773   1.438   5.967  1.7858 -0.9215 -0.6857
13800TIP3   OH262814   2.832   3.816   6.445 -0.0245  0.2121  0.1202
13800TIP3    H162815   2.917   3.775   6.461 -0.2294 -0.8207 -1.1792
13800TIP3    H262816   2.783   3.803   6.526 -0.6360 -3.7229 -0.6318
13801TIP3   OH262817   2.494   2.150  11.921 -0.0863  0.3412 -1.0403
13801TIP3    H162818   2.551   2.224  11.940 -1.3555  1.0337  0.3280
13801TIP3    H262819   2.453   2.172  11.837 -0.3204  1.1080 -0.7287
13802TIP3   OH262820   2.957   3.338  13.883  0.0848  0.1965 -0.4728
13802TIP3    H162821   2.891   3.315  13.817  0.1899 -2.1393  0.1563
13802TIP3    H262822   2.905   3.364  13.960 -0.1890 -1.6818  0.0374
13803TIP3   OH262823   6.628   0.647   1.754 -0.0094 -0.6066 -0.3963
13803TIP3    H162824   6.597   0.735   1.777 -0.3887 -0.5913 -0.9400
13803TIP3    H262825   6.663   0.612   1.835  0.3413  0.1297 -0.2187
13804TIP3   OH262826   3.669   5.636  14.597 -0.5280 -0.5310 -0.2833
13804TIP3    H162827   3.753   5.590  14.589  0.1129  0.2501  1.3628
13804TIP3    H262828   3.623   5.589  14.667 -1.8377 -1.4188 -1.6693
13805TIP3   OH262829   0.731   4.000   2.356 -0.1849 -0.5946 -0.5034
13805TIP3    H162830   0.715   4.051   2.435  2.2243  1.1033 -1.0262
13805TIP3    H262831   0.817   3.960   2.370 -0.5108 -1.7311 -1.5611
13806TIP3   OH262832   3.649   3.349  13.138 -0.0030  0.1649 -0.1221
13806TIP3    H162833   3.582   3.337  13.071 -2.5135  0.8012  2.1021
13806TIP3    H262834   3.653   3.265  13.183 -1.4540  0.9485  1.5454
13807TIP3   OH262835   0.378   4.210   3.770 -0.8701  0.4728  0.2839
13807TIP3    H162836   0.385   4.200   3.865  0.7416  0.3277  0.1759
13807TIP3    H262837   0.468   4.224   3.740 -0.9473 -1.9878 -1.4974
13808TIP3   OH262838   5.933   2.983   0.124  0.5576  0.3895  0.4181
13808TIP3    H162839   5.908   3.067   0.086  0.3532  0.6015  1.0072
13808TIP3    H262840   5.852   2.948   0.161  0.6699 -0.0018  0.3010
13809TIP3   OH262841   2.412   6.407   0.116 -0.4009  0.1306 -0.5571
13809TIP3    H162842   2.318   6.419   0.128 -0.4242  0.5421 -1.1051
13809TIP3    H262843   2.428   6.429   0.024  0.4903  1.8225 -0.0395
13810TIP3   OH262844   5.207   6.301   0.242 -0.2912 -0.4393 -0.0438
13810TIP3    H162845   5.295   6.332   0.264 -0.1439  0.4623 -1.7950
13810TIP3    H262846   5.178   6.358   0.172 -2.9410  0.3062  1.5187
13811TIP3   OH262847   2.575   0.452   1.689  0.3436 -0.4811 -0.5906
13811TIP3    H162848   2.582   0.480   1.597 -0.8950 -0.2067 -0.6194
13811TIP3    H262849   2.515   0.516   1.729  1.0088 -0.4982  0.4562
13812TIP3   OH262850   6.055   0.371  16.700 -0.2721  0.0864  0.0913
13812TIP3    H162851   6.101   0.416  16.771 -0.2406  0.6581 -0.2800
13812TIP3    H262852   5.962   0.384  16.720 -0.2687  1.0751 -0.4643
13813TIP3   OH262853   4.806   4.118   4.247 -0.3007  0.2989  0.3247
13813TIP3    H162854   4.757   4.100   4.327 -1.3831 -0.2751 -0.4442
13813TIP3    H262855   4.740   4.117   4.178  0.5691  1.0866 -0.5473
13814TIP3   OH262856   1.670   6.277  16.137  0.4042  0.4600  0.0488
13814TIP3    H162857   1.766   6.270  16.133  0.3353 -0.6005  0.1549
13814TIP3    H262858   1.638   6.200  16.091 -0.4068  0.5402  0.4625
13815TIP3   OH262859   0.589   0.633   5.326 -0.2030  0.3139  0.1413
13815TIP3    H162860   0.568   0.707   5.383  2.4491  0.6946  0.7644
13815TIP3    H262861   0.622   0.673   5.245 -1.1687 -0.2179 -0.5301
13816TIP3   OH262862   4.575   2.424  14.761 -0.1557  0.6657  0.1396
13816TIP3    H162863   4.539   2.507  14.791 -1.6379  0.3390 -0.6402
13816TIP3    H262864   4.601   2.440  14.671  2.1004  0.9962  0.7886
13817TIP3   OH262865   0.180   4.786   3.277  0.1425  0.0851  0.5511
13817TIP3    H162866   0.201   4.695   3.256 -0.1566  0.1978 -0.2633
13817TIP3    H262867   0.154   4.784   3.369 -0.8202 -0.8195  0.2768
13818TIP3   OH262868   5.420   0.103  13.013  0.3540 -0.4767 -0.1484
13818TIP3    H162869   5.460   0.038  12.954  0.7203 -0.5032  0.1264
13818TIP3    H262870   5.484   0.114  13.083  0.2312  0.0846 -0.1218
13819TIP3   OH262871   1.923   6.045   0.812  0.5786 -0.0987 -0.0608
13819TIP3    H162872   1.914   6.035   0.907 -0.4610 -2.0383 -0.3046
13819TIP3    H262873   1.999   5.990   0.789 -0.2807 -1.1314 -0.5289
13820TIP3   OH262874   3.873   0.394  15.685  0.4883 -0.2226  0.2357
13820TIP3    H162875   3.870   0.447  15.605  0.5759 -2.0137 -1.0077
13820TIP3    H262876   3.842   0.453  15.754  2.9321  2.2471 -0.5774
13821TIP3   OH262877   5.491   1.433   0.972  0.4516  0.1011 -0.1212
13821TIP3    H162878   5.497   1.404   1.063 -0.7008 -0.2057 -0.1315
13821TIP3    H262879   5.403   1.471   0.965 -0.1744 -1.5180 -1.5511
13822TIP3   OH262880   0.354   3.862  12.787 -0.2820  0.2628  0.3957
13822TIP3    H162881   0.441   3.836  12.815 -0.3905  1.5564  2.1447
13822TIP3    H262882   0.368   3.933  12.724 -0.0701 -0.4335 -0.3513
13823TIP3   OH262883   0.910   6.271   2.147  0.0225  0.3950 -0.3153
13823TIP3    H162884   0.884   6.199   2.205  0.4421  0.2957 -0.2468
13823TIP3    H262885   0.836   6.282   2.088  0.3912 -0.8327 -1.0391
13824TIP3   OH262886   3.576   0.466   6.370 -0.1441 -0.8128  0.0703
13824TIP3    H162887   3.491   0.504   6.391 -0.1708 -0.5274 -0.5368
13824TIP3    H262888   3.638   0.538   6.381 -0.3361 -0.2335 -2.2261
13825TIP3   OH262889   0.890   4.097   2.985  0.0562 -0.2823  0.4860
13825TIP3    H162890   0.885   4.191   2.969  2.7449  0.2188  2.0892
13825TIP3    H262891   0.812   4.077   3.037 -0.0297  1.2709  0.9857
13826TIP3   OH262892   3.205   0.839   4.694  0.0033 -0.6219  0.1400
13826TIP3    H162893   3.257   0.762   4.675 -0.6287 -1.8241  2.8448
13826TIP3    H262894   3.135   0.839   4.627  1.7465 -0.5407 -1.7844
13827TIP3   OH262895   6.728   5.997  11.523  0.2007 -0.4874  0.6502
13827TIP3    H162896   6.690   5.921  11.478  2.3103 -0.8087 -0.7606
13827TIP3    H262897   6.721   6.068  11.460  1.5212 -0.4711  0.4834
13828TIP3   OH262898   3.805   0.865   1.114 -0.8313  0.0609 -0.2402
13828TIP3    H162899   3.795   0.958   1.095 -1.1367  0.1261  0.2224
13828TIP3    H262900   3.843   0.828   1.034  0.8768  0.8675  0.1521
13829TIP3   OH262901   0.718   4.037   4.427  0.2930 -0.6242  0.0133
13829TIP3    H162902   0.624   4.021   4.435  0.3654 -1.0317  0.0302
13829TIP3    H262903   0.749   3.969   4.368  0.1879  0.8649 -1.8628
13830TIP3   OH262904   0.142   5.648   2.904  0.3866  0.3500 -0.2691
13830TIP3    H162905   0.124   5.563   2.944  0.1687 -0.4236 -1.9429
13830TIP3    H262906   0.237   5.658   2.913  0.1861  0.8440  1.6337
13831TIP3   OH262907   1.556   3.231  12.276  0.4923  0.2563  0.3303
13831TIP3    H162908   1.523   3.158  12.224 -1.6547  0.7711  0.8670
13831TIP3    H262909   1.572   3.300  12.213 -0.4003  0.2950  0.1256
13832TIP3   OH262910   0.211   1.634  13.653 -0.1563  0.4383  0.4401
13832TIP3    H162911   0.126   1.612  13.692  0.9089 -3.2462  1.1177
13832TIP3    H262912   0.216   1.578  13.575  1.4711  0.8676  0.2087
13833TIP3   OH262913   3.255   2.078   3.133  0.3469  0.1290  0.1371
13833TIP3    H162914   3.205   2.013   3.083 -1.1835  0.3414  1.3451
13833TIP3    H262915   3.338   2.034   3.152  2.0581  0.7827 -4.4203
13834TIP3   OH262916   1.733   4.674   3.588  0.0865 -0.0468 -0.0536
13834TIP3    H162917   1.664   4.735   3.612  0.6681 -0.5994  3.4779
13834TIP3    H262918   1.687   4.602   3.543 -1.9125 -0.8633  3.0010
13835TIP3   OH262919   0.733   6.550  14.501  0.7611 -0.3614  0.1138
13835TIP3    H162920   0.745   6.618  14.435  2.0717  0.5623  1.2514
13835TIP3    H262921   0.678   6.485  14.458 -0.7762  1.5153 -0.9454
13836TIP3   OH262922   1.805   4.628  15.879  0.8882  0.4892  0.3121
13836TIP3    H162923   1.779   4.708  15.925 -2.1836 -0.5361  0.6025
13836TIP3    H262924   1.726   4.601  15.832  1.9708 -2.0851 -0.1860
13837TIP3   OH262925   2.219   1.805   2.108 -0.3617  0.2091  0.3338
13837TIP3    H162926   2.289   1.751   2.146 -0.4702 -0.7822 -0.8182
13837TIP3    H262927   2.164   1.829   2.183  0.8469  0.4731  1.1659
13838TIP3   OH262928   2.060   1.614  13.711  0.2982  0.4825 -0.1566
13838TIP3    H162929   2.005   1.562  13.770 -0.2720  1.6977  0.4154
13838TIP3    H262930   2.017   1.609  13.626  1.0982 -1.2437 -0.5094
13839TIP3   OH262931   4.159   0.939   0.351 -0.5664  0.4526 -0.8108
13839TIP3    H162932   4.170   0.986   0.433  1.3008 -0.8785 -0.2510
13839TIP3    H262933   4.248   0.914   0.325 -1.4267 -3.7554 -0.4473
13840TIP3   OH262934   3.943   1.934   1.307 -0.1752 -0.0434 -0.4750
13840TIP3    H162935   3.898   1.971   1.383 -1.2861 -0.2330 -1.0305
13840TIP3    H262936   3.908   1.982   1.232 -0.9915 -1.5790 -1.1200
13841TIP3   OH262937   0.334   0.388  13.150  0.2542  0.0341 -0.1319
13841TIP3    H162938   0.272   0.335  13.101 -1.7625  1.4752  0.7360
13841TIP3    H262939   0.419   0.345  13.136 -0.5359 -0.7725 -3.1178
13842TIP3   OH262940   3.085   4.815  11.893 -0.1714 -0.0757  0.4004
13842TIP3    H162941   3.098   4.884  11.828 -0.0239 -1.1513 -0.7509
13842TIP3    H262942   3.165   4.818  11.946 -0.4835  1.1023  0.8401
13843TIP3   OH262943   2.165   3.389   0.270  0.0568  0.0018  0.2674
13843TIP3    H162944   2.232   3.336   0.227 -0.9334 -1.0733  0.0107
13843TIP3    H262945   2.185   3.479   0.244  1.1133 -0.3503 -0.1814
13844TIP3   OH262946   0.296   6.040  11.318  0.2128  0.1691  0.5004
13844TIP3    H162947   0.379   6.021  11.363 -0.2160 -0.5154  1.0216
13844TIP3    H262948   0.257   5.954  11.303 -1.0721  0.5462  1.5331
13845TIP3   OH262949   5.791   0.299  16.402  0.5136 -0.2323  0.0125
13845TIP3    H162950   5.759   0.210  16.390 -0.2162 -0.0546  0.5375
13845TIP3    H262951   5.711   0.352  16.411  0.9273  0.5468 -0.7828
13846TIP3   OH262952   5.268   3.553   3.317 -0.1672 -0.4981  0.5622
13846TIP3    H162953   5.354   3.594   3.315 -0.4501  0.1576  1.2558
13846TIP3    H262954   5.285   3.460   3.302  0.6856 -0.4098  0.9128
13847TIP3   OH262955   6.397   1.402  11.619  0.1527  0.1108 -0.3946
13847TIP3    H162956   6.384   1.388  11.525 -1.8567 -2.0892  0.1149
13847TIP3    H262957   6.324   1.458  11.645  0.3467  0.2038 -0.0414
13848TIP3   OH262958   6.282   6.136  13.227  0.4414 -0.1155 -0.2355
13848TIP3    H162959   6.293   6.082  13.306 -1.5657 -0.0247  0.1621
13848TIP3    H262960   6.251   6.220  13.260 -0.4877 -0.1029 -1.1235
13849TIP3   OH262961   3.847   6.662   1.950 -0.1064  0.4548 -0.1636
13849TIP3    H162962   3.882   6.751   1.961  2.3556 -0.5196  0.6217
13849TIP3    H262963   3.772   6.673   1.893  1.2637  2.8150 -1.6930
13850TIP3   OH262964   3.225   3.893   0.573 -0.5504  0.2878 -0.0354
13850TIP3    H162965   3.275   3.930   0.500 -0.7339  0.4228 -0.0931
13850TIP3    H262966   3.209   3.968   0.631  1.6477 -0.2047  1.3572
13851TIP3   OH262967   2.272   2.908   2.339 -0.0032  0.4859 -0.3850
13851TIP3    H162968   2.187   2.883   2.303 -0.7697  0.6099  1.2481
13851TIP3    H262969   2.324   2.828   2.338 -0.4823  0.1761 -0.4664
13852TIP3   OH262970   3.837   3.624  16.625 -0.1527 -0.5378 -0.2983
13852TIP3    H162971   3.930   3.646  16.612 -0.1477  0.0658  0.6345
13852TIP3    H262972   3.798   3.706  16.657 -0.8970 -0.9449 -0.1509
13853TIP3   OH262973   5.540   3.296  12.280 -0.2683 -0.3739  0.0110
13853TIP3    H162974   5.585   3.228  12.231  1.3269  0.6095  0.0153
13853TIP3    H262975   5.485   3.340  12.216 -0.6024 -1.0824 -0.1900
13854TIP3   OH262976   1.941   1.493   5.902  0.1057  0.3406  0.7021
13854TIP3    H162977   1.946   1.556   5.830  0.2584  0.4821  0.8366
13854TIP3    H262978   1.871   1.432   5.875  1.7342 -1.0133 -0.6906
13855TIP3   OH262979   1.478   0.833  16.189 -0.4721 -0.8473  0.2532
13855TIP3    H162980   1.458   0.756  16.242  1.0881  0.3009  2.6936
13855TIP3    H262981   1.456   0.907  16.245 -0.8124  0.5052 -1.5759
13856TIP3   OH262982   1.346   3.047   0.243  0.4234 -0.0161 -0.8250
13856TIP3    H162983   1.402   3.119   0.216 -0.0549  1.0086  0.7590
13856TIP3    H262984   1.378   2.972   0.194  1.6941  1.0191 -1.6481
13857TIP3   OH262985   1.510   4.324   0.895  0.0731 -0.1661 -0.3596
13857TIP3    H162986   1.557   4.303   0.814 -0.2888  0.2609 -0.6875
13857TIP3    H262987   1.459   4.246   0.914 -0.3387 -0.0460 -0.9103
13858TIP3   OH262988   3.005   5.337   6.194 -0.1248  0.1206  0.1973
13858TIP3    H162989   2.946   5.261   6.187 -0.7727  0.7103 -1.0949
13858TIP3    H262990   3.014   5.351   6.288 -2.1872  0.0777  0.4595
13859TIP3   OH262991   4.839   3.788  16.577  0.4445 -0.2885 -0.0800
13859TIP3    H162992   4.857   3.817  16.666  1.0480  0.3669 -0.4053
13859TIP3    H262993   4.921   3.750  16.547  0.6513  0.6729 -0.7958
13860TIP3   OH262994   3.171   6.661   0.707 -0.2517 -0.0765  0.1735
13860TIP3    H162995   3.244   6.600   0.697 -0.5570 -0.6830  1.4361
13860TIP3    H262996   3.110   6.637   0.638 -0.5211 -1.4580  0.8573
13861TIP3   OH262997   2.359   0.860  11.877  0.3321  0.0666  0.0281
13861TIP3    H162998   2.312   0.868  11.960  0.5041  2.3578 -0.0186
13861TIP3    H262999   2.313   0.791  11.829 -1.1941  0.2689  1.1342
13862TIP3   OH263000   4.834   4.734  12.589 -0.1210  0.3202  0.1913
13862TIP3    H163001   4.793   4.791  12.524  0.0761  0.6206  0.3298
13862TIP3    H263002   4.819   4.778  12.672 -1.2944 -0.5825  0.4859
13863TIP3   OH263003   6.651   0.883   1.022  0.3383 -0.0630 -1.3350
13863TIP3    H163004   6.606   0.876   1.106  0.3980 -0.5790 -1.3466
13863TIP3    H263005   6.742   0.904   1.046  0.3123 -0.0126 -1.2791
13864TIP3   OH263006   6.332   5.231   3.443  0.2270 -0.6921  0.6715
13864TIP3    H163007   6.300   5.295   3.378  0.0066 -0.1326  1.3180
13864TIP3    H263008   6.259   5.171   3.455 -0.6962  0.6451  2.2249
13865TIP3   OH263009   0.776   0.933  16.434  0.5399  0.2997  0.3571
13865TIP3    H163010   0.813   0.994  16.369 -0.3729  1.1659  0.6182
13865TIP3    H263011   0.702   0.893  16.388  0.8175 -0.2182  0.3640
13866TIP3   OH263012   2.395   1.896  15.886 -0.6574  0.2592 -0.3748
13866TIP3    H163013   2.379   1.914  15.979 -2.3034 -0.6756 -0.4303
13866TIP3    H263014   2.403   1.801  15.881  0.4982  0.3786 -1.0595
13867TIP3   OH263015   0.073   0.776   4.395  0.0293 -0.7794  0.1640
13867TIP3    H163016   0.109   0.697   4.355  0.0441 -0.0403 -1.3569
13867TIP3    H263017   0.149   0.819   4.436  0.7044  0.0746 -1.8427
13868TIP3   OH263018   0.873   1.945   0.439  0.1566 -0.0130 -0.3364
13868TIP3    H163019   0.811   1.929   0.511  1.0798 -0.4680  0.3888
13868TIP3    H263020   0.916   2.027   0.462  0.8030 -0.4094 -0.1007
13869TIP3   OH263021   5.107   4.143   2.838 -0.0208 -0.2885 -0.3066
13869TIP3    H163022   5.121   4.208   2.907 -1.7957 -0.1264 -0.0500
13869TIP3    H263023   5.187   4.146   2.785  1.0844  0.0940  1.3085
13870TIP3   OH263024   3.053   2.104  10.614  0.1672  0.1750  0.0946
13870TIP3    H163025   3.042   2.089  10.520 -0.6915  0.4814  0.1406
13870TIP3    H263026   3.140   2.069  10.633 -0.3240 -1.4886 -0.4876
13871TIP3   OH263027   4.250   6.454   3.597  0.0588 -0.8368  0.0173
13871TIP3    H163028   4.208   6.526   3.550  0.7378 -0.0157  0.6413
13871TIP3    H263029   4.180   6.390   3.612 -0.5919 -0.2167 -0.3579
13872TIP3   OH263030   0.612   0.066   2.179  0.5340 -0.3170 -0.2948
13872TIP3    H163031   0.693   0.025   2.147  1.2714 -0.0507  1.1357
13872TIP3    H263032   0.620   0.063   2.275 -1.2652 -0.4798 -0.1087
13873TIP3   OH263033   1.629   1.250   1.695 -0.3600  0.6082 -0.5554
13873TIP3    H163034   1.637   1.319   1.629  2.0450  2.2593  1.3277
13873TIP3    H263035   1.717   1.214   1.703 -1.1139 -1.2036  0.1108
13874TIP3   OH263036   5.417   6.059  11.286 -0.0972 -0.2551 -0.3534
13874TIP3    H163037   5.379   6.006  11.216 -0.7609 -1.2825  0.7576
13874TIP3    H263038   5.387   6.018  11.367  0.4294  1.0665  0.5491
13875TIP3   OH263039   2.338   2.507  14.344  0.7393 -0.3213 -0.3438
13875TIP3    H163040   2.286   2.431  14.315 -1.3787  1.2602 -0.9566
13875TIP3    H263041   2.330   2.506  14.439 -0.5603 -0.0652 -0.4242
13876TIP3   OH263042   2.710   4.644   0.775 -0.1636 -0.1251 -0.8194
13876TIP3    H163043   2.677   4.556   0.793  2.4388 -1.1707 -0.7963
13876TIP3    H263044   2.675   4.698   0.846 -1.7392 -1.1247 -0.7906
13877TIP3   OH263045   3.478   5.733  15.051 -0.1872  0.1127  0.2008
13877TIP3    H163046   3.465   5.778  15.134 -0.4802 -0.3834  0.4296
13877TIP3    H263047   3.496   5.642  15.075  1.1668  0.2385 -0.2120
13878TIP3   OH263048   1.078   0.212  11.397  0.0226  0.0960  0.7464
13878TIP3    H163049   1.137   0.194  11.470 -0.0234 -1.6498  0.4085
13878TIP3    H263050   1.092   0.138  11.337 -1.0690  0.6856 -0.2700
13879TIP3   OH263051   6.218   4.390   2.446 -0.2881  0.1899 -0.4874
13879TIP3    H163052   6.168   4.323   2.494 -0.0444 -0.1052 -0.6383
13879TIP3    H263053   6.255   4.343   2.371 -0.6116  0.6345 -0.9309
13880TIP3   OH263054   4.779   4.617   1.041  0.2547  0.2967 -0.3780
13880TIP3    H163055   4.786   4.707   1.008 -1.8269  0.2719 -1.0038
13880TIP3    H263056   4.711   4.621   1.108 -0.8415 -1.0190 -1.3537
13881TIP3   OH263057   3.188   3.995   4.537 -0.0326  0.4671  0.0868
13881TIP3    H163058   3.112   3.996   4.595  0.4529 -2.5099  0.9205
13881TIP3    H263059   3.236   4.075   4.560 -1.9141  1.4494  0.8503
13882TIP3   OH263060   1.033   3.336   5.322 -0.1816 -0.5549  0.0521
13882TIP3    H163061   1.113   3.285   5.331  0.8940  0.7727 -1.3272
13882TIP3    H263062   1.033   3.395   5.397 -0.9135 -1.8408  1.1036
13883TIP3   OH263063   2.080   5.648  12.807 -0.5855  0.1264 -0.2940
13883TIP3    H163064   2.146   5.643  12.876 -2.2806  0.4222  1.4435
13883TIP3    H263065   2.110   5.719  12.750  1.0690 -0.4050 -0.1297
13884TIP3   OH263066   0.665   1.612  13.059  0.4614 -0.3567 -0.0979
13884TIP3    H163067   0.710   1.696  13.074  1.6151 -0.7760 -1.0536
13884TIP3    H263068   0.735   1.552  13.035 -0.4577 -1.4118 -0.1814
13885TIP3   OH263069   0.927   6.708  13.785  0.3653 -0.4020  0.6788
13885TIP3    H163070   0.885   6.634  13.742  1.8226 -0.7930 -0.1073
13885TIP3    H263071   0.987   6.669  13.848 -0.3965  0.1538  1.7839
13886TIP3   OH263072   3.047   1.015  16.052  0.1133  0.3904  0.7914
13886TIP3    H163073   2.989   0.942  16.029  0.6656  0.0396  0.4864
13886TIP3    H263074   3.069   1.000  16.144  1.5599 -0.7954  0.3048
13887TIP3   OH263075   1.655   4.019   0.731 -0.5899 -0.0243 -0.3786
13887TIP3    H163076   1.743   3.980   0.728 -0.9566 -1.0122  0.8474
13887TIP3    H263077   1.610   3.981   0.655 -0.0114  0.3652 -0.9233
13888TIP3   OH263078   3.436   0.482   4.954  0.5020 -0.4280  0.6445
13888TIP3    H163079   3.369   0.483   5.022  1.8973  0.0030  2.1018
13888TIP3    H263080   3.517   0.460   5.001  1.5833  0.2508 -0.8116
13889TIP3   OH263081   5.793   2.659  10.373 -0.4848 -0.4962 -0.1322
13889TIP3    H163082   5.865   2.689  10.428 -0.5830 -0.3501 -0.0800
13889TIP3    H263083   5.834   2.638  10.289 -0.8384  3.3698 -1.4934
13890TIP3   OH263084   1.132   4.459  13.278  0.3077 -0.2759  0.4870
13890TIP3    H163085   1.062   4.403  13.243  0.3357 -0.0900  0.1274
13890TIP3    H263086   1.176   4.405  13.344  0.9633 -1.0358 -0.5443
13891TIP3   OH263087   4.843   2.060   5.309 -0.5372  0.1476  0.1200
13891TIP3    H163088   4.865   2.143   5.265  1.1332 -0.1082  0.4020
13891TIP3    H263089   4.764   2.080   5.360 -0.4715  1.4113 -0.2327
13892TIP3   OH263090   4.881   3.050   2.969  0.6133 -0.1985 -0.2877
13892TIP3    H163091   4.805   3.005   3.006  1.3760 -0.8918  0.4683
13892TIP3    H263092   4.877   3.031   2.875 -0.1390 -0.2321 -0.2542
13893TIP3   OH263093   1.669   4.160  10.864  0.0499  0.3493  0.3878
13893TIP3    H163094   1.621   4.078  10.856 -0.8773  0.6614  2.0947
13893TIP3    H263095   1.761   4.136  10.855 -0.2840 -0.6722 -0.3746
13894TIP3   OH263096   2.910   4.449   3.673  0.2360 -0.3761 -0.2141
13894TIP3    H163097   2.987   4.422   3.723  1.0942  3.1712  0.6249
13894TIP3    H263098   2.836   4.426   3.729  0.7539 -1.9773 -0.1260
13895TIP3   OH263099   5.812   5.321  14.267  0.2077  0.3976  0.0354
13895TIP3    H163100   5.834   5.300  14.358  0.3714  0.6688  0.0588
13895TIP3    H263101   5.730   5.273  14.251  1.3914 -1.6161 -0.4365
13896TIP3   OH263102   4.199   5.270  15.781  0.5461  0.0169  0.1959
13896TIP3    H163103   4.257   5.345  15.766 -0.7528  1.2843  1.2760
13896TIP3    H263104   4.204   5.253  15.875 -0.6208 -0.0076  0.2711
13897TIP3   OH263105   5.041   1.283   4.355  0.0540  0.5377  0.2562
13897TIP3    H163106   4.991   1.342   4.411  0.3313  0.3623  0.6885
13897TIP3    H263107   5.108   1.338   4.315 -0.9431  0.9406 -0.9232
13898TIP3   OH263108   2.584   2.462   1.235  0.2541  0.2113 -0.0773
13898TIP3    H163109   2.671   2.497   1.253  0.3360 -0.8431  1.8315
13898TIP3    H263110   2.600   2.377   1.195  0.0809  0.4027 -0.5602
13899TIP3   OH263111   6.719   3.711   4.258  0.4987 -0.7432  0.1522
13899TIP3    H163112   6.648   3.756   4.304  0.0021 -1.7623  0.4145
13899TIP3    H263113   6.677   3.675   4.179  0.6500 -1.5654  0.4353
13900TIP3   OH263114   2.166   1.528   5.124  0.0572  0.1311  0.1237
13900TIP3    H163115   2.249   1.541   5.171 -0.0479 -1.2471  0.7141
13900TIP3    H263116   2.193   1.501   5.036  0.2554 -0.8535  0.4736
13901TIP3   OH263117   3.870   5.725  15.891  0.3782  0.3018  0.6530
13901TIP3    H163118   3.842   5.637  15.916  0.8498 -1.2892 -3.6913
13901TIP3    H263119   3.958   5.714  15.854  1.6959  3.1659  2.5061
13902TIP3   OH263120   2.390   0.126  12.398 -0.1388  0.0333 -0.3096
13902TIP3    H163121   2.408   0.072  12.320  0.6291  0.5167 -0.4731
13902TIP3    H263122   2.361   0.210  12.363 -1.5272 -0.3151 -0.0517
13903TIP3   OH263123   3.759   4.205  13.379 -0.3450  0.0381 -0.0878
13903TIP3    H163124   3.666   4.219  13.363 -0.2887 -0.8313 -1.2648
13903TIP3    H263125   3.788   4.285  13.422 -1.2588  1.0797 -1.3382
13904TIP3   OH263126   0.603   1.435   6.510 -0.1025 -0.1512 -0.1012
13904TIP3    H163127   0.625   1.487   6.433 -1.1779  0.1464 -0.2280
13904TIP3    H263128   0.507   1.432   6.510 -0.2256  1.3508  2.1930
13905TIP3   OH263129   1.096   3.561   3.158  0.2933  0.0378 -0.3996
13905TIP3    H163130   1.062   3.482   3.117 -0.6930  0.1647  0.1553
13905TIP3    H263131   1.019   3.615   3.176  0.7755  0.3751  0.7803
13906TIP3   OH263132   3.790   6.636  11.504  0.0898 -0.0157  0.0318
13906TIP3    H163133   3.703   6.642  11.464 -0.2634 -0.9780  0.6301
13906TIP3    H263134   3.847   6.610  11.432 -0.3930 -0.8934 -0.0554
13907TIP3   OH263135   5.520   1.674   0.019 -0.6211  0.5181  0.7700
13907TIP3    H163136   5.445   1.729   0.039 -0.2947  0.1456  3.4696
13907TIP3    H263137   5.568   1.669   0.102  1.2491 -0.9432 -0.3317
13908TIP3   OH263138   1.680   6.290   1.486 -0.4098  0.2140  0.2436
13908TIP3    H163139   1.670   6.382   1.509  1.4452  1.2307 -2.5584
13908TIP3    H263140   1.615   6.275   1.418  1.8732  0.7129 -2.2172
13909TIP3   OH263141   2.636   6.243  12.529  0.1431  0.1274  0.2663
13909TIP3    H163142   2.725   6.253  12.563 -0.1163  1.4000  0.6037
13909TIP3    H263143   2.580   6.280  12.597 -0.5267  0.8201 -0.6364
13910TIP3   OH263144   6.709   2.860   4.777  0.5015 -0.0409 -0.1960
13910TIP3    H163145   6.624   2.889   4.810  1.4324  1.6997  0.8538
13910TIP3    H263146   6.718   2.770   4.809  0.1177  0.6029  1.8710
13911TIP3   OH263147   4.121   1.875   3.132 -0.3867 -0.4520  0.0207
13911TIP3    H163148   4.206   1.871   3.176  0.7136  1.8878 -1.7263
13911TIP3    H263149   4.073   1.943   3.179 -0.3096  0.0317 -0.6015
13912TIP3   OH263150   3.566   3.310   0.388 -0.5097 -0.0680 -0.7787
13912TIP3    H163151   3.577   3.223   0.350 -0.7881 -0.4257 -0.0442
13912TIP3    H263152   3.500   3.299   0.457 -0.6685  0.7521 -0.7790
13913TIP3   OH263153   6.475   4.309  15.437  0.0335  0.4734  0.8129
13913TIP3    H163154   6.496   4.307  15.344 -1.8985  1.1068  0.3274
13913TIP3    H263155   6.531   4.378  15.473  0.6913  0.3179  0.1046
13914TIP3   OH263156   0.864   5.733   2.173 -0.3193  0.3099 -0.3249
13914TIP3    H163157   0.951   5.770   2.180  0.1745 -0.8678  0.0621
13914TIP3    H263158   0.845   5.731   2.079  1.6583 -2.8540 -0.7909
13915TIP3   OH263159   4.889   5.106   0.605  0.5913 -0.5745  0.1441
13915TIP3    H163160   4.941   5.118   0.525  1.8232 -0.1163  0.9782
13915TIP3    H263161   4.898   5.013   0.626  1.5148 -0.4066  0.5494
13916TIP3   OH263162   1.273   3.225   0.439  0.0018  0.3808  0.2014
13916TIP3    H163163   1.272   3.182   0.354 -0.1540  2.1565 -0.7439
13916TIP3    H263164   1.335   3.174   0.491 -1.0336 -1.6516 -0.4321
13917TIP3   OH263165   2.434   0.694  15.878  0.0718  0.1716  0.3178
13917TIP3    H163166   2.472   0.641  15.807 -0.2037  2.3871 -1.5995
13917TIP3    H263167   2.510   0.733  15.921  0.2055 -0.6591  0.8719
13918TIP3   OH263168   4.186   3.840   2.741 -0.6634  0.2951 -0.2865
13918TIP3    H163169   4.237   3.885   2.809 -0.0404  0.7780 -1.0497
13918TIP3    H263170   4.190   3.899   2.666 -0.9768 -0.4243 -0.8764
13919TIP3   OH263171   6.723   1.063   4.516  0.6149  0.1125  0.3076
13919TIP3    H163172   6.717   1.151   4.479  0.5022  0.3634  0.9137
13919TIP3    H263173   6.641   1.020   4.491  0.3446  0.4300  0.6434
13920TIP3   OH263174   0.042   1.963  14.914  0.0235  0.0401  0.6055
13920TIP3    H163175   0.125   1.954  14.959  0.4073  0.8899  0.1031
13920TIP3    H263176   0.035   2.057  14.895 -0.7237 -0.1170  0.0400
13921TIP3   OH263177   4.279   4.120   2.848  0.4863 -0.2458 -0.1803
13921TIP3    H163178   4.191   4.146   2.819  0.2605 -0.1064  0.6191
13921TIP3    H263179   4.265   4.078   2.933  1.1792 -0.3636 -0.1201
13922TIP3   OH263180   1.837   5.123   3.598  0.3700  0.3914  0.2347
13922TIP3    H163181   1.812   5.054   3.537  0.2353  1.1839 -0.6395
13922TIP3    H263182   1.770   5.121   3.666  0.1637 -0.0880  0.0194
13923TIP3   OH263183   3.895   6.527   1.041  0.3130  0.4398 -0.8604
13923TIP3    H163184   3.826   6.464   1.017 -0.4040  0.4281  1.0500
13923TIP3    H263185   3.876   6.604   0.986 -0.3131 -0.0997 -1.4344
13924TIP3   OH263186   6.091   0.195  17.111  0.3977  0.4620  0.5810
13924TIP3    H163187   6.153   0.266  17.126  0.3771  0.0974  2.6671
13924TIP3    H263188   6.143   0.125  17.073  0.3441  1.6460 -1.8878
13925TIP3   OH263189   3.145   5.446  16.532  0.9598  0.9610 -0.0819
13925TIP3    H163190   3.158   5.495  16.451  0.6258  0.0001 -0.7272
13925TIP3    H263191   3.086   5.375  16.509  0.4133  0.9880  1.1366
13926TIP3   OH263192   1.024   4.428  16.438 -0.3515 -0.3410  0.1242
13926TIP3    H163193   1.044   4.517  16.408 -0.4143 -0.5552 -0.5783
13926TIP3    H263194   1.051   4.372  16.365 -1.0390 -0.8390  0.2450
13927TIP3   OH263195   0.120   2.250   4.998  0.2108 -0.5930 -0.0384
13927TIP3    H163196   0.067   2.186   5.046  0.2377  1.3060  2.7811
13927TIP3    H263197   0.086   2.335   5.027  1.5242  0.6920 -2.0494
13928TIP3   OH263198   1.575   5.252   2.680  0.0097  0.2019 -0.2196
13928TIP3    H163199   1.531   5.229   2.761  1.0050 -2.9986 -0.4458
13928TIP3    H263200   1.654   5.299   2.707 -0.7305  1.0311  0.5171
13929TIP3   OH263201   3.457   0.620  14.848  0.3544 -0.6816 -0.0700
13929TIP3    H163202   3.429   0.528  14.853 -1.8130  0.0026  1.7299
13929TIP3    H263203   3.473   0.645  14.938 -1.0961  1.2511 -0.2786
13930TIP3   OH263204   0.815   1.890  16.874  0.4779 -0.2675  0.3047
13930TIP3    H163205   0.805   1.939  16.793 -2.3200  1.0715  1.3093
13930TIP3    H263206   0.764   1.810  16.860  0.1817 -0.1411  0.6323
13931TIP3   OH263207   6.136   5.917  15.446  0.5884 -0.4423  0.2499
13931TIP3    H163208   6.128   5.889  15.355 -0.2459 -1.4735  0.6253
13931TIP3    H263209   6.082   5.856  15.495  0.9758  0.1399  1.4433
13932TIP3   OH263210   5.521   5.170   6.311  0.0481  0.2856  0.0725
13932TIP3    H163211   5.477   5.104   6.365  0.4998  1.8251  2.4817
13932TIP3    H263212   5.614   5.149   6.319  0.0734  0.0515 -0.7975
13933TIP3   OH263213   0.986   4.675   5.072 -0.1857 -0.3385 -0.0628
13933TIP3    H163214   0.895   4.658   5.047 -0.1163 -1.1296  0.1749
13933TIP3    H263215   1.023   4.587   5.087  0.2262  0.0228  1.1756
13934TIP3   OH263216   4.158   5.644   6.139 -0.2345 -0.2481 -0.2861
13934TIP3    H163217   4.118   5.717   6.186  1.6474  0.9157 -0.3834
13934TIP3    H263218   4.091   5.577   6.138 -1.2405  0.6309  1.8153
13935TIP3   OH263219   6.640   0.500   0.746  0.5726 -0.4006  0.2093
13935TIP3    H163220   6.688   0.421   0.723 -0.9842 -1.0168 -1.1387
13935TIP3    H263221   6.597   0.526   0.664 -0.9955  0.3649  1.2276
13936TIP3   OH263222   4.354   3.089   1.373 -0.2408  0.3337 -0.0662
13936TIP3    H163223   4.345   3.154   1.442  2.6264  1.9651 -1.0779
13936TIP3    H263224   4.319   3.131   1.295  1.1418  0.5300 -0.6137
13937TIP3   OH263225   3.289   6.738   3.332 -0.0163 -0.5674 -0.2331
13937TIP3    H163226   3.302   6.825   3.294  0.9270 -0.1442  0.9931
13937TIP3    H263227   3.208   6.746   3.383 -1.4314 -1.2117 -2.2765
13938TIP3   OH263228   2.287   1.387   4.858 -0.9000 -0.3178  0.1609
13938TIP3    H163229   2.336   1.347   4.786 -1.4229 -0.2803 -0.2194
13938TIP3    H263230   2.199   1.400   4.823 -0.6265  1.6402  0.0918
13939TIP3   OH263231   5.728   0.763  15.319 -0.1597  0.3658  0.1825
13939TIP3    H163232   5.670   0.838  15.315 -0.4751  0.0739 -1.2616
13939TIP3    H263233   5.803   0.794  15.370 -0.1899  1.7207 -0.5475
13940TIP3   OH263234   4.456   6.286   3.655 -0.2112 -0.1986 -0.1463
13940TIP3    H163235   4.408   6.361   3.620  1.4977  0.5107 -1.0606
13940TIP3    H263236   4.508   6.323   3.726 -0.0349 -0.7038 -0.0101
13941TIP3   OH263237   1.749   6.072   0.625  0.0935  0.1074 -0.2179
13941TIP3    H163238   1.818   6.059   0.690  0.9163  1.3435 -0.8129
13941TIP3    H263239   1.679   6.014   0.653  0.9671 -0.4006  0.9961
13942TIP3   OH263240   3.720   5.089  12.800  0.2948  0.4762  0.0335
13942TIP3    H163241   3.664   5.141  12.857  1.1525 -0.3286  1.6739
13942TIP3    H263242   3.767   5.030  12.859  0.3829 -1.2032 -1.6230
13943TIP3   OH263243   5.073   2.389  10.999 -0.2681 -0.1795 -0.2310
13943TIP3    H163244   4.985   2.370  10.967 -0.5097 -0.7618  0.7331
13943TIP3    H263245   5.060   2.426  11.086  0.4273  0.0153 -0.2016
13944TIP3   OH263246   3.681   6.151  13.198  0.0031 -0.0001  0.1778
13944TIP3    H163247   3.739   6.084  13.163  2.8633  0.9390  2.6897
13944TIP3    H263248   3.635   6.108  13.271 -1.3084 -0.2970 -0.7960
13945TIP3   OH263249   6.784   6.507  12.932  0.7892  0.2392  0.3344
13945TIP3    H163250   6.752   6.475  13.016  1.2589 -0.3554  0.2983
13945TIP3    H263251   6.706   6.515  12.877  0.6276 -0.5277  0.4510
13946TIP3   OH263252   4.757   0.257   5.196  0.3041  0.2183 -0.6557
13946TIP3    H163253   4.852   0.266   5.187  0.4197 -0.2877 -0.0638
13946TIP3    H263254   4.745   0.216   5.282 -0.3629 -1.1521 -1.3578
13947TIP3   OH263255   2.538   6.544  11.258 -0.4198 -0.4817  0.0034
13947TIP3    H163256   2.587   6.466  11.233 -0.0172 -0.5277  0.8991
13947TIP3    H263257   2.466   6.548  11.195  1.4254  0.3283 -2.1826
13948TIP3   OH263258   0.486   6.743  16.242 -0.2642 -0.0660 -0.1319
13948TIP3    H163259   0.578   6.768  16.235 -0.7534  1.7689 -0.4609
13948TIP3    H263260   0.461   6.714  16.154 -0.2123  0.2351 -0.2454
13949TIP3   OH263261   4.352   5.590  14.647  0.5405 -0.0832 -0.1345
13949TIP3    H163262   4.378   5.645  14.573  1.6031 -0.2181  0.1233
13949TIP3    H263263   4.297   5.647  14.701  1.4066  0.6604 -0.0049
13950TIP3   OH263264   6.479   5.417  12.561 -0.5323  0.4272  0.0695
13950TIP3    H163265   6.527   5.338  12.535  1.1900  1.6855 -0.7812
13950TIP3    H263266   6.547   5.476  12.593 -1.8631  1.3715  1.2733
13951TIP3   OH263267   0.210   5.318  15.806  0.2245  0.0239 -0.7773
13951TIP3    H163268   0.116   5.317  15.823  0.5512  1.3989  1.5291
13951TIP3    H263269   0.231   5.229  15.778 -1.4967 -0.7501  0.2742
13952TIP3   OH263270   3.459   2.440  17.105  0.1172  0.1424  0.3093
13952TIP3    H163271   3.432   2.445  17.196 -1.5624  0.7857 -0.1933
13952TIP3    H263272   3.552   2.466  17.106  0.2671 -0.3780  1.8705
13953TIP3   OH263273   0.437   6.245  15.775 -0.6172  0.0629 -0.2764
13953TIP3    H163274   0.465   6.336  15.780 -0.2958  0.0144 -0.9741
13953TIP3    H263275   0.362   6.239  15.833 -0.0647  0.5496  0.5079
13954TIP3   OH263276   0.945   1.952   2.624  0.1290 -0.0603  0.0889
13954TIP3    H163277   0.862   1.995   2.603 -0.7199 -1.2549  0.8520
13954TIP3    H263278   0.993   2.017   2.675 -0.3269  0.6568 -0.3814
13955TIP3   OH263279   4.864   5.068  12.209  0.0072 -0.1076  0.0244
13955TIP3    H163280   4.945   5.110  12.182  0.0337  0.3920  0.8457
13955TIP3    H263281   4.809   5.067  12.130  0.1188  1.2118 -0.0813
13956TIP3   OH263282   2.518   0.602   4.605 -0.4877  0.2006  0.1648
13956TIP3    H163283   2.612   0.586   4.616 -0.5102  1.0469  1.9288
13956TIP3    H263284   2.477   0.516   4.612  0.1071 -0.1000 -0.0371
13957TIP3   OH263285   2.456   3.874  16.361 -0.4962 -0.6184 -0.0741
13957TIP3    H163286   2.493   3.863  16.448 -2.7238  3.5612  1.6834
13957TIP3    H263287   2.459   3.787  16.322  1.9685 -2.3707  3.5527
13958TIP3   OH263288   2.478   0.671  13.876  0.1445 -0.3588  0.2181
13958TIP3    H163289   2.408   0.736  13.887 -0.3174 -0.4248 -1.9379
13958TIP3    H263290   2.536   0.709  13.809  0.0698 -1.9744 -0.8205
13959TIP3   OH263291   1.929   2.059   4.951 -0.2671 -0.4187  0.1891
13959TIP3    H163292   1.886   1.978   4.922  0.5645 -0.8956  0.2361
13959TIP3    H263293   1.939   2.110   4.871 -1.6658  0.0806  0.3049
13960TIP3   OH263294   3.932   2.722  11.660  0.4735 -0.6695  0.3510
13960TIP3    H163295   4.027   2.724  11.649  0.2810  1.1280 -1.8616
13960TIP3    H263296   3.917   2.761  11.746  1.7068  2.5862 -0.7545
13961TIP3   OH263297   1.635   2.305   1.546 -0.4321 -0.0415  0.3171
13961TIP3    H163298   1.730   2.296   1.547 -0.4574 -0.3411  1.0269
13961TIP3    H263299   1.602   2.215   1.547 -0.7178  0.0631  0.3469
13962TIP3   OH263300   1.620   5.212  15.669  0.5604 -0.6125 -0.0102
13962TIP3    H163301   1.592   5.214  15.760 -1.4107 -2.0405 -0.5175
13962TIP3    H263302   1.586   5.294  15.632  0.0650 -0.7065  0.2205
13963TIP3   OH263303   1.957   3.943   4.964  0.2729 -0.0647 -0.4347
13963TIP3    H163304   1.878   3.950   5.016 -0.6855 -1.1962 -1.6482
13963TIP3    H263305   1.930   3.971   4.876  1.3332 -0.0602 -0.7731
13964TIP3   OH263306   0.536   2.427  13.268  0.3329  0.1460 -0.1543
13964TIP3    H163307   0.627   2.396  13.262 -0.0086 -0.8041 -0.6517
13964TIP3    H263308   0.535   2.482  13.347  0.9704 -1.1443  0.7999
13965TIP3   OH263309   5.716   6.090  11.546  0.5560 -0.1938  0.1853
13965TIP3    H163310   5.758   6.051  11.623  1.8051 -0.2526 -0.5139
13965TIP3    H263311   5.669   6.166  11.581  0.6642 -0.5232  1.0837
13966TIP3   OH263312   2.597   1.985  13.608  0.0888  0.2775  0.8656
13966TIP3    H163313   2.572   2.061  13.555  2.2091 -0.7495 -1.8713
13966TIP3    H263314   2.613   2.021  13.695 -2.3919  2.2956  0.6124
13967TIP3   OH263315   0.353   2.620  16.911 -0.3275 -0.3927  0.7168
13967TIP3    H163316   0.425   2.558  16.903 -0.0210 -0.3836  2.9309
13967TIP3    H263317   0.379   2.695  16.857  1.7526 -0.0157  2.1583
13968TIP3   OH263318   6.127   1.885  10.731  0.5353 -0.1696  0.0618
13968TIP3    H163319   6.039   1.906  10.699  0.8205 -0.5567 -1.0264
13968TIP3    H263320   6.144   1.950  10.799 -0.7361 -0.3172  0.5543
13969TIP3   OH263321   0.972   5.306  11.609 -0.1620 -0.4146 -0.4452
13969TIP3    H163322   0.989   5.269  11.696  0.5621  1.7704  0.4222
13969TIP3    H263323   1.057   5.303  11.565 -0.1601 -0.0723 -0.4684
13970TIP3   OH263324   1.646   4.805  13.535 -0.6721  0.4268 -0.5066
13970TIP3    H163325   1.602   4.808  13.450 -0.8512 -1.3093 -0.5175
13970TIP3    H263326   1.674   4.714  13.544 -0.8459  0.5270  1.3883
13971TIP3   OH263327   2.545   0.701  12.173 -0.6135 -0.1851 -0.2392
13971TIP3    H163328   2.557   0.637  12.102  0.3517 -0.1083 -0.1568
13971TIP3    H263329   2.458   0.682  12.207 -0.0141 -2.0511  0.3719
13972TIP3   OH263330   3.508   3.807  14.553  0.4488  0.2149 -0.1350
13972TIP3    H163331   3.564   3.853  14.490  0.6501 -0.3904 -0.4064
13972TIP3    H263332   3.568   3.749  14.600  0.1375 -0.0473 -0.0606
13973TIP3   OH263333   2.722   0.843   3.635 -0.3849 -0.1925 -0.1689
13973TIP3    H163334   2.739   0.910   3.568 -0.0215 -0.2468 -0.1365
13973TIP3    H263335   2.714   0.893   3.717 -1.8813 -0.0261 -0.3985
13974TIP3   OH263336   6.197   6.096   3.076  0.4964  1.0058 -1.0170
13974TIP3    H163337   6.240   6.065   2.996  1.9977  0.7143 -0.1264
13974TIP3    H263338   6.245   6.176   3.099  1.4822 -0.0306  0.7193
13975TIP3   OH263339   4.479   5.477   4.460 -0.5229  0.4727  0.2632
13975TIP3    H163340   4.513   5.542   4.398  0.3776  0.5833  0.8606
13975TIP3    H263341   4.522   5.498   4.543  0.5901 -1.5062  0.2493
13976TIP3   OH263342   2.499   6.642  16.894 -0.1404 -0.3195 -0.3150
13976TIP3    H163343   2.536   6.560  16.860 -0.1007 -0.4236 -0.0275
13976TIP3    H263344   2.430   6.665  16.832  0.1232 -0.3524 -0.6231
13977TIP3   OH263345   4.641   6.229   0.734  0.6053  0.1150 -0.0490
13977TIP3    H163346   4.692   6.308   0.719  0.8762 -0.0022  0.2225
13977TIP3    H263347   4.632   6.188   0.648 -1.2206  1.4263 -0.5470
13978TIP3   OH263348   3.405   3.677  11.531  0.4278 -0.1635 -0.2590
13978TIP3    H163349   3.476   3.732  11.564  0.0781  0.7573 -0.9895
13978TIP3    H263350   3.326   3.728  11.546 -0.0277 -0.9646  0.0852
13979TIP3   OH263351   4.587   0.858  11.737  0.5636 -0.0649  0.1258
13979TIP3    H163352   4.538   0.831  11.660 -0.9855 -1.0537  1.4000
13979TIP3    H263353   4.593   0.779  11.791 -0.3446  1.0808  2.0223
13980TIP3   OH263354   0.194   2.657   3.060  0.1596 -0.1847  0.4730
13980TIP3    H163355   0.187   2.680   2.967  0.3154  0.9179  0.7158
13980TIP3    H263356   0.257   2.720   3.095  0.9790 -1.3181  1.1019
13981TIP3   OH263357   3.522   5.566  12.779 -0.2794  0.0977  0.6607
13981TIP3    H163358   3.603   5.585  12.733 -1.0702  0.4888 -0.6092
13981TIP3    H263359   3.538   5.483  12.823  1.6076  1.2708  2.3748
13982TIP3   OH263360   2.700   0.174  12.804 -0.5150 -0.3346 -0.5789
13982TIP3    H163361   2.668   0.123  12.730 -0.8108  2.0421 -2.1973
13982TIP3    H263362   2.783   0.211  12.775  0.2383 -0.7140  0.9554
13983TIP3   OH263363   1.710   4.553   2.653  0.5587 -0.0599  0.6765
13983TIP3    H163364   1.769   4.479   2.668 -0.2178 -0.7171  0.6063
13983TIP3    H263365   1.766   4.622   2.619  1.2098 -0.8296  0.1238
13984TIP3   OH263366   4.617   0.189  11.450 -0.4064 -0.0095  0.2792
13984TIP3    H163367   4.633   0.098  11.425  1.3193 -0.1753  1.8101
13984TIP3    H263368   4.566   0.183  11.532  0.0898  0.3841  0.6216
13985TIP3   OH263369   0.299   0.550   1.009 -0.7974 -0.1922  0.0297
13985TIP3    H163370   0.231   0.505   0.960 -0.8620 -2.7110  2.1930
13985TIP3    H263371   0.362   0.579   0.943 -3.0095  0.6124 -1.8595
13986TIP3   OH263372   2.489   5.661   2.619  0.3193 -0.1334  0.6387
13986TIP3    H163373   2.433   5.716   2.674  1.5246  0.0330  1.7399
13986TIP3    H263374   2.488   5.705   2.533 -1.3974 -0.2725  0.5516
13987TIP3   OH263375   2.494   0.086   1.826 -0.1894  0.2194  0.2808
13987TIP3    H163376   2.466   0.145   1.756  0.4908 -0.2855 -0.4313
13987TIP3    H263377   2.589   0.081   1.817 -0.3012 -1.7814 -0.3656
13988TIP3   OH263378   5.480   0.089   5.958 -0.0429  0.3648 -0.0863
13988TIP3    H163379   5.440   0.133   5.883 -0.6557  1.9328  1.1077
13988TIP3    H263380   5.468  -0.004   5.941  0.9274  0.6105 -2.5127
13989TIP3   OH263381   6.249   5.275  11.199 -0.6289  0.2931  0.1161
13989TIP3    H163382   6.236   5.186  11.164  0.4258  0.2070 -0.0973
13989TIP3    H263383   6.165   5.297  11.240 -0.4324 -1.4761  1.6642
13990TIP3   OH263384   3.150   3.642   4.532  0.1786  0.2521 -0.3481
13990TIP3    H163385   3.092   3.699   4.583  0.9367 -0.5928  1.5647
13990TIP3    H263386   3.097   3.564   4.516  0.0135  0.4278 -0.6629
13991TIP3   OH263387   6.345   6.753  15.634 -0.4391  0.3594  1.0053
13991TIP3    H163388   6.369   6.704  15.713 -1.6339 -1.7784  0.1219
13991TIP3    H263389   6.295   6.691  15.581  0.9365  1.4635 -1.8059
13992TIP3   OH263390   4.803   1.609   5.591  0.0834 -0.2535  0.2228
13992TIP3    H163391   4.732   1.660   5.630  0.5500 -0.2835  1.1403
13992TIP3    H263392   4.797   1.523   5.634 -0.0261 -0.6374 -0.5320
13993TIP3   OH263393   0.566   2.100  14.924 -0.0189 -0.6285 -0.2247
13993TIP3    H163394   0.660   2.106  14.943  0.6182 -0.1980 -2.9942
13993TIP3    H263395   0.541   2.012  14.951  1.7828 -1.6009 -1.4987
13994TIP3   OH263396   0.675   2.803   0.842 -0.1713  0.2509 -0.2012
13994TIP3    H163397   0.675   2.717   0.800  2.5215  0.2045 -0.3031
13994TIP3    H263398   0.596   2.846   0.809 -0.1425 -1.1866 -2.3324
13995TIP3   OH263399   5.940   5.913   5.794  0.1037 -0.1592 -0.3924
13995TIP3    H163400   5.892   5.835   5.765 -0.3281 -0.1485  0.2668
13995TIP3    H263401   5.958   5.962   5.714 -0.2117 -0.6084 -0.7384
13996TIP3   OH263402   0.115   2.121  13.333 -0.3914  0.0358  0.6402
13996TIP3    H163403   0.075   2.202  13.364 -0.4374  1.0986 -1.9487
13996TIP3    H263404   0.206   2.145  13.315  0.0869 -1.0000  1.5904
13997TIP3   OH263405   5.162   3.765   4.316 -0.3787  0.2326  0.8263
13997TIP3    H163406   5.196   3.855   4.315 -0.1362  0.1907  2.3642
13997TIP3    H263407   5.240   3.711   4.303 -0.6155  0.2376 -0.7573
13998TIP3   OH263408   6.384   4.607  15.169  0.8048 -0.3423 -0.2117
13998TIP3    H163409   6.367   4.614  15.075 -1.8695 -1.0284  0.1542
13998TIP3    H263410   6.407   4.696  15.196  0.7613  0.0326 -1.3579
13999TIP3   OH263411   1.613   0.243   4.681 -0.4821 -0.6805  0.4672
13999TIP3    H163412   1.609   0.165   4.626 -1.4271 -1.0363  1.0143
13999TIP3    H263413   1.631   0.315   4.620 -1.0525 -1.1273 -0.2435
14000TIP3   OH263414   5.277   3.646   1.400  0.2475 -0.2696  0.4522
14000TIP3    H163415   5.249   3.706   1.331  0.0487 -0.6277  0.2220
14000TIP3    H263416   5.223   3.669   1.476  0.6266  0.2801  0.5665
14001TIP3   OH263417   0.149   2.997  14.251  0.9687  0.1060 -0.0004
14001TIP3    H163418   0.070   3.018  14.300 -0.8337  0.8924 -2.9853
14001TIP3    H263419   0.203   3.076  14.257  0.2041  0.6559 -0.2845
14002TIP3   OH263420   1.146   1.408   5.608  0.9751  0.7864 -0.3326
14002TIP3    H163421   1.080   1.345   5.637  0.7813  1.4059  0.6036
14002TIP3    H263422   1.167   1.459   5.686  2.4339  0.7346 -0.6580
14003TIP3   OH263423   3.367   4.129   2.514  0.8952  0.2744 -0.1054
14003TIP3    H163424   3.314   4.164   2.586 -0.6651  0.0482 -1.1120
14003TIP3    H263425   3.423   4.202   2.488 -0.7618  1.3942 -0.7119
14004TIP3   OH263426   4.866   3.947   3.671 -0.4913 -0.6713 -0.1404
14004TIP3    H163427   4.812   3.897   3.609 -1.1210 -1.6276  1.1255
14004TIP3    H263428   4.846   3.908   3.756  1.4091 -0.3375  0.5029
14005TIP3   OH263429   5.046   0.513  10.913 -0.1716  0.0166 -0.3266
14005TIP3    H163430   4.990   0.509  10.990  0.5618  0.7726  0.2687
14005TIP3    H263431   4.999   0.570  10.852 -1.3175 -1.5252 -0.9506
14006TIP3   OH263432   5.707   2.594   4.110 -0.3104 -0.2586 -0.0392
14006TIP3    H163433   5.664   2.555   4.186  0.8401  2.3379  2.1413
14006TIP3    H263434   5.646   2.662   4.080 -0.8381 -1.3852 -1.6218
14007TIP3   OH263435   2.160   3.995  13.044 -0.0304 -0.6322  0.4273
14007TIP3    H163436   2.163   3.917  12.988 -2.7168 -0.8940  0.5233
14007TIP3    H263437   2.190   3.964  13.130  0.4194 -1.1599  0.0889
14008TIP3   OH263438   1.095   3.538  13.563  0.4092  0.5544 -0.0953
14008TIP3    H163439   1.016   3.521  13.512 -0.6262  2.3648  0.7919
14008TIP3    H263440   1.146   3.598  13.509  0.0143  1.2757  0.3010
14009TIP3   OH263441   1.482   1.656   2.603  0.2375 -0.4947 -0.5253
14009TIP3    H163442   1.550   1.596   2.634  0.9490  0.2494 -0.6142
14009TIP3    H263443   1.497   1.663   2.509  0.7592  0.5456 -0.3760
14010TIP3   OH263444   1.270   3.232  10.629 -0.4020  0.0989  0.5627
14010TIP3    H163445   1.314   3.173  10.567  0.0328  0.0178  0.9431
14010TIP3    H263446   1.179   3.231  10.602 -0.3532 -0.5444  0.3974
14011TIP3   OH263447   3.763   4.409   0.690 -0.3811 -0.0252 -0.0487
14011TIP3    H163448   3.794   4.330   0.645 -0.8011  0.9623 -2.1935
14011TIP3    H263449   3.786   4.481   0.632 -3.2956  1.1070  0.0002
14012TIP3   OH263450   0.494   4.617   4.215 -0.4849  0.0999 -0.3371
14012TIP3    H163451   0.479   4.550   4.282  0.2942 -0.7662 -0.9901
14012TIP3    H263452   0.487   4.569   4.132  0.8143  0.6600 -0.7982
14013TIP3   OH263453   5.152   5.242   3.927  1.0243  0.3195 -0.4278
14013TIP3    H163454   5.130   5.246   4.020  0.0926  0.6898 -0.6559
14013TIP3    H263455   5.235   5.195   3.924  0.6730 -0.3925  0.5319
14014TIP3   OH263456   0.082   2.883   6.010  0.4882 -0.2331 -0.2353
14014TIP3    H163457   0.131   2.867   6.091 -1.0990 -0.4495  0.7196
14014TIP3    H263458   0.087   2.801   5.961  2.7372  0.3573 -1.1260
14015TIP3   OH263459   2.234   4.896  15.783 -0.0320 -0.3011  0.0738
14015TIP3    H163460   2.202   4.959  15.719  2.4105  0.5950 -0.4004
14015TIP3    H263461   2.239   4.945  15.865  0.8170 -0.1640 -0.0458
14016TIP3   OH263462   3.031   4.161  11.665 -0.5583 -0.4886  0.1577
14016TIP3    H163463   2.944   4.180  11.699  0.0568 -0.0649  1.5892
14016TIP3    H263464   3.050   4.234  11.605 -0.5773  0.2727  1.0554
14017TIP3   OH263465   3.972   2.142  16.229  0.0715  0.2796  0.0819
14017TIP3    H163466   3.880   2.149  16.255  0.2412 -1.1368  1.2076
14017TIP3    H263467   3.969   2.095  16.146 -0.2124 -0.1023  0.3031
14018TIP3   OH263468   4.000   0.087  14.270  0.0523  0.0972  0.0468
14018TIP3    H163469   4.090   0.060  14.290  0.3213  0.9663  0.0706
14018TIP3    H263470   3.946   0.042  14.335  0.6496  0.8274  1.0797
14019TIP3   OH263471   2.642   0.667   0.434 -0.3986 -0.5274 -0.3290
14019TIP3    H163472   2.573   0.641   0.495 -1.0019 -0.2738 -0.8926
14019TIP3    H263473   2.629   0.611   0.358 -1.6205  1.2614 -1.4967
14020TIP3   OH263474   3.592   4.108  12.951  0.7488 -0.4508  0.3133
14020TIP3    H163475   3.544   4.050  12.891  1.3873  0.1909 -0.8470
14020TIP3    H263476   3.556   4.195  12.935  2.6274  0.1511 -1.0094
14021TIP3   OH263477   4.327   6.250  12.222  0.6295 -0.1894 -0.5748
14021TIP3    H163478   4.389   6.190  12.263  0.1112 -0.6929 -0.5239
14021TIP3    H263479   4.310   6.317  12.288  1.8665  0.5172 -0.9262
14022TIP3   OH263480   2.488   3.125   3.098 -0.2918 -0.0385  0.7265
14022TIP3    H163481   2.569   3.089   3.063 -0.4514  1.0195 -0.8197
14022TIP3    H263482   2.495   3.111   3.193  2.0113  0.6596  0.7217
14023TIP3   OH263483   5.904   3.111   1.562 -0.3198  0.7384  0.5269
14023TIP3    H163484   5.857   3.183   1.520 -0.6950  0.1695 -0.0390
14023TIP3    H263485   5.899   3.130   1.656 -3.2109 -0.2049  0.6408
14024TIP3   OH263486   0.230   1.601  12.261  0.4141 -0.6531  0.0788
14024TIP3    H163487   0.249   1.630  12.351 -0.1534  0.5191 -0.1582
14024TIP3    H263488   0.254   1.509  12.260  0.3617 -0.7026  1.4620
14025TIP3   OH263489   1.836   1.950  16.119 -0.5343 -0.0630  0.1725
14025TIP3    H163490   1.826   2.006  16.196 -2.2648 -1.7548  1.2568
14025TIP3    H263491   1.892   1.878  16.148 -0.1809 -0.0909 -0.5434
14026TIP3   OH263492   5.446   5.394  11.704  0.6967  0.6683  0.3868
14026TIP3    H163493   5.537   5.398  11.734  1.8306 -0.1105 -2.6046
14026TIP3    H263494   5.398   5.353  11.776  3.0400 -0.4491  1.3909
14027TIP3   OH263495   4.060   6.036   2.905  0.3927  0.2318 -0.0094
14027TIP3    H163496   4.122   5.996   2.844  0.2847  0.6921 -0.4247
14027TIP3    H263497   4.108   6.040   2.988 -0.3147 -2.7475  0.6503
14028TIP3   OH263498   1.033   0.263  16.951  0.5595  0.3873 -0.0677
14028TIP3    H163499   1.123   0.248  16.979  0.1430  0.5144  1.4355
14028TIP3    H263500   1.002   0.335  17.006 -1.1433 -1.1181  1.0663
14029TIP3   OH263501   2.090   2.541   2.406  0.2929 -0.1058  0.1028
14029TIP3    H163502   2.001   2.544   2.370  0.6393  0.1261 -0.7821
14029TIP3    H263503   2.080   2.570   2.496 -0.7002 -1.2578  0.3978
14030TIP3   OH263504   0.045   1.729  17.031  0.2081 -0.0572 -0.2343
14030TIP3    H163505   0.014   1.667  16.965  0.8577  0.2929 -0.8709
14030TIP3    H263506   0.139   1.735  17.017  0.3232  0.1852  0.5860
14031TIP3   OH263507   2.104   5.710   0.057  0.0850  0.2775 -0.6931
14031TIP3    H163508   2.083   5.785   0.003  1.1441  1.3966  0.3956
14031TIP3    H263509   2.035   5.707   0.123  1.3480  1.8765  0.7941
14032TIP3   OH263510   2.948   1.921  16.531 -0.4057  0.0594 -0.0821
14032TIP3    H163511   3.003   1.842  16.534 -0.1095  0.2749  0.2473
14032TIP3    H263512   3.011   1.993  16.533 -0.7417  0.3496  2.1095
14033TIP3   OH263513   2.722   5.452   4.677  0.0087 -0.5731 -0.3419
14033TIP3    H163514   2.651   5.453   4.613 -0.2296 -0.2567 -0.0730
14033TIP3    H263515   2.793   5.501   4.635  0.4853 -1.8465 -1.0786
14034TIP3   OH263516   2.342   2.989   4.601  0.0392  0.6955  0.2215
14034TIP3    H163517   2.324   2.906   4.557  0.2367 -0.4639  2.2078
14034TIP3    H263518   2.271   2.997   4.666 -0.2911  2.3770 -0.3081
14035TIP3   OH263519   2.993   2.619   3.643 -0.1373 -1.1814 -1.0912
14035TIP3    H163520   3.037   2.586   3.721 -0.2893 -0.3001 -0.6153
14035TIP3    H263521   3.030   2.568   3.571  1.8037 -0.3647 -0.7343
14036TIP3   OH263522   0.451   3.955   4.453  0.3205  0.2247 -0.0673
14036TIP3    H163523   0.400   3.925   4.528  0.6179 -0.6063 -0.1919
14036TIP3    H263524   0.445   3.884   4.389  0.5605  0.6738 -0.5982
14037TIP3   OH263525   0.219   0.733  11.326  0.2800 -0.3022  0.5294
14037TIP3    H163526   0.313   0.740  11.308  0.4563  0.1267  1.5519
14037TIP3    H263527   0.209   0.648  11.368  0.1762 -0.4519  0.1985
14038TIP3   OH263528   5.256   4.963   0.399  0.5944  0.3512 -0.0560
14038TIP3    H163529   5.272   5.007   0.482 -0.6000 -0.1413  0.4563
14038TIP3    H263530   5.177   5.004   0.365  0.5768 -0.0589 -0.5215
14039TIP3   OH263531   5.851   6.718  14.631 -0.0405 -0.1600  0.0876
14039TIP3    H163532   5.780   6.721  14.566  1.2818  0.1066 -1.3924
14039TIP3    H263533   5.859   6.808  14.663 -0.0326 -0.0881 -0.1169
14040TIP3   OH263534   0.453   6.204   3.560 -0.5783  0.4269 -0.0453
14040TIP3    H163535   0.497   6.119   3.554 -1.7792 -0.3258  1.0840
14040TIP3    H263536   0.437   6.215   3.654 -3.5529  0.2091 -0.4312
14041TIP3   OH263537   5.543   2.725  14.375  0.4447 -0.8462  0.3971
14041TIP3    H163538   5.549   2.706  14.469  1.3419 -0.3341  0.4651
14041TIP3    H263539   5.489   2.804  14.370  0.3584 -0.8998  0.4851
14042TIP3   OH263540   5.914   3.601  13.533 -0.2394  0.3972 -0.3597
14042TIP3    H163541   5.869   3.576  13.453 -0.3117  0.0752 -0.2183
14042TIP3    H263542   6.001   3.562  13.525 -0.1407  0.6324 -0.4250
14043TIP3   OH263543   4.603   1.583  17.246 -0.3855 -0.3282  0.0479
14043TIP3    H163544   4.562   1.595  17.160  0.0736 -1.9468 -0.4377
14043TIP3    H263545   4.670   1.651  17.250 -1.7781  1.0984  0.0354
14044TIP3   OH263546   3.003   1.931   0.841 -0.0059 -0.4209 -1.0290
14044TIP3    H163547   2.951   1.959   0.765 -2.8964 -0.7831  0.6948
14044TIP3    H263548   3.014   2.011   0.893 -0.4439 -0.6987 -0.5008
14045TIP3   OH263549   6.107   2.148  14.345  0.2588  0.0849  0.1074
14045TIP3    H163550   6.192   2.106  14.361 -0.0716 -1.1363 -1.1285
14045TIP3    H263551   6.130   2.235  14.313  1.0327  0.0200  0.4461
14046TIP3   OH263552   4.945   4.662  13.948  0.2376 -0.1711  0.1075
14046TIP3    H163553   4.857   4.700  13.943  1.2379  2.1916 -1.7267
14046TIP3    H263554   5.000   4.734  13.980  1.8713 -0.7971 -1.1319
14047TIP3   OH263555   0.793   3.634  15.716 -0.3042 -0.4479 -0.1892
14047TIP3    H163556   0.868   3.685  15.748 -0.2698 -1.5375  1.6020
14047TIP3    H263557   0.717   3.692  15.730 -0.1056 -0.3563  0.5451
14048TIP3   OH263558   6.242   3.355   1.713  0.5139  0.0382 -0.2836
14048TIP3    H163559   6.233   3.276   1.661  0.9819  0.1101 -0.4809
14048TIP3    H263560   6.210   3.331   1.800  1.0758 -0.4981 -0.2193
14049TIP3   OH263561   4.557   5.664   3.712  0.2605  0.0242  0.4224
14049TIP3    H163562   4.553   5.659   3.807 -1.4547 -1.2882  0.3253
14049TIP3    H263563   4.481   5.716   3.687 -0.6406 -1.6023 -0.3173
14050TIP3   OH263564   2.872   0.986  14.754  0.5037 -0.6360 -0.1440
14050TIP3    H163565   2.882   0.967  14.847 -0.4502 -1.8388 -0.2613
14050TIP3    H263566   2.780   0.968  14.735  0.7629 -0.7565 -1.3862
14051TIP3   OH263567   5.821   1.400  17.070  0.5234 -0.3690 -0.0354
14051TIP3    H163568   5.904   1.374  17.030  0.2364 -1.7713  0.2139
14051TIP3    H263569   5.754   1.357  17.017 -0.0414  0.5272 -0.0654
14052TIP3   OH263570   0.960   6.163   1.681 -0.3732 -0.5515 -0.5372
14052TIP3    H163571   1.007   6.240   1.713 -0.7489 -0.8753  0.8553
14052TIP3    H263572   1.015   6.089   1.707 -1.3747 -0.9086  0.6922
14053TIP3   OH263573   2.816   2.403  11.751  0.4918 -0.2204  0.0023
14053TIP3    H163574   2.899   2.356  11.741  0.9421  0.4077  0.6573
14053TIP3    H263575   2.840   2.495  11.745 -0.2547 -0.0475 -0.4055
14054TIP3   OH263576   0.978   3.683   2.701  0.4883  0.0690 -0.1899
14054TIP3    H163577   0.922   3.741   2.754  2.8927  0.5739  2.0317
14054TIP3    H263578   0.987   3.729   2.618 -1.5435  0.4436 -0.2605
14055TIP3   OH263579   3.780   1.282  13.409  0.4135 -0.0902  0.1042
14055TIP3    H163580   3.796   1.344  13.480  0.1127 -0.2953  0.3497
14055TIP3    H263581   3.867   1.246  13.389  0.4993 -0.0171  0.3483
14056TIP3   OH263582   3.091   5.697  13.589 -0.3062  1.1255 -0.7057
14056TIP3    H163583   3.035   5.620  13.582 -0.0943  0.9322 -0.3022
14056TIP3    H263584   3.144   5.682  13.668  2.4776 -0.1359 -2.6371
14057TIP3   OH263585   0.302   0.894   3.247 -0.0324 -0.4165 -0.2314
14057TIP3    H163586   0.297   0.869   3.340  0.2142 -2.3849 -0.7003
14057TIP3    H263587   0.299   0.989   3.248 -3.5010 -0.3560  1.6206
14058TIP3   OH263588   5.230   4.620  12.833 -0.3411 -0.6575 -0.7146
14058TIP3    H163589   5.173   4.696  12.824 -1.0651 -1.1283 -0.2433
14058TIP3    H263590   5.171   4.545  12.824  0.0716 -1.1555  0.5624
14059TIP3   OH263591   3.569   6.745  15.656 -0.1295 -0.2782  0.0466
14059TIP3    H163592   3.660   6.717  15.668  0.0565  0.5792  0.7783
14059TIP3    H263593   3.518   6.683  15.708  0.0205 -0.8233 -0.4440
14060TIP3   OH263594   5.986   2.080   0.169 -0.2945 -0.2705  0.6480
14060TIP3    H163595   5.913   2.102   0.227 -1.2671 -0.1594 -0.5859
14060TIP3    H263596   6.026   2.003   0.211 -1.0710 -0.2963  1.3856
14061TIP3   OH263597   3.772   4.342   3.142  0.1494  0.6475 -0.2904
14061TIP3    H163598   3.711   4.327   3.213 -1.1342  0.3566 -1.4105
14061TIP3    H263599   3.792   4.435   3.146 -0.4420  0.7623  0.0228
14062TIP3   OH263600   2.919   5.826   4.394 -0.2551 -0.2253 -0.3759
14062TIP3    H163601   2.946   5.904   4.346 -0.9723  0.6210  0.5445
14062TIP3    H263602   2.995   5.804   4.448  0.3215 -0.7963 -1.3991
14063TIP3   OH263603   3.416   5.263   5.414  0.6480 -0.3365  0.0862
14063TIP3    H163604   3.378   5.276   5.501  0.4620  2.2199 -0.3090
14063TIP3    H263605   3.508   5.242   5.431  0.3154 -1.2073  0.9036
14064TIP3   OH263606   5.826   1.431   0.096  0.0303  1.0914  0.2661
14064TIP3    H163607   5.818   1.423   0.001  1.2580 -1.0034  0.2872
14064TIP3    H263608   5.742   1.467   0.124 -2.2922 -2.5751 -1.2176
14065TIP3   OH263609   3.757   3.517   6.671  0.2354 -0.0285 -0.3696
14065TIP3    H163610   3.851   3.525   6.653 -0.2288  0.8209 -2.8748
14065TIP3    H263611   3.727   3.607   6.686 -0.2657 -0.2160 -0.2227
14066TIP3   OH263612   2.838   5.666  10.460 -0.0850  0.0745  0.4804
14066TIP3    H163613   2.858   5.677  10.553 -0.5554  0.5655  0.5286
14066TIP3    H263614   2.890   5.733  10.416 -0.2126  0.1391  0.4296
14067TIP3   OH263615   3.377   2.098   5.547 -0.6145 -0.3783 -0.0417
14067TIP3    H163616   3.452   2.112   5.605 -0.9111  0.1436  0.2261
14067TIP3    H263617   3.346   2.010   5.570  1.2453 -1.5507 -1.7182
14068TIP3   OH263618   3.868   2.965  13.918  0.6308 -0.0372  0.1026
14068TIP3    H163619   3.809   2.934  13.988  0.3326  0.0415 -0.1099
14068TIP3    H263620   3.864   3.060  13.924 -0.3456 -0.0049 -0.7924
14069TIP3   OH263621   4.054   5.072   0.811  0.6735  0.0282 -0.9849
14069TIP3    H163622   4.005   5.066   0.893  2.1808 -2.0070 -0.1692
14069TIP3    H263623   4.090   5.161   0.811  0.1451  0.2562  0.2448
14070TIP3   OH263624   3.833   2.143   3.687 -0.2010 -0.2213  0.2997
14070TIP3    H163625   3.921   2.135   3.724 -0.5875 -0.3976  1.1876
14070TIP3    H263626   3.798   2.054   3.689 -1.0136  0.1018  1.5061
14071TIP3   OH263627   3.059   5.117  11.320  0.1390 -0.4408  0.0762
14071TIP3    H163628   2.980   5.120  11.374  0.3250 -0.9049  0.3803
14071TIP3    H263629   3.116   5.183  11.358 -0.4627  0.5693 -0.7322
14072TIP3   OH263630   5.118   5.469  15.943  0.5988 -1.1383 -0.3496
14072TIP3    H163631   5.182   5.413  15.900  0.9917 -0.5828 -0.5088
14072TIP3    H263632   5.167   5.512  16.013  0.4989 -0.4400 -0.6955
14073TIP3   OH263633   6.680   2.786  14.705 -0.4948 -0.4741  0.6489
14073TIP3    H163634   6.640   2.707  14.669 -0.2100 -0.0295 -0.7013
14073TIP3    H263635   6.621   2.857  14.679  0.3055 -0.0069  0.0548
14074TIP3   OH263636   6.141   0.232  10.776  0.1968  0.1099  0.3994
14074TIP3    H163637   6.214   0.171  10.783 -0.4448 -0.5632  1.6266
14074TIP3    H263638   6.064   0.176  10.761 -0.2444  0.6988  0.4002
14075TIP3   OH263639   0.298   6.256  15.186  0.0174  0.2351  0.0741
14075TIP3    H163640   0.283   6.168  15.151  0.0016  0.5012 -0.6182
14075TIP3    H263641   0.212   6.286  15.214 -0.5979  1.1925 -2.5283
14076TIP3   OH263642   3.218   5.408  10.712 -0.4373 -0.2281 -0.2784
14076TIP3    H163643   3.178   5.467  10.649  0.6590  1.6788  0.7099
14076TIP3    H263644   3.244   5.331  10.661 -1.3741  0.3785 -1.7254
14077TIP3   OH263645   2.569   2.699   4.955 -0.5674 -0.7998 -0.6180
14077TIP3    H163646   2.580   2.651   4.872  0.5177 -0.4482 -0.6897
14077TIP3    H263647   2.589   2.634   5.022 -2.1229 -1.2854 -0.5633
14078TIP3   OH263648   2.263   4.950   0.791 -0.1567 -0.2423  0.1431
14078TIP3    H163649   2.283   4.961   0.698  2.7395  0.7696  0.7797
14078TIP3    H263650   2.214   5.028   0.814 -1.2828 -0.7023 -0.5738
14079TIP3   OH263651   5.634   3.779  13.541 -0.1929  0.5079 -0.0633
14079TIP3    H163652   5.676   3.722  13.605 -1.4313  0.5904  0.8572
14079TIP3    H263653   5.540   3.771  13.559 -0.6787 -0.1373 -2.4265
14080TIP3   OH263654   4.349   1.661  11.611  0.2276 -0.1217 -0.1028
14080TIP3    H163655   4.329   1.585  11.557  2.1324 -1.1580  0.5275
14080TIP3    H263656   4.445   1.659  11.620  0.1935  1.5450  1.0793
14081TIP3   OH263657   1.376   0.071  16.367  0.2369  0.4713 -0.1399
14081TIP3    H163658   1.373  -0.019  16.400  1.9247  0.4337 -0.0053
14081TIP3    H263659   1.285   0.091  16.343 -0.0856 -1.4395 -0.6604
14082TIP3   OH263660   1.836   2.503   5.254 -0.1086 -0.0398 -0.3063
14082TIP3    H163661   1.779   2.577   5.273  1.4012  1.4082 -1.2182
14082TIP3    H263662   1.831   2.493   5.159  1.7837  0.6788 -0.5142
14083TIP3   OH263663   5.827   1.921   5.211  0.1178 -0.1845  0.0219
14083TIP3    H163664   5.755   1.859   5.199  0.1288 -0.1683 -0.1313
14083TIP3    H263665   5.810   1.962   5.295 -1.4649  1.6617 -1.1331
14084TIP3   OH263666   0.881   2.962   4.296  0.3652 -0.1450 -0.4542
14084TIP3    H163667   0.837   3.027   4.351  0.1327 -1.8069  1.4504
14084TIP3    H263668   0.974   2.978   4.310  0.3094 -0.2692  0.0651
14085TIP3   OH263669   3.147   6.642  14.653  0.6694  0.2370  0.6372
14085TIP3    H163670   3.143   6.720  14.708 -1.0838  0.9438 -0.4130
14085TIP3    H263671   3.104   6.667  14.571  1.1628 -1.4696 -0.2036
14086TIP3   OH263672   5.981   5.302  12.157 -0.7896 -0.2861  0.7031
14086TIP3    H163673   5.978   5.244  12.233 -0.0886 -2.4855 -0.8779
14086TIP3    H263674   6.071   5.336  12.157 -1.0132  0.3377  1.2577
14087TIP3   OH263675   6.707   1.306  15.409 -0.3012 -0.1139  0.5310
14087TIP3    H163676   6.699   1.245  15.336 -0.1217  2.7381 -2.0783
14087TIP3    H263677   6.798   1.336  15.405 -0.0519 -0.4689  2.5055
14088TIP3   OH263678   5.693   1.364  13.984  0.3338 -0.1149  0.1914
14088TIP3    H163679   5.703   1.455  14.011  0.4478 -0.1352  0.2166
14088TIP3    H263680   5.667   1.318  14.063  0.7264 -0.1848  0.2766
14089TIP3   OH263681   3.103   4.956  12.482 -0.1545 -0.2599 -0.5134
14089TIP3    H163682   3.093   4.953  12.386  0.8393  1.3164 -0.6985
14089TIP3    H263683   3.183   4.906  12.499 -0.6582 -1.0515 -0.4325
14090TIP3   OH263684   4.246   1.542   3.385 -0.3534  0.2682  0.3532
14090TIP3    H163685   4.305   1.602   3.431  2.0327 -1.4572 -0.3322
14090TIP3    H263686   4.281   1.455   3.402 -2.3962 -0.8157 -0.5943
14091TIP3   OH263687   5.038   6.620  16.768 -0.4656  0.2534 -0.1982
14091TIP3    H163688   5.033   6.704  16.722 -2.2761 -0.0260 -0.6032
14091TIP3    H263689   4.994   6.558  16.710 -0.8289 -0.5649  0.9109
14092TIP3   OH263690   2.587   1.258   2.972  0.1760 -0.0973 -0.0025
14092TIP3    H163691   2.611   1.169   2.997  0.2421 -0.3004 -0.7901
14092TIP3    H263692   2.494   1.264   2.995  0.0259 -0.5585 -0.4838
14093TIP3   OH263693   2.228   6.380   4.777 -0.6179 -0.8106  0.3410
14093TIP3    H163694   2.293   6.395   4.708 -0.4686 -0.2029  0.6103
14093TIP3    H263695   2.276   6.393   4.859 -0.8121 -1.4608  0.5621
14094TIP3   OH263696   1.238   2.238   4.278 -0.2815  0.3120 -0.3017
14094TIP3    H163697   1.162   2.291   4.254  0.0273  0.5937 -0.6601
14094TIP3    H263698   1.225   2.155   4.232 -2.2210 -1.0793  2.4282
14095TIP3   OH263699   4.691   2.654  13.621  0.6630 -0.1743  0.1162
14095TIP3    H163700   4.614   2.613  13.583  0.3049  0.7988 -0.2452
14095TIP3    H263701   4.732   2.700  13.548  1.0865  0.0505  0.4905
14096TIP3   OH263702   3.682   5.460  10.779  0.4878 -0.2760 -0.5519
14096TIP3    H163703   3.671   5.554  10.766 -0.9832 -0.0585  1.6760
14096TIP3    H263704   3.776   5.449  10.795  0.2071  1.6666  3.8977
14097TIP3   OH263705   2.433   2.267   1.868  0.0260  0.1153  0.4985
14097TIP3    H163706   2.522   2.241   1.892  0.0438 -0.9912 -0.7055
14097TIP3    H263707   2.377   2.225   1.933  0.1206 -2.3428 -0.9049
14098TIP3   OH263708   3.658   1.218  11.809  0.1674  0.5243  0.1261
14098TIP3    H163709   3.676   1.227  11.902  1.4435 -0.1858 -0.0391
14098TIP3    H263710   3.674   1.305  11.772  0.8704  0.4977  0.3721
14099TIP3   OH263711   4.361   2.398  14.988 -0.4820  0.3073 -0.2153
14099TIP3    H163712   4.396   2.317  14.949  1.1158  1.0736 -0.4291
14099TIP3    H263713   4.427   2.464  14.970 -2.2829  1.9652 -1.0666
14100TIP3   OH263714   5.833   3.212   5.786 -0.3046 -0.0715 -0.1155
14100TIP3    H163715   5.802   3.273   5.854  0.2926  0.9281 -0.7202
14100TIP3    H263716   5.761   3.207   5.724  0.3044  1.4804 -1.0080
14101TIP3   OH263717   5.546   4.189  15.521 -0.1901  0.1139  0.5083
14101TIP3    H163718   5.516   4.206  15.432  2.7350  0.7976 -0.4544
14101TIP3    H263719   5.476   4.137  15.561 -2.4860  1.4814 -1.4903
14102TIP3   OH263720   2.975   6.176  15.534  0.2063  0.8156  0.0848
14102TIP3    H163721   2.959   6.258  15.580  0.2630  1.8142 -1.6228
14102TIP3    H263722   2.971   6.198  15.442 -1.2684 -1.4016 -0.4582
14103TIP3   OH263723   2.488   4.996   6.126  0.1240  0.5294  0.5824
14103TIP3    H163724   2.473   5.073   6.181 -1.4322  1.4513 -1.0306
14103TIP3    H263725   2.428   4.930   6.161 -1.9692  1.5849 -0.8120
14104TIP3   OH263726   4.698   2.596  11.279 -0.1866  0.3667  0.1883
14104TIP3    H163727   4.659   2.667  11.228 -0.8658 -0.7777 -0.9303
14104TIP3    H263728   4.717   2.527  11.215 -0.3915 -0.8293  1.3669
14105TIP3   OH263729   3.418   2.992   1.350 -0.2044  0.6851  0.8464
14105TIP3    H163730   3.463   2.934   1.412 -0.6607  0.0559  0.6046
14105TIP3    H263731   3.360   3.045   1.404  0.8566  1.5626  1.1717
14106TIP3   OH263732   3.549   2.918   4.172 -0.3195 -0.0358  0.5448
14106TIP3    H163733   3.562   2.906   4.078  0.4533 -0.0730  0.6486
14106TIP3    H263734   3.518   2.832   4.203  0.5788 -0.3787  0.5118
14107TIP3   OH263735   4.154   4.897  16.162  0.1579  0.9179 -0.3560
14107TIP3    H163736   4.160   4.834  16.091  0.9538 -0.3030  0.7360
14107TIP3    H263737   4.135   4.980  16.119 -0.2109  0.0754 -1.9009
14108TIP3   OH263738   3.065   1.118  14.560  0.1527  0.0540  0.1563
14108TIP3    H163739   2.996   1.077  14.612  1.1070 -0.4866  1.0530
14108TIP3    H263740   3.038   1.106  14.469 -1.9224  1.6615  0.4976
14109TIP3   OH263741   3.438   1.269   0.591 -0.0592 -0.2855 -0.1469
14109TIP3    H163742   3.450   1.338   0.525 -0.2979  0.6813  0.7901
14109TIP3    H263743   3.392   1.199   0.545 -0.5410  0.5256 -0.9187
14110TIP3   OH263744   5.286   3.800  11.881  0.1550  0.1515  0.7391
14110TIP3    H163745   5.292   3.789  11.976  1.8554  1.3228  0.8190
14110TIP3    H263746   5.229   3.876  11.870  0.2760  0.2589  0.8449
14111TIP3   OH263747   1.326   5.769  14.550  0.1871 -0.1896  0.2912
14111TIP3    H163748   1.241   5.758  14.509  0.2886  0.1932 -0.0259
14111TIP3    H263749   1.321   5.718  14.631 -0.2686 -0.3352  0.1706
14112TIP3   OH263750   1.703   4.117  16.347 -0.5229 -0.4565 -0.0504
14112TIP3    H163751   1.685   4.153  16.433 -1.3695 -1.6693  0.3008
14112TIP3    H263752   1.796   4.096  16.348 -0.1190  1.1440 -0.0840
14113TIP3   OH263753   4.256   6.468   5.751 -0.0623  0.2024 -0.3962
14113TIP3    H163754   4.190   6.401   5.733 -0.4621  0.4069  0.2646
14113TIP3    H263755   4.310   6.430   5.821 -1.8132  1.4978  1.8212
14114TIP3   OH263756   4.631   0.870  13.270 -0.3529 -0.2926  0.5934
14114TIP3    H163757   4.705   0.883  13.210 -0.5659  0.8156  0.5453
14114TIP3    H263758   4.554   0.877  13.214 -0.5223 -2.4567  0.4606
14115TIP3   OH263759   0.284   1.430   4.568 -0.3438 -0.0386  0.2221
14115TIP3    H163760   0.271   1.511   4.618  1.0790 -1.0894  2.4585
14115TIP3    H263761   0.229   1.366   4.613  0.1188 -0.7675 -0.2344
14116TIP3   OH263762   6.147   5.865  17.026 -0.8363 -0.3325 -0.5470
14116TIP3    H163763   6.177   5.778  16.999 -1.3431 -0.6424 -0.1170
14116TIP3    H263764   6.227   5.910  17.052 -0.7744 -1.3411  1.1213
14117TIP3   OH263765   3.506   0.934  12.109 -0.3843 -0.1595  0.1740
14117TIP3    H163766   3.494   0.929  12.204 -3.1396 -0.3040 -0.1181
14117TIP3    H263767   3.510   1.028  12.090 -1.6411 -0.0789  0.2678
14118TIP3   OH263768   2.881   2.278   3.550  0.7879  0.3011 -0.3450
14118TIP3    H163769   2.796   2.245   3.523  0.2398 -0.1686  1.7773
14118TIP3    H263770   2.874   2.373   3.541  0.6329  0.1738 -1.7213
14119TIP3   OH263771   3.428   3.945  13.325 -0.6356  0.4100 -0.8613
14119TIP3    H163772   3.475   4.029  13.325 -1.3792  0.8515 -1.8871
14119TIP3    H263773   3.495   3.881  13.350 -0.2023  1.3664  0.5717
14120TIP3   OH263774   3.194   5.209  14.852 -0.8273 -0.5713  0.0866
14120TIP3    H163775   3.257   5.191  14.782 -0.9868  0.2044 -0.2633
14120TIP3    H263776   3.229   5.288  14.895 -1.7598  0.1118 -0.3712
14121TIP3   OH263777   4.928   0.209  16.827 -0.3188  0.4268  0.3204
14121TIP3    H163778   4.954   0.193  16.918 -0.3245 -1.2472  0.0554
14121TIP3    H263779   4.954   0.129  16.780 -1.2010  0.8688 -0.9618
14122TIP3   OH263780   0.636   1.047   0.532 -0.0435 -0.0974  0.0668
14122TIP3    H163781   0.652   0.955   0.510  1.9834  0.1272  0.4217
14122TIP3    H263782   0.598   1.045   0.619  1.5600 -0.5746  0.7920
14123TIP3   OH263783   6.425   0.325   4.345  0.0589 -0.1163  0.1478
14123TIP3    H163784   6.408   0.238   4.309  0.2170 -0.3276  0.5691
14123TIP3    H263785   6.451   0.308   4.436 -0.3368  0.4008  0.3625
14124TIP3   OH263786   5.671   6.224  15.642  0.3340 -0.5795 -0.6908
14124TIP3    H163787   5.762   6.207  15.619  0.2245 -1.2243 -0.6717
14124TIP3    H263788   5.672   6.311  15.682  0.6986  0.0668 -2.0510
14125TIP3   OH263789   4.181   1.290  14.297  0.1337  0.0103  0.4289
14125TIP3    H163790   4.151   1.381  14.292 -0.3885 -0.1325  0.8041
14125TIP3    H263791   4.191   1.263  14.206 -0.6381  0.1569  0.2877
14126TIP3   OH263792   5.948   1.664  17.105  0.5240  0.0859 -0.1689
14126TIP3    H163793   5.909   1.584  17.068  0.5446 -0.5957  1.2143
14126TIP3    H263794   6.040   1.660  17.079 -0.0475  1.1888 -2.5939
14127TIP3   OH263795   4.489   4.264  14.034 -0.3672 -0.3935 -0.0008
14127TIP3    H163796   4.577   4.230  14.047  0.1325  0.7291 -0.2760
14127TIP3    H263797   4.458   4.286  14.122  0.7162  1.7279 -0.0866
14128TIP3   OH263798   6.618   2.093  12.893 -0.3768 -0.1859  0.5293
14128TIP3    H163799   6.584   2.170  12.938  0.2060  0.9399 -0.8930
14128TIP3    H263800   6.691   2.064  12.947  0.3271  1.1502  0.3197
14129TIP3   OH263801   4.933   2.469   4.507  0.7722 -0.2911  0.1649
14129TIP3    H163802   4.947   2.410   4.433  1.5806  1.5623 -1.2272
14129TIP3    H263803   4.838   2.468   4.520  0.4982  0.0936 -1.5743
14130TIP3   OH263804   0.155   5.693  14.308 -0.5170 -0.5160 -0.2212
14130TIP3    H163805   0.199   5.666  14.388 -1.6630 -0.1414  0.5588
14130TIP3    H263806   0.148   5.789  14.316 -1.4499 -0.5649 -0.3195
14131TIP3   OH263807   2.168   4.951   4.158 -0.6136  0.0176 -0.0555
14131TIP3    H163808   2.227   4.992   4.095 -0.5663  1.1385  0.6848
14131TIP3    H263809   2.164   4.859   4.131  0.9165  0.0669 -0.5355
14132TIP3   OH263810   5.616   0.707  15.916  0.0214 -0.3601 -0.0259
14132TIP3    H163811   5.585   0.618  15.901 -0.8152  0.0885 -1.0993
14132TIP3    H263812   5.601   0.722  16.009 -1.7509 -0.6618 -0.2201
14133TIP3   OH263813   5.113   2.470   0.666  0.1182 -0.5758 -0.0656
14133TIP3    H163814   5.177   2.437   0.729  0.3057 -1.6801 -0.8066
14133TIP3    H263815   5.033   2.480   0.717 -0.0517 -2.5538  0.1526
14134TIP3   OH263816   3.395   5.782  14.799 -0.2688 -0.0477 -0.3753
14134TIP3    H163817   3.372   5.694  14.768 -0.6408 -0.5653  1.2686
14134TIP3    H263818   3.422   5.769  14.890  0.0480  1.5005 -0.2195
14135TIP3   OH263819   0.746   4.774   6.334  0.0934 -0.4201 -0.1364
14135TIP3    H163820   0.651   4.780   6.327  0.0118 -1.3483  0.0399
14135TIP3    H263821   0.776   4.865   6.341 -0.8996 -0.1754  1.2824
14136TIP3   OH263822   5.997   4.158   0.178 -0.2315 -0.0703  0.6729
14136TIP3    H163823   5.944   4.188   0.251 -0.9179  1.3632 -0.3648
14136TIP3    H263824   5.967   4.069   0.160 -0.8383 -0.0153  1.3981
14137TIP3   OH263825   5.697   3.516  14.792 -0.6028  0.5598 -0.2748
14137TIP3    H163826   5.685   3.501  14.886  1.0338  0.8545  0.0197
14137TIP3    H263827   5.742   3.600  14.786  3.6512 -1.4451 -0.8954
14138TIP3   OH263828   5.202   0.956   5.840 -0.3631  0.2765  0.1350
14138TIP3    H163829   5.206   1.040   5.885 -0.6909 -0.8187  2.3954
14138TIP3    H263830   5.133   0.908   5.886  2.5112 -2.6995  1.7948
14139TIP3   OH263831   1.738   1.699  12.629 -0.2940 -0.6272 -0.1507
14139TIP3    H163832   1.748   1.640  12.555 -1.4370  0.7466 -1.4647
14139TIP3    H263833   1.644   1.699  12.648 -0.3706  0.9237 -0.3620
14140TIP3   OH263834   6.509   5.702   3.973 -0.5428  0.7094 -0.0716
14140TIP3    H163835   6.502   5.797   3.973 -0.8702  0.6856  0.1815
14140TIP3    H263836   6.430   5.672   4.018 -1.4163  0.2483 -1.8374
14141TIP3   OH263837   3.282   5.456  16.963 -0.0582 -0.3672 -0.2149
14141TIP3    H163838   3.326   5.456  16.878 -0.0139 -1.3701 -0.2054
14141TIP3    H263839   3.293   5.367  16.995 -2.2152 -0.7091 -0.2815
14142TIP3   OH263840   4.633   1.831  16.282  0.4730  0.0772 -0.0791
14142TIP3    H163841   4.611   1.923  16.291  0.4429  0.0677 -0.0538
14142TIP3    H263842   4.710   1.829  16.224 -0.3057  0.0364 -1.1506
14143TIP3   OH263843   1.417   0.209  15.051  0.4898  0.5857 -0.4443
14143TIP3    H163844   1.324   0.220  15.069  0.8085  0.3724  1.6460
14143TIP3    H263845   1.421   0.184  14.959 -1.6675 -1.2854 -0.1231
14144TIP3   OH263846   4.080   3.291   5.154  0.1921 -0.2388 -0.0274
14144TIP3    H163847   4.033   3.349   5.214  0.4316 -0.0037 -0.0664
14144TIP3    H263848   4.019   3.218   5.139  0.4350 -0.7000  1.1121
14145TIP3   OH263849   5.910   5.738  12.189  0.1621 -1.0067 -0.6533
14145TIP3    H163850   5.968   5.724  12.264 -0.5493 -1.2506 -0.1362
14145TIP3    H263851   5.961   5.709  12.114  1.8442  1.6075 -0.6134
14146TIP3   OH263852   4.609   5.218  14.443 -0.2591 -0.0157  0.0654
14146TIP3    H163853   4.580   5.156  14.376  1.7589 -0.6615 -0.2828
14146TIP3    H263854   4.528   5.251  14.482 -1.4638 -0.4024 -1.9696
14147TIP3   OH263855   4.815   5.661  13.977  0.0378 -0.6094  0.2851
14147TIP3    H163856   4.877   5.697  14.040 -0.6131  0.5772  0.2726
14147TIP3    H263857   4.869   5.635  13.903  0.7054 -1.1759  0.9570
14148TIP3   OH263858   3.586   4.951  12.590 -0.0647 -0.3248  0.0054
14148TIP3    H163859   3.628   5.005  12.657  0.1932 -0.2327 -0.2308
14148TIP3    H263860   3.500   4.990  12.578 -0.0451 -0.2342  0.1563
14149TIP3   OH263861   1.204   6.759  11.456 -0.7108  0.1032  0.8654
14149TIP3    H163862   1.217   6.684  11.398 -1.5467  0.6171  0.0001
14149TIP3    H263863   1.271   6.822  11.429 -1.6702  0.6997 -0.1523
14150TIP3   OH263864   2.067   1.640   4.584 -0.1020 -0.0828  0.1487
14150TIP3    H163865   2.012   1.582   4.636 -0.5548  0.2979  0.1045
14150TIP3    H263866   2.005   1.698   4.538  0.3338  1.7590  1.7248
14151TIP3   OH263867   0.914   2.330  16.151  0.3906 -1.0474  0.6154
14151TIP3    H163868   0.963   2.273  16.210  1.6560 -0.7657 -0.1199
14151TIP3    H263869   0.972   2.341  16.075 -0.5451 -0.1620  0.0058
14152TIP3   OH263870   6.610   3.339   5.762  0.5940  0.0660  0.4201
14152TIP3    H163871   6.627   3.245   5.760 -0.4302 -0.1303  0.9279
14152TIP3    H263872   6.515   3.347   5.754  0.4392  0.9604  2.5629
14153TIP3   OH263873   4.590   2.534   0.129  0.1317  0.9404 -0.2652
14153TIP3    H163874   4.586   2.616   0.080 -0.1581 -0.5936 -2.9960
14153TIP3    H263875   4.657   2.482   0.084 -1.1494 -1.1030  0.0557
14154TIP3   OH263876   6.768   5.547   2.670  0.0368  0.0482  0.1582
14154TIP3    H163877   6.679   5.559   2.704 -0.2797  0.1416 -0.6798
14154TIP3    H263878   6.824   5.590   2.734 -0.5287  0.0491  0.6605
14155TIP3   OH263879   1.313   4.435  14.035 -0.3620  0.5930 -0.0463
14155TIP3    H163880   1.398   4.399  14.009 -0.4954  0.2262  0.0181
14155TIP3    H263881   1.294   4.393  14.119 -1.2391 -0.3746 -0.7052
14156TIP3   OH263882   2.355   0.648  12.875  0.2395  0.0399  0.1534
14156TIP3    H163883   2.434   0.632  12.823 -0.5465 -1.2286 -0.7229
14156TIP3    H263884   2.316   0.726  12.836 -0.5308 -1.1012 -1.4854
14157TIP3   OH263885   2.117   2.461   5.231  0.1109 -0.5828 -0.0691
14157TIP3    H163886   2.036   2.477   5.279  1.3879  0.7610  1.8008
14157TIP3    H263887   2.137   2.544   5.188  1.2627 -0.3821  0.7899
14158TIP3   OH263888   0.003   4.694  11.314 -0.2848  0.3958 -0.3517
14158TIP3    H163889   0.097   4.706  11.331 -0.2982  1.4329 -0.9365
14158TIP3    H263890  -0.002   4.614  11.262  0.3779  0.8632 -1.1601
14159TIP3   OH263891   0.372   3.932  15.851  0.3530  0.1355 -0.5555
14159TIP3    H163892   0.288   3.930  15.897  0.4449  1.8961 -0.2252
14159TIP3    H263893   0.427   3.871  15.898 -0.3144  0.0457  0.1274
14160TIP3   OH263894   5.732   3.260   2.949  0.7027 -0.0280 -0.5789
14160TIP3    H163895   5.693   3.248   2.862  1.6906 -1.1742 -0.8978
14160TIP3    H263896   5.798   3.191   2.954  0.1191 -0.4933  1.4059
14161TIP3   OH263897   6.514   3.864  15.917  0.0479  0.1374 -0.0141
14161TIP3    H163898   6.446   3.867  15.984  0.2829 -0.8182  0.2816
14161TIP3    H263899   6.538   3.955  15.903  0.2079  0.3322  1.4261
14162TIP3   OH263900   4.105   2.484  16.179 -0.5023 -0.9024 -0.4115
14162TIP3    H163901   4.076   2.570  16.210 -0.1752 -0.9348 -0.0093
14162TIP3    H263902   4.169   2.503  16.111  1.6094 -0.7606  1.4790
14163TIP3   OH263903   4.612   4.968  14.690 -0.6732 -0.1796 -0.2259
14163TIP3    H163904   4.630   4.909  14.617 -1.0331 -0.6147  0.0294
14163TIP3    H263905   4.564   5.041  14.651  0.4093  0.3163 -0.6702
14164TIP3   OH263906   6.272   0.724  11.609  0.5364  0.1190 -0.0672
14164TIP3    H163907   6.179   0.738  11.626  0.1652 -0.2940 -1.6340
14164TIP3    H263908   6.284   0.744  11.516  2.2103  1.0669  0.3022
14165TIP3   OH263909   2.683   6.505  11.734  0.1112  0.1692  0.1538
14165TIP3    H163910   2.729   6.426  11.706  0.1674  0.5982 -1.0000
14165TIP3    H263911   2.623   6.526  11.663 -0.7992  0.4821  0.9854
14166TIP3   OH263912   5.504   6.749   6.279 -0.5386  0.3035  0.5804
14166TIP3    H163913   5.523   6.661   6.310 -0.9832  0.9047  2.7347
14166TIP3    H263914   5.569   6.804   6.321  0.0498  0.9921 -1.1351
14167TIP3   OH263915   4.920   2.201  13.953 -0.0968 -0.6027 -0.1408
14167TIP3    H163916   4.845   2.216  13.896 -1.4931 -2.0824  1.2106
14167TIP3    H263917   4.957   2.117  13.924  0.2334 -0.5191  0.0273
14168TIP3   OH263918   4.527   4.414  13.816  0.6348 -0.3935  0.1884
14168TIP3    H163919   4.457   4.384  13.759  0.0416  0.7277  0.2953
14168TIP3    H263920   4.519   4.360  13.895 -0.7054  0.3036  0.5697
14169TIP3   OH263921   2.830   6.767  12.998  0.2338 -0.5027 -0.2533
14169TIP3    H163922   2.822   6.862  13.008 -1.2214 -0.4362 -1.6177
14169TIP3    H263923   2.791   6.731  13.078 -0.4514  0.0518 -0.3284
14170TIP3   OH263924   3.593   4.497   5.840 -0.2458  0.0590  0.0318
14170TIP3    H163925   3.595   4.436   5.766  2.1331 -0.0285  0.1085
14170TIP3    H263926   3.529   4.563   5.815 -2.3032 -1.9764 -0.4169
14171TIP3   OH263927   4.018   6.000   5.283  0.2376  0.0530  0.0497
14171TIP3    H163928   4.097   5.971   5.237  1.0538  1.0983  0.7358
14171TIP3    H263929   3.977   6.063   5.224  0.1295 -0.2095 -0.1521
14172TIP3   OH263930   6.455   0.584   3.223 -0.4531  0.0794 -0.3871
14172TIP3    H163931   6.525   0.545   3.276  1.9185  2.2220 -1.7494
14172TIP3    H263932   6.384   0.601   3.286  0.5281 -1.4374  1.2091
14173TIP3   OH263933   5.653   0.057  16.328  0.1046  0.2828 -0.0524
14173TIP3    H163934   5.658  -0.035  16.300 -0.3838 -0.5869  2.4988
14173TIP3    H263935   5.568   0.087  16.295  0.0765 -0.2989 -0.5341
14174TIP3   OH263936   1.522   3.607  15.737  0.0929 -0.3695  0.2230
14174TIP3    H163937   1.469   3.528  15.743 -1.5126  0.5647 -0.8560
14174TIP3    H263938   1.535   3.634  15.828  0.0494 -1.4740  0.5679
14175TIP3   OH263939   2.405   0.595   0.541  0.5225 -0.1529  0.3020
14175TIP3    H163940   2.327   0.546   0.568 -0.1280  0.5661 -0.2401
14175TIP3    H263941   2.394   0.682   0.579  0.7500  0.1451 -0.3055
14176TIP3   OH263942   2.831   2.727  13.564  0.5839 -0.7216 -0.2258
14176TIP3    H163943   2.863   2.701  13.477  0.9875 -0.2219 -0.2331
14176TIP3    H263944   2.897   2.789  13.596  0.5269 -1.0387  0.5130
14177TIP3   OH263945   4.326   6.539   3.101 -0.4049  0.2877 -0.3359
14177TIP3    H163946   4.397   6.603   3.108 -0.1684 -0.0931  0.8845
14177TIP3    H263947   4.246   6.589   3.117 -0.3478  0.5396 -0.8112
14178TIP3   OH263948   0.761   2.695  15.112 -0.7387  0.6295 -0.3389
14178TIP3    H163949   0.716   2.681  15.196 -1.8061  0.7142 -0.8703
14178TIP3    H263950   0.851   2.717  15.136 -0.7888 -0.2517  0.7494
14179TIP3   OH263951   5.268   2.684  16.904  0.3242 -0.6213  0.0374
14179TIP3    H163952   5.227   2.769  16.919 -2.2503 -0.8546 -4.1107
14179TIP3    H263953   5.356   2.704  16.872  0.2971  0.3657  0.5567
14180TIP3   OH263954   2.544   3.472  13.281  0.6202 -0.4759 -0.0245
14180TIP3    H163955   2.624   3.460  13.332  0.7002  0.3500  0.0579
14180TIP3    H263956   2.573   3.466  13.190  0.5465 -1.5328  0.0145
14181TIP3   OH263957   6.705   1.536  16.877 -0.1978  0.1492 -0.1436
14181TIP3    H163958   6.626   1.484  16.887  0.9664 -1.5659  0.7481
14181TIP3    H263959   6.757   1.490  16.811  0.0351  1.3141 -0.8190
14182TIP3   OH263960   2.780   4.378  17.109 -0.4879 -0.1626 -0.0931
14182TIP3    H163961   2.854   4.328  17.141 -1.4278 -2.4130 -1.1568
14182TIP3    H263962   2.768   4.347  17.019 -4.1631 -1.8332  0.7778
14183TIP3   OH263963   4.174   1.876  14.673 -0.4590  0.7963  0.4140
14183TIP3    H163964   4.127   1.796  14.697  1.2161  0.0611  1.4161
14183TIP3    H263965   4.203   1.860  14.584  1.0314 -0.3369  1.0658
14184TIP3   OH263966   1.946   5.726  11.017  0.1478 -0.3419  0.3786
14184TIP3    H163967   1.854   5.698  11.010  0.7768 -2.7930  0.7778
14184TIP3    H263968   1.945   5.818  10.993 -1.8692 -1.1452 -3.4956
14185TIP3   OH263969   4.205   0.372   4.561  0.0356 -0.6089 -0.0918
14185TIP3    H163970   4.256   0.342   4.637  1.6869 -1.5340 -1.4939
14185TIP3    H263971   4.233   0.315   4.490 -0.9568  0.6989 -1.5853
14186TIP3   OH263972   0.166   1.890  15.530  0.0905  0.6551 -0.1293
14186TIP3    H163973   0.141   1.812  15.481  0.8346 -0.4670  1.2008
14186TIP3    H263974   0.164   1.961  15.466 -4.2325  0.3232 -0.6703
14187TIP3   OH263975   1.001   3.206   4.775 -0.2134 -0.0250  0.1298
14187TIP3    H163976   0.912   3.179   4.753 -0.7250  1.7139 -0.1465
14187TIP3    H263977   0.997   3.229   4.868 -0.4055  1.2063 -0.1584
14188TIP3   OH263978   3.739   3.429  11.666  0.1781 -0.0092  0.0029
14188TIP3    H163979   3.654   3.431  11.710  0.5766  1.2611  0.7401
14188TIP3    H263980   3.790   3.364  11.714  0.6058  1.3530  1.4695
14189TIP3   OH263981   2.985   2.368  16.858  0.2893  0.6283  0.1944
14189TIP3    H163982   2.948   2.454  16.841  1.7336  1.1849 -0.2850
14189TIP3    H263983   3.006   2.333  16.772 -3.5097 -1.8187  0.0094
14190TIP3   OH263984   1.927   2.952   5.392 -0.7774  0.4173 -1.1883
14190TIP3    H163985   1.952   2.949   5.300 -0.1246 -2.7310 -1.0187
14190TIP3    H263986   2.007   2.934   5.440 -1.6198 -0.7710 -0.1567
14191TIP3   OH263987   2.688   4.734   4.907  0.0683  0.1991 -0.1042
14191TIP3    H163988   2.665   4.767   4.820  0.6126 -0.9377 -0.6973
14191TIP3    H263989   2.753   4.795   4.940  0.5125  0.1633 -0.8786
14192TIP3   OH263990   3.703   0.337   2.662 -0.0307  1.0268  0.5591
14192TIP3    H163991   3.733   0.375   2.580 -0.8295  1.0040  0.2525
14192TIP3    H263992   3.776   0.282   2.691  0.2117  0.9462 -0.1934
14193TIP3   OH263993   4.818   4.743  11.627  0.1432 -0.2042  0.1088
14193TIP3    H163994   4.843   4.652  11.612  0.4798 -0.3383  1.3698
14193TIP3    H263995   4.750   4.760  11.561  0.8471 -1.0139 -0.8597
14194TIP3   OH263996   0.311   6.167  16.588 -0.5524  0.2665  0.8974
14194TIP3    H163997   0.321   6.155  16.682 -0.5014 -1.1152  0.7393
14194TIP3    H263998   0.245   6.102  16.562 -1.2623  1.2655  0.1222
14195TIP3   OH263999   4.437   5.872  12.201 -0.1098  0.2499 -0.2999
14195TIP3    H164000   4.504   5.938  12.217 -0.0355  0.3454 -1.0109
14195TIP3    H264001   4.433   5.863  12.106 -1.4874  0.6583 -0.3146
14196TIP3   OH264002   0.054   5.913   0.430 -0.3676 -0.2459 -0.2850
14196TIP3    H164003  -0.013   5.877   0.488  0.4366  0.0903  0.8836
14196TIP3    H264004   0.004   5.961   0.364 -1.3012 -0.1374  0.4643
14197TIP3   OH264005   1.855   2.850  10.748 -0.1537  0.1924  0.2426
14197TIP3    H164006   1.880   2.758  10.756  0.1315  0.3112  0.6875
14197TIP3    H264007   1.760   2.849  10.761 -0.1906 -0.0728 -0.0286
14198TIP3   OH264008   2.275   2.300  17.214  0.1280 -0.2386 -0.4617
14198TIP3    H164009   2.349   2.321  17.157 -0.1453  0.1343 -0.6789
14198TIP3    H264010   2.287   2.207  17.236 -1.6892 -1.5255 -4.0775
14199TIP3   OH264011   5.517   2.278   3.005  0.6059 -0.2312 -0.5745
14199TIP3    H164012   5.539   2.352   3.062  2.2156  1.3553 -3.0498
14199TIP3    H264013   5.602   2.241   2.979 -0.1150 -1.6487 -1.0421
14200TIP3   OH264014   2.117   5.933  17.148  0.0147 -0.0856 -0.4358
14200TIP3    H164015   2.212   5.944  17.146  0.0050  0.1932  0.2459
14200TIP3    H264016   2.086   5.976  17.068  0.4557 -0.1574 -0.6492
14201TIP3   OH264017   4.132   3.243  15.667 -0.2789  0.1550 -0.3371
14201TIP3    H164018   4.087   3.184  15.728 -0.1825 -1.8689 -2.1070
14201TIP3    H264019   4.131   3.197  15.584 -0.9666  3.0556 -2.0957
14202TIP3   OH264020   2.792   5.691  16.020 -0.1641 -0.3605 -0.0198
14202TIP3    H164021   2.874   5.689  15.971  0.2010  1.0737  0.4758
14202TIP3    H264022   2.818   5.718  16.108 -1.1804  0.4070  0.0660
14203TIP3   OH264023   4.161   2.284  13.939 -0.1889  0.5491  0.3462
14203TIP3    H164024   4.128   2.195  13.953  0.4664 -0.0962 -1.7305
14203TIP3    H264025   4.184   2.315  14.026 -3.7445  0.0891  1.5900
14204TIP3   OH264026   6.055   5.840   2.407  0.4991  0.0025 -0.1602
14204TIP3    H164027   6.094   5.774   2.351  0.1932 -0.5118  0.2253
14204TIP3    H264028   5.976   5.867   2.359 -0.4133 -1.2973  0.5475
14205TIP3   OH264029   3.140   6.395   2.229 -0.3160  0.9258  0.0358
14205TIP3    H164030   3.172   6.355   2.148 -0.4699  1.0373 -0.0792
14205TIP3    H264031   3.051   6.423   2.209 -0.3896  0.8655  0.2735
14206TIP3   OH264032   2.333   2.021  13.829 -0.3729  0.5552  0.6603
14206TIP3    H164033   2.326   2.088  13.760 -0.4720  1.0216  1.1199
14206TIP3    H264034   2.255   1.966  13.817  0.4507 -0.3921 -0.6598
14207TIP3   OH264035   2.898   3.275  11.928  0.6514  0.0871 -0.1134
14207TIP3    H164036   2.949   3.202  11.893  0.1724  0.1344 -0.9170
14207TIP3    H264037   2.896   3.259  12.022 -0.7296 -1.7766 -0.4162
14208TIP3   OH264038   4.021   6.251  13.126 -0.3115  0.2463 -0.1116
14208TIP3    H164039   4.048   6.164  13.156 -1.8981  0.2629  1.5769
14208TIP3    H264040   4.023   6.246  13.031 -0.2295 -1.6073 -0.0399
14209TIP3   OH264041   2.621   4.248  11.187 -0.2347  0.0240  0.0670
14209TIP3    H164042   2.700   4.257  11.240 -1.9004  1.8532  2.4977
14209TIP3    H264043   2.589   4.338  11.176 -1.8365 -0.6389 -1.0356
14210TIP3   OH264044   0.987   0.190   2.245  0.1194 -0.2353  0.2632
14210TIP3    H164045   1.040   0.240   2.183 -1.7453  2.3753  0.6037
14210TIP3    H264046   0.905   0.239   2.252 -0.8101 -1.9111  2.7365
14211TIP3   OH264047   4.800   2.137  12.957 -0.7464 -0.3280 -0.6547
14211TIP3    H164048   4.766   2.144  13.046 -0.2366  0.5894 -0.5221
14211TIP3    H264049   4.861   2.063  12.961 -1.1918 -0.6853 -0.3972
14212TIP3   OH264050   2.641   1.122   5.806 -0.4765  0.5397  0.1543
14212TIP3    H164051   2.693   1.138   5.728 -3.8158 -0.7725 -2.5901
14212TIP3    H264052   2.624   1.028   5.805 -2.2845  0.7935  1.2901
14213TIP3   OH264053   6.085   3.130   2.771 -0.4979 -0.8786  0.1572
14213TIP3    H164054   6.104   3.219   2.742 -1.2110 -0.7683 -0.0053
14213TIP3    H264055   6.106   3.075   2.696 -0.7848 -0.7611 -0.0124
14214TIP3   OH264056   0.999   5.555  13.642  0.1844  0.1905 -0.0838
14214TIP3    H164057   0.937   5.489  13.611  1.2170 -1.4777  1.2272
14214TIP3    H264058   0.945   5.624  13.680 -0.8800 -0.8758  0.3717
14215TIP3   OH264059   4.895   4.145  13.767  0.1607  0.2625  0.2314
14215TIP3    H164060   4.843   4.208  13.818 -0.1615 -0.3183  0.6310
14215TIP3    H264061   4.986   4.171  13.783  0.0210  0.8067  0.1606
14216TIP3   OH264062   6.034   1.663  14.886  0.1922 -0.0664 -0.2833
14216TIP3    H164063   6.129   1.651  14.888  0.3470  0.9044 -0.9767
14216TIP3    H264064   6.016   1.693  14.797 -1.0106 -2.0589 -0.7657
14217TIP3   OH264065   5.206   0.402   4.940 -0.0180 -0.5293 -0.4801
14217TIP3    H164066   5.287   0.350   4.944  0.5091  0.3610  1.0059
14217TIP3    H264067   5.213   0.450   4.858  0.2617 -1.5611 -1.0811
14218TIP3   OH264068   0.845   2.342  13.296  0.0602 -0.4760 -0.0631
14218TIP3    H164069   0.839   2.411  13.362 -0.4530 -0.8523  0.2821
14218TIP3    H264070   0.821   2.262  13.341 -0.3337 -0.7341 -0.7091
14219TIP3   OH264071   5.259   3.094   1.455 -0.2481 -0.0660 -0.2442
14219TIP3    H164072   5.218   3.142   1.383 -2.3412 -1.1496  0.1437
14219TIP3    H264073   5.338   3.056   1.416 -1.1513 -0.3340 -1.8948
14220TIP3   OH264074   6.723   1.859   4.153  0.0792  0.1297 -0.2587
14220TIP3    H164075   6.767   1.929   4.201 -1.8606  0.7006  0.8052
14220TIP3    H264076   6.691   1.900   4.073 -0.8786  0.4405  0.2684
14221TIP3   OH264077   6.718   2.309  11.676  0.0819  0.2990 -0.3788
14221TIP3    H164078   6.740   2.216  11.685 -1.3801 -0.1815 -1.3052
14221TIP3    H264079   6.626   2.309  11.649 -0.5176  2.0787  1.3998
14222TIP3   OH264080   3.558   2.729  11.294 -0.1944  0.3605 -0.3832
14222TIP3    H164081   3.636   2.683  11.326 -0.5938 -0.4310 -0.5047
14222TIP3    H264082   3.486   2.690  11.343 -0.7961 -0.7058 -1.9941
14223TIP3   OH264083   0.235   2.943  16.663 -0.5214 -0.3762 -0.0413
14223TIP3    H164084   0.281   2.897  16.735  0.8617 -0.1823 -0.7627
14223TIP3    H264085   0.265   3.033  16.670 -2.0091  0.1115  0.3879
14224TIP3   OH264086   3.037   2.718   6.089 -0.2586  0.9700  0.0746
14224TIP3    H164087   2.986   2.680   6.161  0.6607 -0.6226 -0.0765
14224TIP3    H264088   3.108   2.766   6.133  0.2997  0.0028  0.2591
14225TIP3   OH264089   0.219   4.907   6.062 -0.2024  0.7457 -0.0311
14225TIP3    H164090   0.284   4.978   6.061  0.7732 -0.1277 -0.2888
14225TIP3    H264091   0.225   4.870   6.150 -0.6478  0.9257  0.0758
14226TIP3   OH264092   4.790   3.159  14.129  0.0480 -0.2534 -0.0068
14226TIP3    H164093   4.768   3.236  14.076 -1.3841 -0.1808  0.6410
14226TIP3    H264094   4.816   3.093  14.065 -1.7886 -0.2167 -0.8557
14227TIP3   OH264095   6.664   1.797   1.418 -0.4716 -0.1341 -0.7143
14227TIP3    H164096   6.752   1.802   1.455 -0.7711  2.8047 -0.1644
14227TIP3    H264097   6.624   1.723   1.463 -0.0923  1.8981  3.4177
14228TIP3   OH264098   6.635   2.183   4.526  0.0466  0.6005 -0.3218
14228TIP3    H164099   6.599   2.266   4.494 -0.9541  0.0800 -0.6081
14228TIP3    H264100   6.677   2.205   4.609 -3.3091  0.8959  1.5050
14229TIP3   OH264101   0.409   6.264  11.187  0.6226  0.4266 -0.0466
14229TIP3    H164102   0.393   6.347  11.232 -2.5406  0.3163 -0.7294
14229TIP3    H264103   0.377   6.198  11.248 -0.3380  0.0175 -0.9643
14230TIP3   OH264104   4.980   4.775   1.931 -0.0002  0.1481  0.3942
14230TIP3    H164105   4.884   4.781   1.940 -0.1289 -0.2217 -0.5648
14230TIP3    H264106   4.996   4.682   1.915  0.5427  0.1799  0.7457
14231TIP3   OH264107   3.881   4.543  12.613  0.2439  0.5343 -0.5753
14231TIP3    H164108   3.818   4.561  12.544  1.0138  2.0199 -0.9403
14231TIP3    H264109   3.887   4.625  12.663  1.1727  0.1246  0.0257
14232TIP3   OH264110   3.833   1.573   2.799 -0.1725 -0.4315 -0.1204
14232TIP3    H164111   3.765   1.631   2.764 -0.8821 -0.7027  0.7556
14232TIP3    H264112   3.874   1.625   2.868 -0.9207 -0.9986  0.7818
14233TIP3   OH264113   5.172   5.243  12.846 -0.1654 -0.1238  0.1372
14233TIP3    H164114   5.264   5.224  12.830  0.1973  0.1149  1.7423
14233TIP3    H264115   5.145   5.296  12.771  1.9503  2.7173  1.1750
14234TIP3   OH264116   5.607   0.781  12.525  0.2817  0.3864 -0.9821
14234TIP3    H164117   5.557   0.844  12.577 -0.4090 -0.4146 -0.6456
14234TIP3    H264118   5.627   0.710  12.586  2.2302  0.8643 -0.9937
14235TIP3   OH264119   6.176   6.529   4.031 -0.0903 -0.6327 -0.2168
14235TIP3    H164120   6.270   6.547   4.034 -0.4380  1.6538 -1.0819
14235TIP3    H264121   6.146   6.543   4.122  0.2942 -0.6602 -0.0858
14236TIP3   OH264122   1.140   2.633   5.449 -0.1337  0.1499  0.3278
14236TIP3    H164123   1.069   2.571   5.427  0.1920 -0.1447  0.0937
14236TIP3    H264124   1.105   2.684   5.522 -0.0956 -0.8819  1.1003
14237TIP3   OH264125   6.333   2.681  15.259 -0.0717  0.5212  0.0074
14237TIP3    H164126   6.336   2.587  15.276 -0.4508  0.6303  0.7270
14237TIP3    H264127   6.269   2.691  15.189 -1.3900  0.3845  1.1503
14238TIP3   OH264128   3.325   0.751   5.273  0.2567 -0.0599  0.1433
14238TIP3    H164129   3.318   0.832   5.324  1.6711 -0.3262  0.8223
14238TIP3    H264130   3.308   0.778   5.183 -0.2086  0.8224  0.4852
14239TIP3   OH264131   4.399   6.595  15.051 -0.5074 -1.0638  0.0920
14239TIP3    H164132   4.409   6.652  15.128  1.8810  0.3482 -1.1390
14239TIP3    H264133   4.313   6.618  15.015 -0.4014  0.4262  0.7002
14240TIP3   OH264134   3.628   6.321  15.088  0.7317 -0.6693 -0.2396
14240TIP3    H164135   3.659   6.337  14.999 -1.6241 -0.6104 -1.1025
14240TIP3    H264136   3.533   6.326  15.082  0.5142 -0.0094  2.4145
14241TIP3   OH264137   3.556   0.574   0.385  0.7912  0.3559 -0.0494
14241TIP3    H164138   3.528   0.505   0.325  0.1912 -1.0051  1.7238
14241TIP3    H264139   3.506   0.651   0.357 -0.3121 -0.5313 -0.5926
14242TIP3   OH264140   0.005   0.909   5.236  0.4429  0.0026  0.4383
14242TIP3    H164141   0.009   0.949   5.149 -0.3705 -0.7137  0.0545
14242TIP3    H264142   0.092   0.871   5.250  0.0739 -1.4227 -0.8440
14243TIP3   OH264143   1.675   2.478  11.199 -0.4567 -0.0568 -0.3336
14243TIP3    H164144   1.676   2.393  11.242  1.9692 -0.4889 -1.0788
14243TIP3    H264145   1.590   2.516  11.221 -1.0677 -2.1116  1.0784
14244TIP3   OH264146   1.113   2.193  12.550  0.0966 -0.1704 -0.3658
14244TIP3    H164147   1.091   2.101  12.533  0.4384 -0.2879 -0.1846
14244TIP3    H264148   1.095   2.238  12.467 -0.2990 -0.3584 -0.3816
14245TIP3   OH264149   0.734   5.220   1.694 -0.0384  0.9977 -0.0844
14245TIP3    H164150   0.724   5.154   1.626  1.2316  1.1357 -0.4248
14245TIP3    H264151   0.689   5.297   1.659  0.7406  1.1184 -0.8569
14246TIP3   OH264152   4.798   4.548   2.561  0.1849 -0.0409 -0.0378
14246TIP3    H164153   4.842   4.619   2.515  0.7223 -0.9013 -0.8829
14246TIP3    H264154   4.858   4.474   2.554 -1.6770 -1.4596 -1.8663
14247TIP3   OH264155   2.769   4.294  12.114  0.4652 -0.6721 -0.8000
14247TIP3    H164156   2.755   4.216  12.060  3.6124  0.0434 -2.9077
14247TIP3    H264157   2.838   4.269  12.175 -0.6880 -0.4066  0.6696
14248TIP3   OH264158   1.789   1.246  11.859 -0.2177 -0.4202  0.1937
14248TIP3    H164159   1.830   1.311  11.801  0.1016 -1.4473 -0.7660
14248TIP3    H264160   1.860   1.220  11.918 -0.1249 -0.4722  0.0614
14249TIP3   OH264161   2.351   4.809  13.833 -0.3788  0.3351  0.1575
14249TIP3    H164162   2.327   4.879  13.772 -5.1944 -2.1785 -1.4174
14249TIP3    H264163   2.279   4.808  13.896  1.6928 -0.6787  2.6666
14250TIP3   OH264164   5.520   1.606   1.517 -0.1468 -0.1651  0.4206
14250TIP3    H164165   5.547   1.523   1.555  2.5314 -0.2339 -1.3469
14250TIP3    H264166   5.487   1.657   1.591 -0.0333 -2.0744  1.8708
14251TIP3   OH264167   1.130   2.179  16.291  0.2951  0.1175  0.0085
14251TIP3    H164168   1.189   2.204  16.220  1.6268 -0.1001  0.9901
14251TIP3    H264169   1.188   2.162  16.366 -1.0403  0.1507  1.1015
14252TIP3   OH264170   5.576   3.648  13.878  0.1671 -0.1868  0.8360
14252TIP3    H164171   5.665   3.616  13.862  0.0729  0.1528 -0.4713
14252TIP3    H264172   5.533   3.576  13.924  0.6907 -0.9362  0.1810
14253TIP3   OH264173   6.597   3.561   2.202  0.9296 -0.3833  0.2225
14253TIP3    H164174   6.568   3.533   2.288 -2.9204 -1.0703 -1.1071
14253TIP3    H264175   6.605   3.480   2.151  0.1335  0.1568 -0.8172
14254TIP3   OH264176   4.020   6.005   4.550 -0.1041 -0.1758 -0.1921
14254TIP3    H164177   4.065   6.010   4.465  0.8164 -1.1836  0.2063
14254TIP3    H264178   3.996   5.912   4.558 -0.2563 -0.0707  0.6095
14255TIP3   OH264179   5.415   1.496   3.237 -0.0666 -0.0529 -0.3104
14255TIP3    H164180   5.350   1.553   3.195  0.0740  0.5552  0.2744
14255TIP3    H264181   5.442   1.435   3.169 -1.8022 -0.8037 -0.3627
14256TIP3   OH264182   0.146   2.794  14.068  0.0851  0.0919  0.0310
14256TIP3    H164183   0.199   2.738  14.124  2.2322 -1.1787 -3.0352
14256TIP3    H264184   0.160   2.882  14.103 -0.1138 -0.7540  2.4865
14257TIP3   OH264185   4.827   2.817   1.922  0.3449 -0.2198  0.2691
14257TIP3    H164186   4.825   2.772   1.838 -0.6967  0.1063  0.1154
14257TIP3    H264187   4.907   2.870   1.919  0.5628 -0.5801 -0.3164
14258TIP3   OH264188   3.364   0.034   1.918 -0.5724  0.3930  0.1644
14258TIP3    H164189   3.366  -0.055   1.955  0.2402 -0.5384 -1.9323
14258TIP3    H264190   3.282   0.037   1.868  0.7985 -0.3780 -2.3092
14259TIP3   OH264191   4.615   3.349  12.700 -0.2580 -0.3399  0.1734
14259TIP3    H164192   4.676   3.423  12.705 -1.5916  0.9472 -1.6405
14259TIP3    H264193   4.665   3.280  12.657  0.5468 -0.0105  0.5513
14260TIP3   OH264194   6.007   1.575   2.876  0.3239  0.2387  0.5260
14260TIP3    H164195   6.066   1.500   2.873 -0.7557 -0.6123 -1.6561
14260TIP3    H264196   6.061   1.646   2.912  2.9609 -0.3069 -1.9667
14261TIP3   OH264197   2.203   4.389  13.728 -0.2302  0.7867 -0.1702
14261TIP3    H164198   2.136   4.427  13.672  0.3357  1.8001 -0.1958
14261TIP3    H264199   2.217   4.301  13.693 -1.1466  0.7653 -0.4981
14262TIP3   OH264200   4.707   2.574  12.062 -0.1929  0.0471 -0.1405
14262TIP3    H164201   4.692   2.641  11.996  1.4074  2.2614  1.5773
14262TIP3    H264202   4.673   2.612  12.143  1.1614 -0.9752  0.9696
14263TIP3   OH264203   4.190   2.647  11.625  0.0938  0.0556 -0.0834
14263TIP3    H164204   4.200   2.600  11.542  0.3811 -0.2619  0.1287
14263TIP3    H264205   4.203   2.580  11.692 -2.1045 -0.1113  0.2379
14264TIP3   OH264206   6.134   1.210  13.034 -0.3648  0.4373  0.1016
14264TIP3    H164207   6.094   1.296  13.018 -0.6426  0.4181  0.6632
14264TIP3    H264208   6.176   1.219  13.119  0.7241  0.4076 -0.4097
14265TIP3   OH264209   2.613   3.203   2.049 -0.2497  0.1799 -0.2403
14265TIP3    H164210   2.600   3.108   2.060  0.7145  0.1921  1.4208
14265TIP3    H264211   2.534   3.241   2.087  0.7125  0.0647  2.0439
14266TIP3   OH264212   3.567   3.257   5.727 -0.4112  0.2527 -0.1247
14266TIP3    H164213   3.544   3.300   5.809 -1.0149  0.5378 -0.4368
14266TIP3    H264214   3.566   3.328   5.662  2.6341  0.5791  0.0243
14267TIP3   OH264215   6.109   3.304   1.934  0.1889 -0.4914  0.2723
14267TIP3    H164216   6.188   3.336   1.979  0.1814 -0.6940  0.4317
14267TIP3    H264217   6.038   3.357   1.971  0.1226 -0.9550  0.8257
14268TIP3   OH264218   5.606   4.667  15.328  0.4501  0.1960 -0.0739
14268TIP3    H164219   5.524   4.717  15.325  0.9865  1.1305  0.5627
14268TIP3    H264220   5.651   4.690  15.247  0.1825 -0.1764 -0.3360
14269TIP3   OH264221   1.432   1.993   0.493  0.6080  0.2429 -0.3256
14269TIP3    H164222   1.523   1.985   0.466  0.5315  0.0167 -0.5189
14269TIP3    H264223   1.415   1.915   0.546  0.2890 -0.1398 -0.9792
14270TIP3   OH264224   1.149   3.133   3.111  0.5959  0.2200 -0.5746
14270TIP3    H164225   1.060   3.168   3.105  0.8654  1.0334 -0.0882
14270TIP3    H264226   1.204   3.210   3.123  1.1557 -0.3892  1.1188
14271TIP3   OH264227   2.230   0.872  15.988  0.8797  0.1466  0.0671
14271TIP3    H164228   2.229   0.907  15.899  1.7528  0.0574  0.0199
14271TIP3    H264229   2.259   0.782  15.978 -0.5426 -0.3597  0.2822
14272TIP3   OH264230   0.187   1.858  12.150 -0.1917 -1.2317  0.4264
14272TIP3    H164231   0.183   1.849  12.054 -1.0994 -0.8149  0.4152
14272TIP3    H264232   0.181   1.769  12.183 -1.2961 -1.2801  0.1247
14273TIP3   OH264233   4.147   3.359   5.421 -0.0709  0.2766  0.7108
14273TIP3    H164234   4.227   3.316   5.391  0.0587  0.0228  1.4092
14273TIP3    H264235   4.099   3.291   5.467  0.2333  0.9265  2.0209
14274TIP3   OH264236   1.307   6.166  16.296 -0.4159 -0.3177  0.2677
14274TIP3    H164237   1.311   6.077  16.263  0.0808 -0.4904  0.7783
14274TIP3    H264238   1.373   6.169  16.365  0.8806  0.9297 -0.9320
14275TIP3   OH264239   5.533   4.752  16.611 -0.5009 -0.1961 -0.2860
14275TIP3    H164240   5.483   4.708  16.680 -2.1018  3.0123  0.7832
14275TIP3    H264241   5.473   4.755  16.536 -0.9280  1.2518  0.0908
14276TIP3   OH264242   1.899   6.517  14.718  0.0650 -0.3231  0.0524
14276TIP3    H164243   1.874   6.563  14.638  1.4174  1.9701  0.8345
14276TIP3    H264244   1.867   6.574  14.788 -1.1991 -2.3306  1.1862
14277TIP3   OH264245   0.682   1.851  12.147  0.1286 -0.1169 -0.2004
14277TIP3    H164246   0.641   1.830  12.230  0.0015  0.3798 -0.1338
14277TIP3    H264247   0.625   1.811  12.081  0.1106 -0.3216 -0.0614
14278TIP3   OH264248   1.600   4.846  14.483 -0.1167  0.0323 -0.0857
14278TIP3    H164249   1.516   4.816  14.516  0.4731 -0.5953  0.8809
14278TIP3    H264250   1.605   4.813  14.393 -1.3309  0.9592 -0.5258
14279TIP3   OH264251   1.287   2.161   0.869 -0.2015  0.1082  0.5996
14279TIP3    H164252   1.238   2.079   0.867  0.5180 -0.3133 -1.1726
14279TIP3    H264253   1.327   2.162   0.956 -2.5692  0.0425  1.7692
14280TIP3   OH264254   4.667   0.041   4.124 -0.0954  0.0624  0.1518
14280TIP3    H164255   4.756   0.068   4.103 -0.4305 -0.5110 -2.2980
14280TIP3    H264256   4.648   0.083   4.208  1.8169  1.7120 -0.1780
14281TIP3   OH264257   2.005   4.288   3.711  0.2006  0.3918 -0.4144
14281TIP3    H164258   2.007   4.265   3.618  0.1359  2.6582 -1.0377
14281TIP3    H264259   2.086   4.337   3.725 -0.1641  0.7420  0.5415
14282TIP3   OH264260   3.249   4.891   1.776 -0.0713  0.4049 -0.3879
14282TIP3    H164261   3.330   4.941   1.773 -0.0509  0.4205  0.3297
14282TIP3    H264262   3.228   4.883   1.869  0.6732 -2.1298 -0.3681
14283TIP3   OH264263   3.489   3.349   0.866 -0.4390 -0.4086 -0.3775
14283TIP3    H164264   3.458   3.436   0.893 -0.4589 -0.2005 -1.0589
14283TIP3    H264265   3.465   3.291   0.939 -1.3716 -0.0343 -0.3800
14284TIP3   OH264266   5.445   1.857   3.540 -0.2972  0.1157  0.3175
14284TIP3    H164267   5.421   1.781   3.595  0.5768  0.5523  1.3390
14284TIP3    H264268   5.540   1.857   3.540 -0.2620  1.7627  1.1358
14285TIP3   OH264269   5.082   0.562  13.316  0.4574  0.0818 -0.0866
14285TIP3    H164270   5.010   0.508  13.348  0.1346  0.3611 -0.3373
14285TIP3    H264271   5.052   0.593  13.231  1.2337 -0.5231 -0.6008
14286TIP3   OH264272   6.250   2.911   2.560 -0.1228  0.8302 -0.0442
14286TIP3    H164273   6.318   2.979   2.558 -0.1877  0.8934 -0.0984
14286TIP3    H264274   6.171   2.956   2.533 -0.2084  0.7796  0.1208
14287TIP3   OH264275   1.969   0.039  12.486 -0.0474  0.2485  0.5030
14287TIP3    H164276   1.990  -0.003  12.570 -0.2875 -1.2761 -0.1653
14287TIP3    H264277   1.887  -0.001  12.459  1.0988 -0.9501 -1.4881
14288TIP3   OH264278   0.625   1.090   1.512 -0.5227  0.2809  0.4028
14288TIP3    H164279   0.539   1.117   1.480 -0.5059 -0.4628 -0.3097
14288TIP3    H264280   0.608   1.016   1.570 -0.2904 -0.6904 -0.7281
14289TIP3   OH264281   4.238   6.495  14.627  0.2512 -0.7104  0.3742
14289TIP3    H164282   4.251   6.427  14.693  0.0468 -1.2005 -0.0867
14289TIP3    H264283   4.314   6.553  14.637  1.8574 -2.4724 -1.0132
14290TIP3   OH264284   5.021   1.530   5.235 -0.2331  0.1093  0.4291
14290TIP3    H164285   4.939   1.562   5.196 -1.3689 -1.9622  0.9977
14290TIP3    H264286   5.089   1.561   5.175 -1.2123  3.1259  0.6738
14291TIP3   OH264287   3.209   6.526  14.887  0.3809  0.1252  0.7803
14291TIP3    H164288   3.125   6.500  14.925  1.3540 -2.4651  1.3459
14291TIP3    H264289   3.188   6.555  14.799 -1.0696 -0.9350  0.7445
14292TIP3   OH264290   1.909   1.720   4.362  0.5028  0.7769 -0.0718
14292TIP3    H164291   1.947   1.680   4.284  2.1996  0.6124  0.8024
14292TIP3    H264292   1.837   1.661   4.386  0.9130  0.0129 -0.6660
14293TIP3   OH264293   0.807   4.271   4.029  0.0942 -0.0724 -0.1359
14293TIP3    H164294   0.755   4.241   3.955  1.1149 -0.0996 -0.8508
14293TIP3    H264295   0.824   4.363   4.012 -1.0729  0.3636  0.9116
14294TIP3   OH264296   6.396   0.043  13.173  0.0265  0.1483 -0.2508
14294TIP3    H164297   6.484   0.079  13.173  0.4689 -0.8425 -1.8024
14294TIP3    H264298   6.407  -0.048  13.199 -0.7445  0.3752  0.9680
14295TIP3   OH264299   1.804   1.727   2.762  0.0300  0.0026 -0.3230
14295TIP3    H164300   1.756   1.644   2.759  0.2740 -0.3725  2.8683
14295TIP3    H264301   1.895   1.701   2.774  0.5392  0.7737 -2.1458
14296TIP3   OH264302   6.537   5.524   5.907  0.0087  0.4521  0.5111
14296TIP3    H164303   6.463   5.561   5.859  0.8106  1.1904 -0.2017
14296TIP3    H264304   6.603   5.593   5.905  1.0649 -0.5346  0.3078
14297TIP3   OH264305   5.055   1.639  15.745 -0.0305  0.1268 -0.4301
14297TIP3    H164306   5.008   1.708  15.698  0.5242  2.5371  2.2169
14297TIP3    H264307   5.147   1.663  15.735  0.2609 -1.0223 -0.5608
14298TIP3   OH264308   5.737   4.636  14.682  0.5327 -0.1047  0.4363
14298TIP3    H164309   5.672   4.640  14.612  1.4637 -2.4987 -0.6541
14298TIP3    H264310   5.820   4.657  14.639  0.6551  2.3255  1.6897
14299TIP3   OH264311   4.174   2.879   2.608  0.3561  0.2798  0.0741
14299TIP3    H164312   4.130   2.796   2.626  0.3644  0.1249 -0.6040
14299TIP3    H264313   4.254   2.855   2.562  1.2360  0.5557  1.4186
14300TIP3   OH264314   0.987   6.205  16.912  0.3583  0.1771 -0.1742
14300TIP3    H164315   0.961   6.275  16.971  1.1975 -0.1088  0.5528
14300TIP3    H264316   0.906   6.158  16.893 -0.2447  1.4043 -0.7890
14301TIP3   OH264317   3.371   0.857   3.267 -0.4492  0.9416  0.4451
14301TIP3    H164318   3.402   0.926   3.327 -0.3430  0.6673  0.7074
14301TIP3    H264319   3.291   0.824   3.308 -0.2483  0.5905  0.5625
14302TIP3   OH264320   0.323   4.050  11.142 -0.2250 -0.1821 -0.4189
14302TIP3    H164321   0.239   4.091  11.166  0.7473  1.2649  0.6568
14302TIP3    H264322   0.305   3.956  11.146 -1.3050  0.0572  1.7841
14303TIP3   OH264323   3.795   1.294  16.064  0.0533 -0.1769 -0.3982
14303TIP3    H164324   3.821   1.372  16.016 -0.5652 -0.4699 -1.2391
14303TIP3    H264325   3.701   1.306  16.080  0.2057 -0.1876  0.5474
14304TIP3   OH264326   2.747   6.147   6.587 -0.3954 -0.6181  0.4025
14304TIP3    H164327   2.658   6.182   6.592 -0.0129  0.2299  1.7643
14304TIP3    H264328   2.794   6.210   6.532 -0.3157 -0.3215  0.8043
14305TIP3   OH264329   5.392   6.276   3.419  0.6766  0.2656 -0.2014
14305TIP3    H164330   5.397   6.368   3.442 -0.5626  0.8485 -2.0203
14305TIP3    H264331   5.326   6.239   3.478  0.9906  0.5999  0.3573
14306TIP3   OH264332   4.233   6.159  15.034 -0.2910  0.8571  0.7275
14306TIP3    H164333   4.249   6.135  15.126 -1.7088 -0.1428  0.7410
14306TIP3    H264334   4.141   6.138  15.020  0.1540  0.0761 -1.2233
14307TIP3   OH264335   4.017   4.620  12.380 -0.1003 -0.3904 -0.3587
14307TIP3    H164336   4.015   4.599  12.474  2.5594 -1.0038 -0.3641
14307TIP3    H264337   3.928   4.652  12.361 -0.9077 -0.8528  2.2028
14308TIP3   OH264338   1.010   3.913   4.947  0.4837  0.0479 -0.5630
14308TIP3    H164339   1.054   3.960   4.876  2.3238  1.2437  1.2661
14308TIP3    H264340   0.930   3.963   4.963 -0.3626 -0.6808 -2.2270
14309TIP3   OH264341   3.844   4.528  16.244  0.3378  0.0802 -0.2614
14309TIP3    H164342   3.815   4.614  16.275  0.4482  0.0538 -0.0789
14309TIP3    H264343   3.886   4.545  16.160  1.1472  0.3329  0.1795
14310TIP3   OH264344   2.575   0.056  13.413  0.1066  0.0097  0.3109
14310TIP3    H164345   2.494   0.044  13.364 -0.3339  0.6976  0.8587
14310TIP3    H264346   2.547   0.068  13.504  0.8500 -0.1717  0.5751
14311TIP3   OH264347   4.155   5.132   5.146  0.4589 -0.4047  0.6441
14311TIP3    H164348   4.185   5.049   5.111  0.9600  0.1482 -0.2785
14311TIP3    H264349   4.220   5.196   5.116 -1.3503  0.7662 -1.0484
14312TIP3   OH264350   1.805   4.275   5.125  0.4582  0.2275  0.3210
14312TIP3    H164351   1.837   4.277   5.035  0.0426  0.5733  0.1837
14312TIP3    H264352   1.767   4.361   5.140 -1.8113 -0.6686 -0.0164
14313TIP3   OH264353   3.995   6.748   0.568 -0.1026  0.6292  0.6898
14313TIP3    H164354   3.964   6.669   0.613  0.1949  0.3447  0.4031
14313TIP3    H264355   3.922   6.772   0.511  0.4993 -0.5527 -0.6448
14314TIP3   OH264356   5.864   5.100   0.880 -0.7002 -0.0288 -0.1929
14314TIP3    H164357   5.886   5.032   0.943 -1.6520 -1.4208 -1.3039
14314TIP3    H264358   5.904   5.180   0.916  1.4971 -1.3565  0.5446
14315TIP3   OH264359   0.261   5.107   4.428 -0.2993  0.0867  0.2664
14315TIP3    H164360   0.309   5.166   4.485  0.4924 -1.5108  1.3101
14315TIP3    H264361   0.306   5.113   4.343  1.4538 -0.9770  1.0803
14316TIP3   OH264362   3.878   1.686   5.674  0.3340 -0.2269  0.0733
14316TIP3    H164363   3.836   1.601   5.657  0.8813 -0.9779  2.1065
14316TIP3    H264364   3.806   1.741   5.705 -0.0473  0.1178 -1.3701
14317TIP3   OH264365   4.152   0.091   6.512 -0.2722  0.2305  0.3474
14317TIP3    H164366   4.159   0.076   6.606 -1.7224 -0.1106  0.4285
14317TIP3    H264367   4.093   0.022   6.481  1.0232 -0.3335 -1.0155
14318TIP3   OH264368   4.546   3.997   2.900  0.4249  0.1704 -0.1248
14318TIP3    H164369   4.466   4.049   2.910  0.5737  0.3293  0.2794
14318TIP3    H264370   4.528   3.915   2.946  0.3806  0.0726 -0.3125
14319TIP3   OH264371   3.619   3.423  14.713  0.4864  0.2517 -0.7193
14319TIP3    H164372   3.601   3.421  14.619 -1.4423  1.6904 -0.4365
14319TIP3    H264373   3.632   3.516  14.733 -2.0242  0.3403  0.8882
14320TIP3   OH264374   6.588   5.653   4.431 -0.5607 -0.0092  0.1804
14320TIP3    H164375   6.645   5.687   4.362 -0.3722  1.9593  1.2453
14320TIP3    H264376   6.648   5.612   4.494 -0.7305 -1.7824 -0.7423
14321TIP3   OH264377   5.480   3.328   2.510  0.3685  0.0738 -0.4383
14321TIP3    H164378   5.548   3.388   2.479 -1.3275  1.9356 -0.7323
14321TIP3    H264379   5.422   3.315   2.435 -0.4480 -0.2549  0.2316
14322TIP3   OH264380   5.910   5.307   1.156 -0.1659  0.0786 -0.6283
14322TIP3    H164381   5.881   5.398   1.163 -1.5313 -0.3235 -0.7891
14322TIP3    H264382   5.883   5.267   1.238 -0.0036 -0.3088 -0.7612
14323TIP3   OH264383   2.201   0.683  15.247  0.1706 -0.8061  0.1682
14323TIP3    H164384   2.159   0.627  15.181 -0.1906 -0.2080 -0.1156
14323TIP3    H264385   2.276   0.721  15.202  0.5804 -1.2726  0.4459
14324TIP3   OH264386   0.541   0.371   2.053  0.2410 -0.1877  0.3291
14324TIP3    H164387   0.469   0.377   2.116  0.7954  0.5863  0.9162
14324TIP3    H264388   0.503   0.326   1.977 -1.6231  2.4668 -0.4536
14325TIP3   OH264389   4.308   6.159  13.423  0.1414 -0.3041  0.1153
14325TIP3    H164390   4.351   6.133  13.505  0.0704 -1.6681 -0.2482
14325TIP3    H264391   4.247   6.087  13.405 -0.7251  0.5574 -0.5134
14326TIP3   OH264392   2.775   3.851  13.884  0.2455  0.1554 -0.0731
14326TIP3    H164393   2.788   3.923  13.947  1.2014 -0.1227  0.0643
14326TIP3    H264394   2.768   3.895  13.799 -0.6767  0.5059  0.1632
14327TIP3   OH264395   5.832   4.806   0.356 -0.0874  0.7721 -0.0479
14327TIP3    H164396   5.882   4.837   0.281  0.2098  1.8284  0.5602
14327TIP3    H264397   5.754   4.861   0.357 -0.1411  0.6920  0.3501
14328TIP3   OH264398   2.062   5.211   4.749  0.1312 -0.2602  0.0135
14328TIP3    H164399   2.084   5.217   4.842  1.3904 -0.5071 -0.2514
14328TIP3    H264400   2.140   5.240   4.703 -1.1665  1.9264 -0.9985
14329TIP3   OH264401   3.374   5.525  13.030 -0.5569  1.1426  0.6461
14329TIP3    H164402   3.427   5.605  13.034  1.2132  0.0964 -0.3206
14329TIP3    H264403   3.328   5.531  12.946  1.0236  0.3552 -0.3271
14330TIP3   OH264404   4.070   3.146   3.607  0.0546 -0.3733 -0.6129
14330TIP3    H164405   4.088   3.052   3.598 -0.5269 -0.5439 -0.0044
14330TIP3    H264406   4.049   3.158   3.699  2.9307  0.8493  0.0088
14331TIP3   OH264407   4.900   5.569  15.805  0.0933  0.3112  0.3187
14331TIP3    H164408   4.909   5.664  15.794 -1.8207  0.6919  1.5805
14331TIP3    H264409   4.980   5.542  15.850  0.5262  1.3549  0.2068
14332TIP3   OH264410   3.518   1.115  10.813  0.1753 -0.7521 -0.0010
14332TIP3    H164411   3.601   1.127  10.860 -1.7734 -0.1502  3.6639
14332TIP3    H264412   3.482   1.203  10.807 -1.2649 -1.2563  0.7782
14333TIP3   OH264413   6.233   6.176  14.963  0.0008 -0.2833 -0.2746
14333TIP3    H164414   6.251   6.265  14.994 -1.9635  0.4664 -1.1088
14333TIP3    H264415   6.319   6.134  14.959  0.9888  1.5944  0.0486
14334TIP3   OH264416   5.334   4.762  12.554 -0.6384 -0.0011  0.4273
14334TIP3    H164417   5.349   4.829  12.488  0.3090  0.5824  1.2100
14334TIP3    H264418   5.256   4.716  12.523  0.4854 -0.5777 -1.7486
14335TIP3   OH264419   1.683   1.822   4.222 -0.2149 -0.5774  0.8794
14335TIP3    H164420   1.732   1.822   4.304 -1.0266 -1.1405  1.3850
14335TIP3    H264421   1.591   1.835   4.249 -0.6801 -2.2498  0.2080
14336TIP3   OH264422   0.575   5.866   2.624  0.4491  0.3046 -0.3863
14336TIP3    H164423   0.501   5.925   2.608 -0.8137 -0.7446  1.2050
14336TIP3    H264424   0.544   5.780   2.599  1.5782 -0.0026 -0.8079
14337TIP3   OH264425   2.308   2.641  11.183 -0.0061  0.0596  0.5413
14337TIP3    H164426   2.387   2.676  11.142  0.4482 -0.9634  0.5254
14337TIP3    H264427   2.248   2.624  11.110  0.3671 -0.6822  0.4098
14338TIP3   OH264428   3.756   6.431   5.098 -0.2153 -0.3775  0.1662
14338TIP3    H164429   3.715   6.488   5.163  1.9025  0.4033  0.9018
14338TIP3    H264430   3.684   6.404   5.041 -1.5702  1.7248  0.7537
14339TIP3   OH264431   6.193   5.383   6.117  0.5965  0.6322  0.3839
14339TIP3    H164432   6.150   5.432   6.187 -1.0259  0.6151 -0.5423
14339TIP3    H264433   6.148   5.411   6.037 -0.3682 -2.2310 -0.2184
14340TIP3   OH264434   0.810   5.377   3.528 -0.2038 -0.6130 -0.1423
14340TIP3    H164435   0.847   5.401   3.443 -1.2113  0.3787 -0.3272
14340TIP3    H264436   0.886   5.354   3.582  0.7391  1.5350 -0.4372
14341TIP3   OH264437   2.651   0.773  15.601 -0.5873  0.2700  0.1412
14341TIP3    H164438   2.680   0.700  15.547 -1.2710 -0.5855  0.8757
14341TIP3    H264439   2.724   0.790  15.660 -0.3071  0.3951 -0.2391
14342TIP3   OH264440   1.551   3.841   5.278  0.1657  0.2015  0.2700
14342TIP3    H164441   1.603   3.868   5.203  1.0542 -1.9582  0.0201
14342TIP3    H264442   1.596   3.763   5.311 -2.4529 -1.3190  0.5312
14343TIP3   OH264443   4.973   0.283  14.413 -0.1276 -0.4448  0.1646
14343TIP3    H164444   5.057   0.328  14.425 -0.3478  0.5820 -1.6737
14343TIP3    H264445   4.985   0.232  14.333 -1.2076 -0.4012 -0.0363
14344TIP3   OH264446   0.579   2.262  15.964 -0.6913 -0.0238 -0.4109
14344TIP3    H164447   0.584   2.288  16.056  0.7804 -1.4379 -0.0553
14344TIP3    H264448   0.485   2.249  15.948 -1.0344  0.9620  0.6654
14345TIP3   OH264449   6.564   1.503   2.269 -0.3492  0.0612 -0.7944
14345TIP3    H164450   6.659   1.507   2.261 -0.4962  2.3040 -2.4363
14345TIP3    H264451   6.539   1.586   2.309 -1.6190 -0.4722 -0.4396
14346TIP3   OH264452   4.736   3.181   6.523 -0.0851  0.4175 -0.2949
14346TIP3    H164453   4.809   3.191   6.462  0.2667  1.2635  0.2479
14346TIP3    H264454   4.727   3.087   6.534  0.5655  0.2872 -0.7917
14347TIP3   OH264455   4.866   2.698   5.295 -0.4933  0.5896 -0.3451
14347TIP3    H164456   4.961   2.708   5.299 -0.4565  0.5803 -1.1812
14347TIP3    H264457   4.842   2.667   5.383  0.1812  1.3079  0.1152
14348TIP3   OH264458   5.235   0.092  17.078  0.1322  0.3189 -0.0297
14348TIP3    H164459   5.205   0.174  17.038 -2.4233  0.6837  2.3694
14348TIP3    H264460   5.259   0.115  17.167 -1.9443 -1.6811  1.1514
14349TIP3   OH264461   1.979   3.537   3.586  0.2026  0.0050  0.1251
14349TIP3    H164462   1.949   3.567   3.500  0.2677 -0.0019  0.1002
14349TIP3    H264463   2.074   3.534   3.579  0.4594  2.9902  1.1835
14350TIP3   OH264464   1.392   2.760  15.720 -0.1206  0.2109  0.0036
14350TIP3    H164465   1.365   2.737  15.631 -0.0202 -0.0577  0.0409
14350TIP3    H264466   1.312   2.792  15.761 -0.1908  0.2396 -0.1529
14351TIP3   OH264467   2.803   0.273   3.202 -0.3295 -0.9141 -0.0341
14351TIP3    H164468   2.744   0.297   3.131 -1.2928  0.4057  1.1568
14351TIP3    H264469   2.745   0.258   3.277  0.7441 -1.1592  0.7634
14352TIP3   OH264470   2.055   2.426  14.064  0.9247 -0.5965 -0.2737
14352TIP3    H164471   2.117   2.370  14.017  0.4715 -0.7230 -0.7238
14352TIP3    H264472   2.104   2.506  14.081  0.3273  0.5343 -3.3074
14353TIP3   OH264473   1.501   3.193  14.994 -0.3088 -0.2939  0.4115
14353TIP3    H164474   1.511   3.125  15.060  0.9473 -0.2981  0.2277
14353TIP3    H264475   1.417   3.234  15.015 -0.3856 -0.9280  1.4083
14354TIP3   OH264476   1.422   1.623  11.073  0.3728 -0.0312 -0.6739
14354TIP3    H164477   1.484   1.678  11.025 -0.3190  0.8091 -0.6516
14354TIP3    H264478   1.381   1.569  11.006  1.8879 -1.3887 -0.5446
14355TIP3   OH264479   2.793   0.561   3.814  0.2904  0.4163 -0.6232
14355TIP3    H164480   2.767   0.504   3.886  2.0147  0.1263 -0.1961
14355TIP3    H264481   2.817   0.644   3.856  1.3666  0.2249 -0.8258
14356TIP3   OH264482   3.898   1.395   3.124  0.3980  0.4577  0.4141
14356TIP3    H164483   3.821   1.446   3.146  0.3896  0.7409 -0.2396
14356TIP3    H264484   3.944   1.448   3.059  0.5431 -0.2293 -0.0545
14357TIP3   OH264485   1.837   5.659  13.372 -0.1105 -0.6707 -0.3159
14357TIP3    H164486   1.859   5.606  13.449 -0.3823 -0.6166 -0.2002
14357TIP3    H264487   1.920   5.701  13.347 -0.2235  0.1056  0.5613
14358TIP3   OH264488   6.084   4.610  16.338 -0.6280  0.4503 -0.3762
14358TIP3    H164489   6.021   4.611  16.410  0.1104  1.1748  0.2788
14358TIP3    H264490   6.057   4.682  16.282 -0.5829  0.5596 -0.2604
14359TIP3   OH264491   3.572   2.368  14.112 -0.6380 -0.1678 -0.2221
14359TIP3    H164492   3.663   2.356  14.140 -1.1797 -1.7371  1.0224
14359TIP3    H264493   3.564   2.311  14.035  0.1894  2.2815 -2.2388
14360TIP3   OH264494   1.959   0.838   3.160 -0.5291 -0.1251  0.0892
14360TIP3    H164495   1.981   0.756   3.116 -1.5898  0.0091 -0.7534
14360TIP3    H264496   2.014   0.839   3.238  1.2380 -0.5026 -1.0941
14361TIP3   OH264497   1.857   6.445  16.941 -0.2932  0.2078  0.3788
14361TIP3    H164498   1.872   6.531  16.981  1.2191 -0.1958  0.7576
14361TIP3    H264499   1.786   6.460  16.879  0.7562  2.0440 -0.4911
14362TIP3   OH264500   3.628   6.339   2.667 -0.6773  0.2991 -0.2204
14362TIP3    H164501   3.601   6.310   2.580 -0.1943  0.2724 -0.3679
14362TIP3    H264502   3.561   6.305   2.726  0.4434 -2.1162 -0.2390
14363TIP3   OH264503   2.192   3.028   0.148  0.8309  0.2523  0.1855
14363TIP3    H164504   2.200   3.010   0.242  0.9060  2.1474  0.5667
14363TIP3    H264505   2.098   3.029   0.132  0.7484  1.6372  0.6265
14364TIP3   OH264506   6.535   1.401   4.191  0.4108 -0.2810  0.1336
14364TIP3    H164507   6.462   1.462   4.175  0.9323 -0.4562 -3.9634
14364TIP3    H264508   6.611   1.445   4.152  1.7131 -1.7711  0.8984
14365TIP3   OH264509   3.283   3.597  15.758  0.0005  0.3307 -0.2207
14365TIP3    H164510   3.310   3.671  15.704 -1.9750  0.0483 -1.7168
14365TIP3    H264511   3.237   3.636  15.832 -0.9695  0.6315 -0.9664
14366TIP3   OH264512   4.033   4.058   2.240  0.1062  1.0996 -0.3040
14366TIP3    H164513   4.077   3.997   2.181 -0.3318  1.4683 -1.0162
14366TIP3    H264514   4.010   4.133   2.185 -1.4200  0.9132  0.0548
14367TIP3   OH264515   0.716   1.263   1.774  0.4590  0.2706 -0.1216
14367TIP3    H164516   0.695   1.336   1.715  1.3820  1.0218  0.4608
14367TIP3    H264517   0.758   1.198   1.718 -2.5720 -0.9546 -1.1756
14368TIP3   OH264518   3.177   1.327   2.831 -0.4516 -0.3231  0.3455
14368TIP3    H164519   3.118   1.396   2.863 -1.5816 -0.9363 -0.3510
14368TIP3    H264520   3.248   1.375   2.788 -0.6082  0.4221  0.8837
14369TIP3   OH264521   4.069   6.390   6.005  0.0761 -0.1412  0.1138
14369TIP3    H164522   4.052   6.344   6.087  1.1537 -0.2034  0.3108
14369TIP3    H264523   4.105   6.324   5.946 -3.0172 -0.7355 -1.3131
14370TIP3   OH264524   5.537   1.695  15.690  0.9966 -0.2968 -0.1880
14370TIP3    H164525   5.535   1.603  15.716 -3.1176 -0.4416 -0.4018
14370TIP3    H264526   5.545   1.693  15.594  0.9301 -0.4584 -0.1912
14371TIP3   OH264527   1.126   2.742   3.808 -0.2686 -0.1136 -0.1506
14371TIP3    H164528   1.191   2.811   3.804 -0.3664  0.1154  1.4446
14371TIP3    H264529   1.149   2.692   3.886 -1.3331 -0.7138 -0.1970
14372TIP3   OH264530   3.687   0.043   1.770 -0.0664  0.0393  0.0290
14372TIP3    H164531   3.768   0.081   1.736  0.1173  1.4125  1.8518
14372TIP3    H264532   3.634   0.118   1.796 -2.4126 -0.7917 -2.0399
14373TIP3   OH264533   5.167   6.459   4.042  0.0755 -0.2703  0.9357
14373TIP3    H164534   5.193   6.492   4.128  0.3717  0.2052  0.6662
14373TIP3    H264535   5.079   6.492   4.028  1.2101  2.4826 -0.3581
14374TIP3   OH264536   4.249   4.767  15.946 -0.9094 -0.2552  0.4071
14374TIP3    H164537   4.325   4.814  15.979 -1.7548  1.4571  0.0360
14374TIP3    H264538   4.271   4.744  15.856 -0.7356  0.0489  0.3704
14375TIP3   OH264539   0.583   1.660  13.701  0.4168  0.8883  0.2914
14375TIP3    H164540   0.645   1.653  13.774  1.5837 -1.0465 -0.7726
14375TIP3    H264541   0.534   1.740  13.718  1.9748  1.5269  2.1520
14376TIP3   OH264542   2.653   1.015  14.448 -0.4811  0.0397 -0.7338
14376TIP3    H164543   2.603   1.011  14.529 -0.0437  2.8472 -0.2430
14376TIP3    H264544   2.615   0.946  14.394 -1.5253 -1.1816  1.4182
14377TIP3   OH264545   0.902   2.942  10.877 -0.4387  0.2178  0.1287
14377TIP3    H164546   0.913   2.966  10.785  0.1994 -1.0973 -0.1642
14377TIP3    H264547   0.807   2.941  10.891 -0.6151 -1.1086 -0.9637
14378TIP3   OH264548   2.787   4.669  16.348 -0.9256  0.1236  0.1757
14378TIP3    H164549   2.766   4.756  16.314  0.4092  0.4675  0.1808
14378TIP3    H264550   2.793   4.613  16.270 -0.4243  0.3475  0.0503
14379TIP3   OH264551   5.197   2.271   4.206  0.2767  0.1899  0.2639
14379TIP3    H164552   5.289   2.256   4.226 -0.2699 -0.1201  2.8260
14379TIP3    H264553   5.150   2.246   4.285 -1.9310  1.5450 -0.5087
14380TIP3   OH264554   3.792   0.626  17.004  0.5257 -0.1906  0.9402
14380TIP3    H164555   3.883   0.598  16.997  1.1855  2.0992 -0.8539
14380TIP3    H264556   3.744   0.546  17.025  2.5659 -2.0971 -1.1068
14381TIP3   OH264557   2.428   2.135   1.243  0.2191  0.3423  0.2028
14381TIP3    H164558   2.440   2.040   1.251  0.2016  0.4806  2.6005
14381TIP3    H264559   2.516   2.168   1.224  0.6900  0.0159  1.7171
14382TIP3   OH264560   5.163   0.238  11.622 -0.1844  0.5136  0.5980
14382TIP3    H164561   5.177   0.179  11.548 -1.1176  1.6697 -0.5413
14382TIP3    H264562   5.072   0.266  11.613  0.2397  2.1333  1.1102
14383TIP3   OH264563   5.574   3.913  11.462  0.3852  0.2938  0.5765
14383TIP3    H164564   5.618   3.992  11.495  1.4798 -0.1799  0.2923
14383TIP3    H264565   5.535   3.874  11.540  1.0332  0.3838  0.9602
14384TIP3   OH264566   0.323   2.433   6.079 -0.2583 -0.0891 -0.1474
14384TIP3    H164567   0.237   2.395   6.098  0.0627 -1.1362 -0.7207
14384TIP3    H264568   0.383   2.359   6.079  0.7311  0.6747  0.6141
14385TIP3   OH264569   1.839   5.667   3.888 -0.4675 -1.0122 -0.0105
14385TIP3    H164570   1.853   5.705   3.974 -0.8716  0.6163 -0.6357
14385TIP3    H264571   1.746   5.648   3.884 -0.7453  0.3536 -0.6196
14386TIP3   OH264572   4.200   0.062   1.578 -0.0023  0.7478  0.8817
14386TIP3    H164573   4.143   0.138   1.591  1.3643  1.7836  1.0959
14386TIP3    H264574   4.231   0.040   1.665 -0.0233  0.2517  0.7622
14387TIP3   OH264575   6.091   1.084   3.968  1.3528 -0.1667  0.0830
14387TIP3    H164576   6.087   1.105   3.875  0.0198 -0.2428  0.1031
14387TIP3    H264577   6.103   1.168   4.012 -0.9181  0.2910 -0.0182
14388TIP3   OH264578   4.635   1.923  14.763  0.2913  0.3295  0.1204
14388TIP3    H164579   4.636   1.850  14.700  3.0411  0.3452  0.0009
14388TIP3    H264580   4.686   1.992  14.720 -1.2284  1.8979  0.7444
14389TIP3   OH264581   0.378   1.213   1.495 -0.7676  0.2104 -0.1539
14389TIP3    H164582   0.400   1.230   1.403 -1.9041  2.2446 -0.1185
14389TIP3    H264583   0.382   1.299   1.536 -0.6972 -0.6051  1.6340
14390TIP3   OH264584   4.111   1.217  16.572  0.0019 -0.5712 -0.7507
14390TIP3    H164585   4.154   1.189  16.492  1.5327 -1.7103  0.3937
14390TIP3    H264586   4.099   1.136  16.622 -0.0169  0.2181  0.5674
14391TIP3   OH264587   5.633   1.145  11.204 -0.5752 -0.8271 -0.2224
14391TIP3    H164588   5.658   1.149  11.112 -0.3394  0.0720 -0.1310
14391TIP3    H264589   5.542   1.174  11.205  0.1300  1.6360  0.0669
14392TIP3   OH264590   2.322   5.473  11.214  0.0432  0.0478 -0.2441
14392TIP3    H164591   2.323   5.461  11.309  2.5847 -2.4569 -0.4524
14392TIP3    H264592   2.295   5.388  11.180 -2.6247  1.3887 -1.8682
14393TIP3   OH264593   3.453   6.423  12.347 -0.0952  0.0215 -0.0534
14393TIP3    H164594   3.427   6.513  12.368  3.8697  1.0087  1.5202
14393TIP3    H264595   3.490   6.429  12.259  1.9047  0.4745  0.7581
14394TIP3   OH264596   4.404   2.055  14.001 -0.0738  0.4063 -0.0653
14394TIP3    H164597   4.338   1.995  14.035  0.5042  0.4338  1.1829
14394TIP3    H264598   4.377   2.141  14.034  0.6015  0.4049  0.5320
14395TIP3   OH264599   3.953   1.158  14.029  0.4499  0.5865  0.0387
14395TIP3    H164600   3.991   1.112  14.104 -0.8361 -1.2079 -0.3479
14395TIP3    H264601   3.859   1.149  14.041  0.2195  0.2967 -1.7457
14396TIP3   OH264602   3.301   1.647  15.704  0.6966 -0.0905  0.3558
14396TIP3    H164603   3.384   1.636  15.657 -1.0876 -1.9850 -2.5911
14396TIP3    H264604   3.286   1.562  15.746 -1.0795 -0.7657 -1.5398
14397TIP3   OH264605   6.593   5.168  14.637  0.0964  0.0533  0.1706
14397TIP3    H164606   6.553   5.139  14.719  1.7698 -1.1408  0.6171
14397TIP3    H264607   6.686   5.178  14.658  0.2377  1.7249 -1.0903
14398TIP3   OH264608   5.849   3.431   5.304 -0.1316 -0.4225  0.2885
14398TIP3    H164609   5.766   3.440   5.353  0.4239 -2.9188  1.8806
14398TIP3    H264610   5.822   3.409   5.215 -1.1607  2.8612 -0.3350
14399TIP3   OH264611   3.568   4.952  17.234 -0.4377 -0.7085 -0.3080
14399TIP3    H164612   3.527   4.881  17.185 -0.6891 -0.8572  0.1105
14399TIP3    H264613   3.496   4.991  17.284 -0.0212 -1.2148  0.7199
14400TIP3   OH264614   0.349   1.270  15.312 -0.2429  0.1690  0.3569
14400TIP3    H164615   0.352   1.203  15.244  0.3250 -0.5686  1.0862
14400TIP3    H264616   0.411   1.240  15.378 -1.5334  0.3237  1.7047
14401TIP3   OH264617   1.811   2.624   1.811 -0.7295 -0.1533 -0.0698
14401TIP3    H164618   1.731   2.589   1.849 -0.7576  2.3344  2.5194
14401TIP3    H264619   1.801   2.719   1.816  1.4311  0.2844 -1.8700
14402TIP3   OH264620   6.136   5.619  15.874  0.5572 -0.2274  0.1779
14402TIP3    H164621   6.189   5.560  15.927  0.2719 -0.5418  0.1199
14402TIP3    H264622   6.072   5.562  15.831  1.0707 -0.0342 -0.8649
14403TIP3   OH264623   5.941   1.780  15.107  0.0435  0.4588  0.2934
14403TIP3    H164624   6.028   1.756  15.138  1.6464  0.8852 -3.3860
14403TIP3    H264625   5.929   1.730  15.026 -2.1156  2.1921 -0.5659
14404TIP3   OH264626   0.187   2.951   4.340 -0.2681  0.2336  1.2408
14404TIP3    H164627   0.093   2.961   4.329 -0.4302 -0.2246  2.0799
14404TIP3    H264628   0.224   3.032   4.305 -0.9353  0.2398  0.5190
14405TIP3   OH264629   4.917   1.190  14.401  0.7713  0.0461 -0.3704
14405TIP3    H164630   4.854   1.249  14.443 -0.7730 -0.3164 -2.0589
14405TIP3    H264631   5.001   1.214  14.440  0.1497  3.0838 -0.6577
14406TIP3   OH264632   5.980   2.347  10.965  0.0456 -0.8465 -0.1901
14406TIP3    H164633   6.071   2.374  10.978  0.3835 -2.2056  0.5199
14406TIP3    H264634   5.939   2.359  11.051 -0.0295 -1.6672 -0.1032
14407TIP3   OH264635   3.262   0.815   5.688  0.2746 -0.3138 -0.3039
14407TIP3    H164636   3.230   0.810   5.778  1.4340  1.5815  0.2628
14407TIP3    H264637   3.354   0.840   5.697  0.2179  0.6350 -2.0215
14408TIP3   OH264638   0.603   1.310  14.946 -0.0867  0.5139 -0.0112
14408TIP3    H164639   0.524   1.363  14.935 -0.1205  0.2046 -1.4025
14408TIP3    H264640   0.633   1.329  15.035  0.1939  3.2662 -0.6087
14409TIP3   OH264641   3.784   3.082  13.213 -0.7706  0.4519 -0.5707
14409TIP3    H164642   3.741   3.014  13.265  0.0220 -0.9933 -1.7236
14409TIP3    H264643   3.860   3.108  13.266 -0.4218 -0.4228 -0.6269
14410TIP3   OH264644   0.348   4.479   5.102  0.2558  0.2101  1.0430
14410TIP3    H164645   0.416   4.493   5.168  0.7133 -1.2873  0.9243
14410TIP3    H264646   0.388   4.422   5.037 -0.5008  0.8856 -0.0617
14411TIP3   OH264647   3.032   6.384   4.208  0.0208 -0.8761 -0.1138
14411TIP3    H164648   3.022   6.472   4.172 -1.6312  0.5695  3.4099
14411TIP3    H264649   3.123   6.381   4.239  0.3429 -0.7747 -1.0235
14412TIP3   OH264650   3.462   3.592  10.826  0.6969  0.0578  0.5543
14412TIP3    H164651   3.474   3.659  10.759  0.4307 -0.2785  0.1636
14412TIP3    H264652   3.522   3.522  10.800  3.1189  1.2669  2.5107
14413TIP3   OH264653   2.635   3.415   0.568 -0.4820  0.3464 -0.0105
14413TIP3    H164654   2.725   3.389   0.549 -1.2851 -2.1237 -0.9101
14413TIP3    H264655   2.614   3.480   0.501  0.3048  0.1505 -0.4556
14414TIP3   OH264656   2.195   6.626  14.765 -0.1580 -0.0286  0.2922
14414TIP3    H164657   2.115   6.667  14.731  0.7683 -0.3849 -2.5063
14414TIP3    H264658   2.261   6.695  14.761  0.1813 -0.3352  0.5736
14415TIP3   OH264659   4.260   5.421  14.356 -0.3832 -0.2119 -0.5395
14415TIP3    H164660   4.208   5.486  14.404 -0.2478 -1.0151  0.7242
14415TIP3    H264661   4.199   5.382  14.294 -1.0757 -0.5553  0.3506
14416TIP3   OH264662   3.043   6.589  11.408 -0.2206 -0.1020 -0.6719
14416TIP3    H164663   3.045   6.657  11.340  1.1014  1.0046  0.4228
14416TIP3    H264664   2.984   6.623  11.475 -0.5261 -0.6105 -0.6778
14417TIP3   OH264665   5.538   5.345   2.222 -0.5647 -0.1594  0.0188
14417TIP3    H164666   5.454   5.377   2.253 -0.3519 -1.1827  1.7991
14417TIP3    H264667   5.601   5.413   2.246 -0.3977 -0.9560  1.9935
14418TIP3   OH264668   5.514   6.623   1.888  0.0695  0.5544  0.1163
14418TIP3    H164669   5.572   6.696   1.909 -0.5180  1.2158 -0.5111
14418TIP3    H264670   5.433   6.643   1.937 -1.1213  1.8299 -2.2079
14419TIP3   OH264671   0.966   2.330   1.678  0.6320  0.3333 -0.4483
14419TIP3    H164672   0.998   2.419   1.689 -0.3003  0.6400 -0.0986
14419TIP3    H264673   0.922   2.310   1.762  0.3648 -0.2475 -0.7194
14420TIP3   OH264674   4.064   3.070   6.003  0.0634 -0.1985  0.1903
14420TIP3    H164675   4.008   3.141   6.032  1.5799  1.1969 -0.1714
14420TIP3    H264676   4.105   3.037   6.084 -0.1744 -0.2717  0.2833
14421TIP3   OH264677   6.695   6.502  14.965 -0.2086  0.1190 -0.4589
14421TIP3    H164678   6.777   6.551  14.966 -0.0695 -0.0702  1.6532
14421TIP3    H264679   6.626   6.569  14.964 -0.1347  0.2936 -3.5103
14422TIP3   OH264680   3.585   0.078   4.554 -0.3128 -0.1542  0.4707
14422TIP3    H164681   3.560   0.153   4.609 -1.3128  1.3086 -1.8003
14422TIP3    H264682   3.679   0.069   4.567 -0.5649 -0.1298  2.6634
14423TIP3   OH264683   4.595   6.464   3.466 -0.0017 -0.1862  0.3315
14423TIP3    H164684   4.537   6.428   3.398  1.9144 -0.9074 -1.0323
14423TIP3    H264685   4.608   6.391   3.527  1.8200 -1.0887 -1.0306
14424TIP3   OH264686   3.178   6.022  15.636 -0.2570  0.7163  0.1673
14424TIP3    H164687   3.230   5.990  15.562 -2.7969 -1.9996 -0.6503
14424TIP3    H264688   3.122   6.090  15.598 -1.0107 -0.1342 -0.3069
14425TIP3   OH264689   6.002   1.634   1.912  0.1739 -0.5640 -0.3459
14425TIP3    H164690   6.037   1.555   1.953 -0.1650 -1.3152 -1.4566
14425TIP3    H264691   6.025   1.625   1.819  1.0501  1.1624 -0.3224
14426TIP3   OH264692   6.730   6.716   1.221  0.4991  0.1434  0.1323
14426TIP3    H164693   6.807   6.722   1.164 -0.0505  0.2922 -0.6019
14426TIP3    H264694   6.694   6.629   1.204  0.6695 -0.0442  0.7021
14427TIP3   OH264695   0.361   1.762  13.888  0.0109 -0.1049  0.2118
14427TIP3    H164696   0.300   1.740  13.818 -0.6558  0.2917  0.6561
14427TIP3    H264697   0.322   1.726  13.968 -0.0870  0.8768  0.6322
14428TIP3   OH264698   3.688   1.069  15.452 -0.9793  0.0930 -0.2016
14428TIP3    H164699   3.623   1.135  15.475 -0.9945  0.5118 -1.4178
14428TIP3    H264700   3.638   1.002  15.404 -0.7544 -0.2512  0.0375
14429TIP3   OH264701   2.593   0.296   2.321  0.1517  0.5149 -0.4753
14429TIP3    H164702   2.648   0.318   2.396 -2.3530  1.7486  1.1177
14429TIP3    H264703   2.599   0.200   2.315  1.9236  0.5587  0.0157
14430TIP3   OH264704   3.046   0.721  14.321  0.5584  0.5645 -1.4170
14430TIP3    H164705   2.996   0.718  14.239 -0.7366 -2.3273 -0.6657
14430TIP3    H264706   2.980   0.736  14.389  1.3115  0.8196 -0.7291
14431TIP3   OH264707   0.265   4.326  11.321 -0.0811  0.4107  0.2227
14431TIP3    H164708   0.199   4.355  11.259 -0.4857 -0.5206  0.1945
14431TIP3    H264709   0.325   4.400  11.330  0.0549  0.5235 -1.3696
14432TIP3   OH264710   4.238   5.527  11.468 -0.4755  0.2390  0.6931
14432TIP3    H164711   4.332   5.542  11.475 -0.8811  3.8863  0.6597
14432TIP3    H264712   4.219   5.538  11.375 -0.8968 -0.8380  0.6471
14433TIP3   OH264713   3.103   2.153   2.741  0.3098  0.0714 -0.3468
14433TIP3    H164714   3.072   2.072   2.702 -0.3964 -0.1361  0.6191
14433TIP3    H264715   3.194   2.136   2.763  0.0957 -0.5593  0.0832
14434TIP3   OH264716   4.189   4.718  11.552 -0.0833  0.1494 -0.1921
14434TIP3    H164717   4.117   4.734  11.491  0.6699  0.0096 -1.1324
14434TIP3    H264718   4.265   4.701  11.496  0.4965 -0.5660  0.7852
14435TIP3   OH264719   2.688   1.213   1.395  0.3674  0.3481 -0.1762
14435TIP3    H164720   2.764   1.174   1.352 -0.4488  0.1812 -1.5028
14435TIP3    H264721   2.645   1.265   1.327 -1.6305 -0.8852  0.0612
14436TIP3   OH264722   4.287   2.709   3.744  0.0310  0.3739  0.1369
14436TIP3    H164723   4.357   2.697   3.808  1.1325  2.9914 -0.4388
14436TIP3    H264724   4.237   2.783   3.777 -1.0543  0.0265 -0.6793
14437TIP3   OH264725   6.216   5.968   0.527  0.3023  0.2293  0.2967
14437TIP3    H164726   6.171   6.015   0.457 -0.1881  0.3652  0.6957
14437TIP3    H264727   6.248   5.888   0.485  0.6863  0.6657 -0.2584
14438TIP3   OH264728   2.895   1.851  13.753  0.1029  0.3414 -0.5104
14438TIP3    H164729   2.875   1.809  13.837  2.5661 -0.9937 -0.4802
14438TIP3    H264730   2.833   1.812  13.692  0.1763 -0.9095  0.1707
14439TIP3   OH264731   2.366   3.861   6.574  0.0713 -0.5000  0.0584
14439TIP3    H164732   2.421   3.787   6.598 -0.5555 -0.9115  0.2477
14439TIP3    H264733   2.428   3.928   6.544  0.8077 -0.4166  1.6321
14440TIP3   OH264734   0.356   5.646   2.028 -0.8407 -0.1784 -0.3508
14440TIP3    H164735   0.422   5.634   1.960 -1.5214  0.3335 -1.1259
14440TIP3    H264736   0.300   5.717   1.995 -1.2455  0.0053  0.6962
14441TIP3   OH264737   1.490   4.785  15.848  0.0239  0.0677 -0.0208
14441TIP3    H164738   1.421   4.790  15.781 -0.2121 -1.5171  0.0685
14441TIP3    H264739   1.570   4.811  15.802 -0.2366 -0.3910 -0.7525
14442TIP3   OH264740   4.375   3.383  13.207  0.2057  0.4775  0.4079
14442TIP3    H164741   4.426   3.309  13.172 -1.7220 -0.3625 -0.7647
14442TIP3    H264742   4.322   3.412  13.133 -0.9796  1.3499  1.5674
14443TIP3   OH264743   4.461   3.001  14.117  0.4484  0.1418 -0.1137
14443TIP3    H164744   4.425   3.089  14.106  0.5003 -0.1361 -3.3020
14443TIP3    H264745   4.514   2.986  14.039  0.2877 -2.8093  0.2257
14444TIP3   OH264746   1.851   2.286  14.183 -0.0758 -0.4452 -0.2942
14444TIP3    H164747   1.813   2.235  14.111 -1.1575 -0.2108  0.0869
14444TIP3    H264748   1.919   2.340  14.142 -0.3307 -0.6866 -1.0484
14445TIP3   OH264749   5.204   4.847  15.112  0.3101  0.1575  0.1706
14445TIP3    H164750   5.266   4.813  15.047  0.0372  1.8963 -1.0525
14445TIP3    H264751   5.252   4.842  15.195  1.3008 -0.5115 -0.4135
14446TIP3   OH264752   0.824   6.521   0.976 -0.1109  0.3564  0.4465
14446TIP3    H164753   0.887   6.493   0.909 -1.6301  1.2851 -1.4544
14446TIP3    H264754   0.879   6.558   1.046  1.4979  0.0138 -0.5694
14447TIP3   OH264755   4.381   3.969   0.256  0.3421 -0.2072  0.2288
14447TIP3    H164756   4.372   3.909   0.182  0.7263 -0.8903  0.7218
14447TIP3    H264757   4.456   3.935   0.305  0.9046  1.0011  0.2265
14448TIP3   OH264758   3.624   4.493   1.850 -0.0303 -0.1155  0.1940
14448TIP3    H164759   3.557   4.561   1.855  0.7604  0.8340 -1.5439
14448TIP3    H264760   3.690   4.527   1.790  0.1879 -2.5876 -1.1050
14449TIP3   OH264761   2.597   1.853  10.519 -0.1374  0.2937  0.1222
14449TIP3    H164762   2.677   1.834  10.568 -1.3068 -1.6920  1.4120
14449TIP3    H264763   2.569   1.939  10.551  0.7389  0.3923  0.6551
14450TIP3   OH264764   4.628   4.938   2.435  0.3428  0.4115  0.3640
14450TIP3    H164765   4.675   4.995   2.374  1.2800 -0.5550  0.1594
14450TIP3    H264766   4.696   4.887   2.478 -0.5088 -0.8800  0.2218
14451TIP3   OH264767   4.825   2.195   1.170 -0.6028 -0.0582 -0.1494
14451TIP3    H164768   4.897   2.179   1.110  0.9972  1.1647  1.3498
14451TIP3    H264769   4.780   2.110   1.177 -0.3861 -0.4029 -2.4143
14452TIP3   OH264770   0.156   1.446  15.400 -0.2911  0.2710 -0.0575
14452TIP3    H164771   0.234   1.395  15.378 -1.6197 -1.9488  0.0074
14452TIP3    H264772   0.162   1.459  15.495 -0.3468 -0.5542  0.0686
14453TIP3   OH264773   0.831   1.380  11.216 -0.3352 -0.0964 -0.5435
14453TIP3    H164774   0.926   1.379  11.202 -0.1695  1.6624  0.1166
14453TIP3    H264775   0.822   1.401  11.309 -1.3599  0.4408 -0.7533
14454TIP3   OH264776   6.593   0.261   3.899 -0.2537  0.2899 -0.0168
14454TIP3    H164777   6.650   0.202   3.950  2.5154  0.9059 -2.1640
14454TIP3    H264778   6.614   0.349   3.933  0.9275  0.6133 -1.4830
14455TIP3   OH264779   0.312   3.816  11.664 -0.4905  0.1390  0.0322
14455TIP3    H164780   0.267   3.781  11.587 -1.5505  0.3589  0.5415
14455TIP3    H264781   0.360   3.741  11.699  1.5169  0.4365 -1.8552
14456TIP3   OH264782   5.570   1.002  15.339  0.0575 -0.0628  0.1198
14456TIP3    H164783   5.507   0.988  15.269  0.4179  0.6336 -0.3565
14456TIP3    H264784   5.534   0.954  15.414 -0.7030 -0.2044 -0.3270
14457TIP3   OH264785   0.068   4.274   3.541 -0.0317  0.3245 -0.1629
14457TIP3    H164786   0.063   4.303   3.632  0.2657  0.6979 -0.2670
14457TIP3    H264787   0.116   4.191   3.545 -0.6918 -0.0506  0.1058
14458TIP3   OH264788   0.088   0.730  16.869  0.0466  0.7910 -0.2475
14458TIP3    H164789   0.159   0.677  16.832 -1.0854 -0.9558 -0.0544
14458TIP3    H264790   0.045   0.769  16.793  0.9622  1.5837 -0.3865
14459TIP3   OH264791   2.579   3.536   4.594 -0.1317 -0.0659 -0.3451
14459TIP3    H164792   2.579   3.493   4.679 -2.3801  0.3903 -0.0486
14459TIP3    H264793   2.617   3.622   4.609 -1.4044  0.3829  0.4526
14460TIP3   OH264794   5.508   1.184  12.609 -0.5914 -0.7913 -0.3904
14460TIP3    H164795   5.492   1.092  12.631 -0.9081 -0.6367  0.0391
14460TIP3    H264796   5.538   1.224  12.691  0.9575 -0.8174 -0.9136
14461TIP3   OH264797   3.882   0.442  14.088  0.0684  0.1639  0.8675
14461TIP3    H164798   3.817   0.504  14.120  1.1775  0.5954  2.4441
14461TIP3    H264799   3.925   0.409  14.167  1.7754 -0.0675 -0.0887
14462TIP3   OH264800   2.810   6.515  16.519  0.0384  0.2660  0.2097
14462TIP3    H164801   2.831   6.467  16.439 -1.4696  2.1483 -1.3995
14462TIP3    H264802   2.892   6.557  16.544  0.3408  0.3690 -0.8871
14463TIP3   OH264803   1.738   1.353   3.768  0.2559  0.3847 -0.4380
14463TIP3    H164804   1.754   1.407   3.690 -1.4573  0.0021 -1.1105
14463TIP3    H264805   1.696   1.274   3.734  2.2721 -1.2307  0.5770
14464TIP3   OH264806   2.223   6.389   2.408  0.5096  0.4404 -0.3157
14464TIP3    H164807   2.314   6.419   2.407  0.0431  1.9484 -0.4292
14464TIP3    H264808   2.175   6.460   2.450 -0.3801 -1.1338  1.4682
14465TIP3   OH264809   0.431   4.032   2.782 -0.2043  0.1759 -0.6141
14465TIP3    H164810   0.415   4.021   2.876  0.5047 -0.6797 -0.5846
14465TIP3    H264811   0.519   4.070   2.777 -0.0745 -0.1578 -0.9393
14466TIP3   OH264812   1.280   3.748   3.768  0.4293  0.2960 -0.1495
14466TIP3    H164813   1.340   3.816   3.738  0.4846  0.2237 -0.2014
14466TIP3    H264814   1.320   3.715   3.849  1.5207 -1.1711 -1.2515
14467TIP3   OH264815   0.413   3.119  13.756 -0.3356  0.4295  0.0420
14467TIP3    H164816   0.356   3.119  13.833  0.0674 -2.1140  0.4182
14467TIP3    H264817   0.480   3.053  13.776 -0.6501 -0.8786 -2.7652
14468TIP3   OH264818   5.572   3.993  14.942  0.3070 -0.3943 -0.5205
14468TIP3    H164819   5.511   4.033  14.880  0.0062  0.8042  0.4985
14468TIP3    H264820   5.540   4.022  15.028  1.5839 -0.7721  0.0987
14469TIP3   OH264821   6.559   0.589  14.457  1.3330 -0.2694  0.4020
14469TIP3    H164822   6.613   0.536  14.516  1.6999  0.3512  0.6323
14469TIP3    H264823   6.621   0.630  14.398  0.9965 -0.5802 -0.1756
14470TIP3   OH264824   3.013   4.291   4.046 -0.5284  0.1495  0.0615
14470TIP3    H164825   2.994   4.330   4.131 -1.0581  0.5844 -0.2561
14470TIP3    H264826   2.996   4.197   4.058  1.4940 -0.1412  1.0453
14471TIP3   OH264827   6.552   5.336  14.902  0.6543  0.0245  0.0642
14471TIP3    H164828   6.578   5.244  14.891 -0.0504 -0.1404 -0.2960
14471TIP3    H264829   6.591   5.381  14.827  0.8590 -0.0150  0.1477
14472TIP3   OH264830   5.595   2.729   4.359  0.3303  0.6821 -0.2520
14472TIP3    H164831   5.568   2.651   4.407  0.9089 -0.4345 -1.6999
14472TIP3    H264832   5.642   2.782   4.424  0.8817 -0.6679  0.4848
14473TIP3   OH264833   3.868   4.654  12.091 -0.5002  0.2911 -0.2848
14473TIP3    H164834   3.921   4.599  12.149  0.5437  1.3212 -0.2255
14473TIP3    H264835   3.922   4.665  12.013  0.0717  2.5555  0.3478
14474TIP3   OH264836   4.509   1.312  13.849 -0.3172 -0.3233 -0.3830
14474TIP3    H164837   4.552   1.388  13.811 -1.4254  1.0464  0.9841
14474TIP3    H264838   4.434   1.295  13.791 -1.6829  1.4151  0.7857
14475TIP3   OH264839   3.818   0.664  12.082  0.1313  0.2467 -0.2941
14475TIP3    H164840   3.882   0.726  12.046 -0.6622  1.5921  0.5258
14475TIP3    H264841   3.761   0.644  12.008 -0.3181  1.4616 -0.3019
14476TIP3   OH264842   6.748   3.195   6.400  0.1282 -0.1015  0.7920
14476TIP3    H164843   6.724   3.118   6.451 -0.5876 -0.0089  0.6004
14476TIP3    H264844   6.794   3.252   6.462  0.5568 -0.6279  0.9607
14477TIP3   OH264845   1.268   0.833   0.217 -0.1422  0.4668 -0.3922
14477TIP3    H164846   1.302   0.897   0.280 -0.2251 -0.1264  0.2663
14477TIP3    H264847   1.177   0.857   0.205 -0.1759  0.4714 -0.1394
14478TIP3   OH264848   5.028   1.853  16.333  0.4786  0.3835 -0.5376
14478TIP3    H164849   4.972   1.863  16.257  1.0848  0.4989 -0.9776
14478TIP3    H264850   5.005   1.767  16.370  0.4485  0.1588 -1.0745
14479TIP3   OH264851   1.641   0.946  12.836  0.5511 -0.5192  0.5929
14479TIP3    H164852   1.663   0.853  12.838  0.7028 -0.5161  3.6253
14479TIP3    H264853   1.726   0.990  12.830  0.5056 -0.5310 -0.3535
14480TIP3   OH264854   0.477   6.252   4.836 -0.2289  0.3472 -0.1460
14480TIP3    H164855   0.415   6.318   4.867 -0.7381  0.5727 -1.5687
14480TIP3    H264856   0.491   6.273   4.744 -0.0114 -1.2346 -0.5042
14481TIP3   OH264857   1.058   1.417  11.801  0.1175  0.2287 -0.1297
14481TIP3    H164858   1.025   1.331  11.774  1.1820  0.2568 -1.6282
14481TIP3    H264859   1.149   1.418  11.773  0.3746  1.5239  0.6659
14482TIP3   OH264860   0.608   3.783  15.930  0.4726  0.0323  0.1026
14482TIP3    H164861   0.647   3.699  15.956  1.6076  0.8621  1.2418
14482TIP3    H264862   0.680   3.830  15.887 -0.3165  0.1983 -1.0493
14483TIP3   OH264863   2.761   2.738  14.283  0.0929  1.0767 -0.1454
14483TIP3    H164864   2.801   2.816  14.245 -0.0004  2.0836  1.7510
14483TIP3    H264865   2.776   2.670  14.217  2.1233  2.1581 -0.8847
14484TIP3   OH264866   4.107   2.979  16.855  0.5181 -0.0674  0.1572
14484TIP3    H164867   4.068   2.904  16.899  0.9627  0.3961  1.3873
14484TIP3    H264868   4.145   3.031  16.926  0.0308  1.4248 -0.6253
14485TIP3   OH264869   3.513   3.909   2.406 -0.1321 -0.1061  0.0309
14485TIP3    H164870   3.599   3.948   2.393  0.1250  0.1255  2.1500
14485TIP3    H264871   3.464   3.974   2.456 -1.5174 -0.3004 -1.0134
14486TIP3   OH264872   6.077   5.567   6.305  0.1269 -0.3737  0.1661
14486TIP3    H164873   6.070   5.661   6.286 -2.6643 -1.0034 -2.7704
14486TIP3    H264874   6.061   5.561   6.399 -0.6241  2.0414  0.2752
14487TIP3   OH264875   1.268   2.534  14.423  0.1836  0.2381  0.1798
14487TIP3    H164876   1.286   2.601  14.356 -1.0380  0.1870 -0.2223
14487TIP3    H264877   1.321   2.459  14.396  0.1929  0.4387 -0.3822
14488TIP3   OH264878   6.387   6.322   3.126  0.4952 -0.6811 -0.5522
14488TIP3    H164879   6.434   6.261   3.068 -0.8541 -0.3687 -2.0329
14488TIP3    H264880   6.405   6.408   3.090 -0.4735 -0.4875 -0.5890
14489TIP3   OH264881   4.064   3.650  14.425 -0.6847  0.1653 -0.4265
14489TIP3    H164882   4.030   3.738  14.411 -1.6509 -0.2030 -0.4234
14489TIP3    H264883   4.081   3.645  14.519 -0.0261  0.5544 -0.5186
14490TIP3   OH264884   2.270   0.123  15.093 -0.6071 -0.0665  0.0102
14490TIP3    H164885   2.313   0.108  15.009  0.5015 -0.1478  0.5738
14490TIP3    H264886   2.320   0.071  15.156 -2.1180 -0.9306  0.5543
14491TIP3   OH264887   0.965   2.212   0.245 -0.3414 -0.3681  0.0041
14491TIP3    H164888   0.874   2.197   0.271 -0.7752  2.2122  0.3036
14491TIP3    H264889   1.014   2.211   0.328 -0.3267 -0.3765 -0.0046
14492TIP3   OH264890   4.716   2.218   2.301  0.1739  0.3870 -0.1838
14492TIP3    H164891   4.671   2.294   2.337 -0.2751  0.8718 -1.7025
14492TIP3    H264892   4.724   2.236   2.208  0.0313 -1.4495 -0.5895
14493TIP3   OH264893   2.447   6.580  14.234 -0.1662  0.2327 -0.3234
14493TIP3    H164894   2.492   6.625  14.162 -1.3459  1.0472 -0.5960
14493TIP3    H264895   2.446   6.488  14.207  1.0395  0.2397 -0.4438
14494TIP3   OH264896   1.496   2.441  12.037  0.3560 -0.3675 -0.1949
14494TIP3    H164897   1.588   2.421  12.022  0.1500 -1.1576 -0.4362
14494TIP3    H264898   1.477   2.514  11.978  1.8048  2.5078  2.5625
14495TIP3   OH264899   3.495   1.744   4.572  0.8182 -0.6857  0.5322
14495TIP3    H164900   3.551   1.821   4.571  0.2748 -0.2657  1.5685
14495TIP3    H264901   3.406   1.778   4.584 -0.0777 -1.1307 -3.3463
14496TIP3   OH264902   0.117   4.452   4.792  0.8459  0.0299 -0.1017
14496TIP3    H164903   0.193   4.394   4.778  1.6161  0.8691  0.4532
14496TIP3    H264904   0.060   4.402   4.850  0.9142 -0.6629 -0.6114
14497TIP3   OH264905   0.126   2.650  15.419 -0.1272 -0.1807 -0.4960
14497TIP3    H164906   0.145   2.659  15.326 -0.3669 -0.6364 -0.5915
14497TIP3    H264907   0.211   2.659  15.462 -0.0060 -0.0371 -0.7655
14498TIP3   OH264908   4.965   0.352   5.674 -0.4849  0.0190 -0.3663
14498TIP3    H164909   4.975   0.443   5.702  1.9508 -0.2581 -0.0927
14498TIP3    H264910   4.872   0.334   5.684 -0.8277  2.0860  0.8295
14499TIP3   OH264911   6.648   3.306   5.482  0.1833 -0.0044 -0.1372
14499TIP3    H164912   6.671   3.387   5.436 -4.2109  0.1428 -2.5686
14499TIP3    H264913   6.650   3.331   5.575 -1.3599  3.1287 -0.8058
14500TIP3   OH264914   2.735   0.558  15.485  0.3709 -0.0603 -0.3548
14500TIP3    H164915   2.719   0.501  15.409  1.6013  0.9404 -1.4068
14500TIP3    H264916   2.809   0.517  15.531  0.5315  0.0865 -0.4824
14501TIP3   OH264917   3.997   0.603   1.606  0.7438 -0.5841  0.2311
14501TIP3    H164918   3.979   0.613   1.512  1.7651 -1.1547 -0.0378
14501TIP3    H264919   4.029   0.688   1.634 -0.5624 -0.0973  0.3093
14502TIP3   OH264920   6.705   2.289   2.403 -0.1528 -0.8820 -0.4145
14502TIP3    H164921   6.799   2.272   2.413  0.2856  0.7567 -1.3359
14502TIP3    H264922   6.664   2.203   2.411  1.4042 -1.6071  0.1973
14503TIP3   OH264923   4.202   3.744  13.336 -0.1664 -0.2819  0.3133
14503TIP3    H164924   4.233   3.715  13.250  0.1741 -0.0377  0.3515
14503TIP3    H264925   4.123   3.692  13.352  0.5106 -1.3053  0.4443
14504TIP3   OH264926   0.713   6.530  16.714 -0.3676 -0.3282  0.8556
14504TIP3    H164927   0.684   6.616  16.685 -0.0550 -0.7092 -0.6838
14504TIP3    H264928   0.664   6.468  16.659 -1.3856 -1.1909  2.6525
14505TIP3   OH264929   2.146   3.763   5.060 -0.3417 -0.3133 -0.0218
14505TIP3    H164930   2.084   3.831   5.033 -1.4780 -1.7996 -1.2546
14505TIP3    H264931   2.214   3.764   4.993  0.3448  0.4264  0.6461
14506TIP3   OH264932   6.338   1.066  14.326 -0.1523  0.0979 -0.0016
14506TIP3    H164933   6.357   1.000  14.259 -0.7548  0.6355 -0.7224
14506TIP3    H264934   6.251   1.044  14.359 -0.8158  1.0949 -0.9842
14507TIP3   OH264935   2.880   6.232   0.699 -0.2626 -0.3195  0.5606
14507TIP3    H164936   2.836   6.259   0.779 -1.4518 -1.1186  0.1998
14507TIP3    H264937   2.824   6.264   0.628 -0.3844 -1.4754  0.0998
14508TIP3   OH264938   6.599   3.332   4.981  0.0132 -0.7078 -0.1751
14508TIP3    H164939   6.632   3.268   4.918  1.6696  0.7969 -0.9588
14508TIP3    H264940   6.538   3.284   5.036  1.9454 -3.2172 -0.0516
14509TIP3   OH264941   5.246   6.419  16.735 -0.0822  0.2221 -0.3320
14509TIP3    H164942   5.196   6.486  16.782 -0.0062  0.1697 -0.1753
14509TIP3    H264943   5.266   6.458  16.650 -2.5691 -0.6305 -1.4449
14510TIP3   OH264944   0.619   6.282   6.245 -0.4615  0.3786  0.1773
14510TIP3    H164945   0.525   6.269   6.256 -0.4041 -0.6152 -0.4519
14510TIP3    H264946   0.626   6.363   6.194 -0.9059  1.3809  1.6248
14511TIP3   OH264947   6.479   5.622  14.408 -0.9430  0.2067  0.4945
14511TIP3    H164948   6.475   5.532  14.440 -0.8735 -0.0577 -0.2364
14511TIP3    H264949   6.566   5.652  14.432 -0.9838  0.1013  0.7850
14512TIP3   OH264950   1.154   2.632  16.788 -0.4406 -0.3850  0.8542
14512TIP3    H164951   1.129   2.543  16.764  0.5858 -0.4915  0.0889
14512TIP3    H264952   1.229   2.651  16.732 -0.7294  1.0165  0.9082
14513TIP3   OH264953   4.064   3.793   3.013  0.0956 -0.3231 -0.0938
14513TIP3    H164954   4.073   3.801   2.918 -2.1031 -0.4078 -0.3622
14513TIP3    H264955   4.127   3.856   3.048  0.6782 -0.0092 -1.5929
14514TIP3   OH264956   6.204   2.004  16.559 -0.4379 -0.2066  0.0632
14514TIP3    H164957   6.152   2.079  16.532 -1.0389  0.4167  2.6568
14514TIP3    H264958   6.294   2.036  16.561 -0.4519 -0.1189 -0.6288
14515TIP3   OH264959   3.645   5.287  13.830  0.4713  0.3714 -0.1872
14515TIP3    H164960   3.737   5.279  13.804  0.3413  0.7605 -0.7802
14515TIP3    H264961   3.615   5.369  13.791 -0.0564  0.3855  0.2275
14516TIP3   OH264962   4.215   6.336  17.062 -0.6168 -0.1871  0.5190
14516TIP3    H164963   4.264   6.256  17.041  0.2394  0.6557 -0.9171
14516TIP3    H264964   4.281   6.405  17.062 -1.6588  0.8712 -0.6535
14517TIP3   OH264965   6.516   1.366  15.215 -0.0977  0.3884  0.4347
14517TIP3    H164966   6.500   1.292  15.274  0.7109  0.9064  1.3393
14517TIP3    H264967   6.609   1.362  15.196 -0.1715  0.7982 -0.0321
14518TIP3   OH264968   3.826   5.149  11.406 -0.1469  0.3959 -0.1505
14518TIP3    H164969   3.829   5.162  11.311  1.8520  0.9099 -0.0701
14518TIP3    H264970   3.823   5.238  11.441  1.7497  0.3257  0.2706
14519TIP3   OH264971   3.561   1.918   2.326  0.2481 -0.8320 -0.3050
14519TIP3    H164972   3.542   1.931   2.419 -0.7865 -1.5912 -0.3895
14519TIP3    H264973   3.627   1.984   2.305  0.6988 -0.8318  1.0317
14520TIP3   OH264974   1.318   2.472   2.668 -0.8738 -0.2015 -0.6073
14520TIP3    H164975   1.308   2.564   2.691  1.0079 -0.3375  1.0687
14520TIP3    H264976   1.407   2.465   2.635  0.0446 -1.8012  1.9017
14521TIP3   OH264977   0.505   6.231  14.865  0.3571  0.0533  0.2304
14521TIP3    H164978   0.577   6.247  14.803  1.3621  1.0314  1.5940
14521TIP3    H264979   0.537   6.158  14.918 -0.2441 -0.3775  0.0115
14522TIP3   OH264980   4.250   3.908   0.888  0.2341 -0.1527  0.1920
14522TIP3    H164981   4.218   3.819   0.902  2.3496 -0.7159  1.9641
14522TIP3    H264982   4.332   3.897   0.839 -0.4139  1.0008 -1.2473
14523TIP3   OH264983   4.596   5.964  15.276  0.4636 -0.1725 -0.9418
14523TIP3    H164984   4.521   5.910  15.250  0.1645 -0.0067 -0.4314
14523TIP3    H264985   4.560   6.051  15.289  0.7702 -0.0631 -0.8236
14524TIP3   OH264986   3.156   6.647   1.510 -0.4448  0.3280  0.2024
14524TIP3    H164987   3.096   6.719   1.490 -1.5281 -0.6753 -0.2552
14524TIP3    H264988   3.190   6.620   1.425  1.5204  1.5665  0.5356
14525TIP3   OH264989   1.192   4.468  12.672 -0.3606  0.2384 -0.0037
14525TIP3    H164990   1.215   4.436  12.585 -0.9214 -2.3286  0.7206
14525TIP3    H264991   1.118   4.527  12.658  1.7338  2.6984 -1.5657
14526TIP3   OH264992   3.919   1.217   4.783  0.1699 -0.3837  0.4892
14526TIP3    H164993   3.879   1.136   4.814 -0.7971  0.0524  0.4258
14526TIP3    H264994   3.919   1.209   4.687 -1.0908  0.2144  0.4280
14527TIP3   OH264995   3.812   3.377  15.476 -0.1417  0.2723  0.2871
14527TIP3    H164996   3.862   3.307  15.518 -0.8620 -0.7634 -0.4906
14527TIP3    H264997   3.834   3.369  15.383  0.0257  1.3165  0.2282
14528TIP3   OH264998   6.055   2.811   4.659 -0.0323  0.5689 -0.2742
14528TIP3    H164999   6.042   2.829   4.752 -2.4822  0.9208 -0.6037
14528TIP3    H265000   6.059   2.716   4.653  0.7184  0.5623  0.2310
14529TIP3   OH265001   0.217   5.608   2.275 -0.4149 -0.5857  0.2662
14529TIP3    H165002   0.250   5.587   2.188  0.8049  1.2390  0.2363
14529TIP3    H265003   0.139   5.661   2.258  0.0344  0.0839  0.2656
14530TIP3   OH265004   2.642   0.408  12.486 -0.5206  0.4057 -0.5891
14530TIP3    H165005   2.676   0.324  12.518 -0.1557 -0.1365 -2.2696
14530TIP3    H265006   2.718   0.450  12.444 -1.1755  0.5910 -1.6401
14531TIP3   OH265007   2.338   1.835   1.148 -0.5710  0.6020  0.0674
14531TIP3    H165008   2.267   1.900   1.149 -0.1241  1.2164 -2.1292
14531TIP3    H265009   2.328   1.791   1.063  0.3107 -0.8973  0.7051
14532TIP3   OH265010   5.096   2.511  12.876 -0.5339 -0.0042 -0.4182
14532TIP3    H165011   5.173   2.525  12.820 -0.5341  1.7575 -0.0585
14532TIP3    H265012   5.120   2.439  12.933  0.4921 -0.1009 -0.9464
14533TIP3   OH265013   0.686   3.511  14.853  0.1833 -0.6616 -0.4666
14533TIP3    H165014   0.613   3.503  14.791  0.6297 -0.1747 -1.0618
14533TIP3    H265015   0.763   3.522  14.798  0.6826 -0.9646  0.1669
14534TIP3   OH265016   3.691   2.604  12.545 -0.0878 -0.1968 -0.1157
14534TIP3    H165017   3.673   2.697  12.534  0.0370 -0.1048  0.3897
14534TIP3    H265018   3.628   2.576  12.611 -1.0496 -0.7919 -1.2577
14535TIP3   OH265019   1.131   3.645  13.309  0.4544 -0.3078  0.8647
14535TIP3    H165020   1.189   3.577  13.273 -0.9777 -0.3592 -1.5585
14535TIP3    H265021   1.189   3.717  13.331  1.8248 -1.6722  1.9670
14536TIP3   OH265022   4.351   3.321  17.249 -0.5212 -0.2640  0.2484
14536TIP3    H165023   4.275   3.379  17.253 -0.2527  0.2660 -1.4384
14536TIP3    H265024   4.426   3.380  17.252 -0.2229 -0.6095 -0.2341
14537TIP3   OH265025   5.376   4.092   3.710 -0.2135  0.5416 -0.7548
14537TIP3    H165026   5.326   4.173   3.700  0.6790  0.8753 -3.0193
14537TIP3    H265027   5.317   4.024   3.677 -0.0687  0.5986 -1.1296
14538TIP3   OH265028   0.987   5.623  12.087  0.2225 -0.4220  0.0141
14538TIP3    H165029   1.015   5.597  12.175  1.6338 -0.2019 -0.3487
14538TIP3    H265030   0.949   5.710  12.099  0.0463 -0.5571  0.4673
14539TIP3   OH265031   3.152   5.576  15.755 -0.6343 -0.4935 -0.2914
14539TIP3    H165032   3.226   5.617  15.709 -0.4632 -0.2571  0.1879
14539TIP3    H265033   3.161   5.483  15.734  0.1275 -0.5435  0.2002
14540TIP3   OH265034   1.629   1.114   3.614 -0.2702 -0.4066  0.0216
14540TIP3    H165035   1.620   1.021   3.596 -1.1480 -0.4508  0.6179
14540TIP3    H265036   1.560   1.133   3.677 -1.3182  1.0052 -1.4541
14541TIP3   OH265037   1.739   5.943  12.193  0.4222  0.2336  0.6836
14541TIP3    H165038   1.799   5.967  12.122  0.8247 -1.0236  0.5791
14541TIP3    H265039   1.652   5.957  12.156  0.6329  0.5177  0.2830
14542TIP3   OH265040   3.268   1.186  16.807  0.6628  0.3718  0.7518
14542TIP3    H165041   3.312   1.150  16.884 -0.9642 -1.4822  0.8933
14542TIP3    H265042   3.330   1.171  16.735  0.8779 -0.8701  1.1708
14543TIP3   OH265043   5.543   6.461   1.669 -0.7641 -0.0919 -0.2706
14543TIP3    H165044   5.531   6.505   1.752 -3.2027 -0.7622 -0.1826
14543TIP3    H265045   5.454   6.442   1.638  0.0941 -2.0551 -1.8257
14544TIP3   OH265046   1.673   6.762   4.585  0.6943  0.7384  0.0761
14544TIP3    H165047   1.719   6.706   4.648  1.9441  2.3295  0.6589
14544TIP3    H265048   1.604   6.706   4.549  1.3561 -0.9010  1.2168
14545TIP3   OH265049   6.483   6.437   5.024 -0.4855  0.1548  0.3478
14545TIP3    H165050   6.515   6.410   4.938  0.8953 -0.9290  1.1601
14545TIP3    H265051   6.452   6.527   5.012  0.3047  0.2482 -1.1254
14546TIP3   OH265052   5.592   4.566  16.927  0.0075 -0.4158 -0.5479
14546TIP3    H165053   5.588   4.589  17.019 -0.3873 -0.0121 -0.6593
14546TIP3    H265054   5.602   4.471  16.926 -0.9130 -0.5283 -0.0955
14547TIP3   OH265055   0.665   2.483   3.743  0.2703  0.5865  0.0565
14547TIP3    H165056   0.664   2.463   3.649 -0.1881  1.6135 -0.1684
14547TIP3    H265057   0.752   2.517   3.759  0.1039  1.1226 -0.1587
14548TIP3   OH265058   3.852   2.503  11.267 -0.3619  0.0798 -0.2057
14548TIP3    H165059   3.871   2.578  11.324 -0.8711  0.7997 -0.9533
14548TIP3    H265060   3.760   2.483  11.284 -0.7745  0.8587 -1.3686
14549TIP3   OH265061   0.250   5.878   0.641  0.0202  0.0512 -0.0690
14549TIP3    H165062   0.189   5.904   0.572  0.1527  2.2478  0.5551
14549TIP3    H265063   0.314   5.949   0.643  0.5202 -0.4094  1.7232
14550TIP3   OH265064   2.795   2.735  11.473  0.7414 -0.5483  0.0515
14550TIP3    H165065   2.881   2.706  11.503  1.0209 -2.4536 -2.3237
14550TIP3    H265066   2.803   2.830  11.467  1.7081 -0.3983  2.5425
14551TIP3   OH265067   0.088   5.898  11.172 -0.0036 -0.3271 -0.1380
14551TIP3    H165068   0.096   5.835  11.101  1.8222  0.2601 -0.5140
14551TIP3    H265069  -0.006   5.900  11.193 -0.5117 -0.9007 -2.1691
14552TIP3   OH265070   0.876   5.354  15.610  0.2925  0.3301  0.0466
14552TIP3    H165071   0.909   5.365  15.521  1.3888  2.7969  0.6688
14552TIP3    H265072   0.807   5.420  15.619  0.4521  0.3688  1.1417
14553TIP3   OH265073   1.765   1.073   2.816 -0.1963  0.2543 -0.0006
14553TIP3    H165074   1.695   1.139   2.824  0.1756  0.8511 -1.3268
14553TIP3    H265075   1.761   1.024   2.898 -0.8746  1.5565  0.7918
14554TIP3   OH265076   1.068   0.207  15.370  0.3633  0.4547  0.2990
14554TIP3    H165077   1.147   0.161  15.398  0.1287 -0.2924 -0.2522
14554TIP3    H265078   0.996   0.148  15.392 -0.0915  1.2676  1.1005
14555TIP3   OH265079   6.094   5.134   0.096 -0.6372  0.1222  0.2909
14555TIP3    H165080   6.095   5.130   0.191  0.2668  0.7041  0.3184
14555TIP3    H265081   6.067   5.224   0.076 -0.9508 -0.0334 -0.0076
14556TIP3   OH265082   6.194   3.672   2.002 -0.5365 -0.1773  0.0072
14556TIP3    H165083   6.251   3.677   1.926 -1.9269  2.6739 -0.9917
14556TIP3    H265084   6.105   3.681   1.966 -1.3742 -0.7511  1.8073
14557TIP3   OH265085   3.895   3.119   2.109  0.1114 -0.4088  0.3028
14557TIP3    H165086   3.854   3.045   2.154 -0.3489  0.0954  0.7209
14557TIP3    H265087   3.850   3.196   2.143  0.8254  0.0941  0.1349
14558TIP3   OH265088   6.728   1.397  12.681  0.4826 -0.3418 -0.4492
14558TIP3    H165089   6.653   1.452  12.659  1.0651 -0.2794 -2.5498
14558TIP3    H265090   6.804   1.451  12.659  1.1186 -1.0391 -0.0176
14559TIP3   OH265091   3.799   4.309   5.739 -0.1930 -0.4625  0.2508
14559TIP3    H165092   3.787   4.401   5.760  2.6926 -0.0319  0.5396
14559TIP3    H265093   3.757   4.297   5.654 -1.6675  0.7666  0.7685
14560TIP3   OH265094   5.380   1.248  11.167  0.3139 -0.1381  0.1477
14560TIP3    H165095   5.350   1.338  11.178 -0.6642 -0.6589  2.2388
14560TIP3    H265096   5.386   1.236  11.072 -0.2260  1.8836 -0.1899
14561TIP3   OH265097   2.502   2.426   4.460 -0.3911  0.2603 -0.0317
14561TIP3    H165098   2.471   2.389   4.377 -0.1581  0.6597 -0.3001
14561TIP3    H265099   2.539   2.511   4.436 -0.4720  0.4538  0.5055
14562TIP3   OH265100   5.260   0.533  15.557 -0.8337 -0.3652 -0.5040
14562TIP3    H165101   5.217   0.475  15.494 -2.6384  0.1757  0.1754
14562TIP3    H265102   5.348   0.496  15.568 -0.6274 -0.7448 -2.9383
14563TIP3   OH265103   2.490   6.048  14.385  0.2752 -0.5365  0.0242
14563TIP3    H165104   2.522   6.104  14.456  1.1156 -0.7824 -0.1492
14563TIP3    H265105   2.502   5.959  14.417 -0.7852 -0.6251  0.1834
14564TIP3   OH265106   4.828   1.063   2.497 -0.2185 -0.2542  0.4823
14564TIP3    H165107   4.734   1.077   2.480 -0.2106 -0.4246  0.2796
14564TIP3    H265108   4.871   1.137   2.454 -0.2288 -0.4456  0.1365
14565TIP3   OH265109   3.750   3.407  16.190  0.2752  0.3070  0.2922
14565TIP3    H165110   3.816   3.375  16.250 -0.4665 -1.2532  0.3157
14565TIP3    H265111   3.667   3.392  16.235 -0.3186 -1.1979 -1.2136
14566TIP3   OH265112   6.518   3.294   0.585  0.1702  0.1687 -0.4825
14566TIP3    H165113   6.567   3.241   0.648  0.5667 -0.2439 -1.1165
14566TIP3    H265114   6.426   3.274   0.602  0.3228 -2.2700 -1.9565
14567TIP3   OH265115   1.240   3.085  12.270 -0.9126  0.3014 -0.1134
14567TIP3    H165116   1.152   3.121  12.279 -3.0825 -3.7589 -2.2834
14567TIP3    H265117   1.262   3.098  12.178  0.3877  0.4328  0.1953
14568TIP3   OH265118   3.019   6.601  12.449 -0.1504  0.3563  0.0924
14568TIP3    H165119   3.055   6.594  12.360  0.0645 -0.8835  0.2566
14568TIP3    H265120   3.097   6.609  12.505  0.0228 -2.6827  0.4822
14569TIP3   OH265121   0.616   2.060  15.783 -0.4237 -0.1283  0.3010
14569TIP3    H165122   0.581   2.109  15.857 -1.0233 -1.8748  1.2267
14569TIP3    H265123   0.592   2.112  15.706  0.2148  1.7331  1.2848
14570TIP3   OH265124   0.822   2.669  14.453 -0.4373 -0.8411  0.3936
14570TIP3    H165125   0.860   2.756  14.457 -1.2349 -0.2960 -2.0992
14570TIP3    H265126   0.751   2.671  14.517 -0.2559  0.2226  0.5815
14571TIP3   OH265127   6.570   4.813  12.625 -0.1210 -0.4032  0.3795
14571TIP3    H165128   6.547   4.733  12.578 -2.9863  0.9091 -0.6939
14571TIP3    H265129   6.505   4.819  12.695  0.5191  0.5979  0.9070
14572TIP3   OH265130   0.006   3.819   0.592 -0.6331 -0.1080  0.9220
14572TIP3    H165131  -0.074   3.774   0.620  0.1569 -1.8020  0.5669
14572TIP3    H265132  -0.022   3.872   0.517 -1.3031 -1.1956  0.3809
14573TIP3   OH265133   2.181   2.998   5.486  0.4629  0.6426 -0.2431
14573TIP3    H165134   2.263   3.007   5.437  1.4076 -0.8086  0.9781
14573TIP3    H265135   2.208   2.973   5.574 -1.2659  1.4516  0.5795
14574TIP3   OH265136   2.717   4.625   4.594  0.4741  0.2177  0.2986
14574TIP3    H165137   2.762   4.675   4.527 -0.9646  1.4983  0.2244
14574TIP3    H265138   2.642   4.680   4.618 -1.5141 -2.1338 -0.1668
14575TIP3   OH265139   2.867   6.674   0.355 -0.3757  0.3124 -0.1543
14575TIP3    H165140   2.800   6.631   0.302  0.3851  0.7366 -1.5046
14575TIP3    H265141   2.862   6.766   0.330  1.5345  0.1734 -1.2736
14576TIP3   OH265142   2.729   2.446   0.196  0.2808  0.3723  0.6408
14576TIP3    H165143   2.711   2.387   0.122  1.0319 -0.5154  1.1366
14576TIP3    H265144   2.725   2.534   0.158 -1.1331  0.0396 -0.0707
14577TIP3   OH265145   2.472   4.532  11.783  0.1154 -0.4621 -0.5459
14577TIP3    H165146   2.481   4.441  11.811 -0.5497  0.0241  1.4180
14577TIP3    H265147   2.522   4.582  11.847 -2.4631  0.8156  0.6256
14578TIP3   OH265148   3.379   4.325   3.859 -0.8205  0.3786  0.4528
14578TIP3    H165149   3.401   4.347   3.768 -0.9485  1.1245  0.5897
14578TIP3    H265150   3.440   4.377   3.911 -0.8566  0.0768  0.7968
14579TIP3   OH265151   4.243   3.553   4.976  0.2743  0.1916  0.6336
14579TIP3    H165152   4.154   3.518   4.969  0.0229  0.4176  2.3088
14579TIP3    H265153   4.285   3.500   5.044  1.3963  0.1617 -0.0592
14580TIP3   OH265154   2.443   4.088  16.172  0.3623 -0.3944  0.1730
14580TIP3    H165155   2.515   4.132  16.216  1.0749 -0.9404 -0.4162
14580TIP3    H265156   2.426   4.010  16.224  0.0484 -0.1596  0.4283
14581TIP3   OH265157   4.865   5.484   4.381  0.7568  0.4070 -0.0972
14581TIP3    H165158   4.835   5.569   4.413 -0.8117 -1.1843  3.0996
14581TIP3    H265159   4.786   5.443   4.346 -0.0707 -1.9457  3.9666
14582TIP3   OH265160   1.531   2.867  11.321  0.3215 -0.2753  0.3365
14582TIP3    H165161   1.454   2.910  11.283  0.1361 -0.5150  0.4400
14582TIP3    H265162   1.587   2.940  11.349  0.0236 -0.0957  0.4801
14583TIP3   OH265163   2.001   5.243  15.251 -0.5017  0.2523  0.3616
14583TIP3    H165164   1.937   5.248  15.180 -1.0962  1.2009  0.9338
14583TIP3    H265165   2.014   5.150  15.265 -2.4139 -0.0022  0.7838
14584TIP3   OH265166   0.148   0.561   5.269  0.4624 -0.2596 -0.0453
14584TIP3    H165167   0.066   0.513   5.279  0.4492 -0.0643  0.9405
14584TIP3    H265168   0.213   0.507   5.315  0.1288  1.4136  2.6288
14585TIP3   OH265169   0.543   0.262  11.696 -0.4891  0.4185 -0.4008
14585TIP3    H165170   0.599   0.184  11.701  0.1192  0.8523 -0.2388
14585TIP3    H265171   0.563   0.311  11.776 -0.1328  1.2128 -0.9518
14586TIP3   OH265172   1.910   3.325   0.648  0.3903 -0.0643 -0.3789
14586TIP3    H165173   1.984   3.349   0.593 -0.3691 -0.7383 -1.7586
14586TIP3    H265174   1.938   3.346   0.737  2.4718 -0.8693 -0.7800
14587TIP3   OH265175   2.026   5.342   2.228  0.2882  0.7336 -0.0133
14587TIP3    H165176   1.968   5.339   2.304  0.6885  2.9648  0.4534
14587TIP3    H265177   2.039   5.435   2.212  0.2681  0.3318 -2.8111
14588TIP3   OH265178   6.778   0.922   1.624 -0.4106  0.2255  0.1592
14588TIP3    H165179   6.789   0.845   1.567  0.3297 -0.3443  1.0397
14588TIP3    H265180   6.769   0.995   1.564 -0.8954 -0.5158 -0.7033
14589TIP3   OH265181   2.958   6.718  16.826 -0.2044 -0.3622 -0.4080
14589TIP3    H165182   3.010   6.750  16.900 -1.9987 -2.4166  1.8934
14589TIP3    H265183   2.892   6.786  16.813  0.0729 -0.0202 -0.0895
14590TIP3   OH265184   3.134   0.756   3.295  0.2268  0.0797  0.0149
14590TIP3    H165185   3.122   0.666   3.265  1.2286 -0.3113  0.7212
14590TIP3    H265186   3.081   0.809   3.235 -0.6733 -1.0027 -0.1888
14591TIP3   OH265187   2.740   0.086   0.667 -0.1192 -0.2889 -0.7504
14591TIP3    H165188   2.787   0.165   0.640 -0.6235  0.9004  1.5379
14591TIP3    H265189   2.647   0.110   0.657 -0.2935 -0.1775  0.8480
14592TIP3   OH265190   3.456   2.143  15.363  0.2589 -0.0189 -0.3800
14592TIP3    H165191   3.548   2.121  15.349 -0.1017 -2.2575  0.3521
14592TIP3    H265192   3.448   2.154  15.458 -0.2506  0.0805 -0.4292
14593TIP3   OH265193   4.973   5.167   2.137 -0.7344 -0.0573 -0.2356
14593TIP3    H165194   4.980   5.257   2.104 -0.1656 -0.2157 -0.5642
14593TIP3    H265195   5.039   5.118   2.087 -1.7574 -0.8818 -0.8355
14594TIP3   OH265196   6.349   4.118  14.632  0.1580 -0.3418 -0.3980
14594TIP3    H165197   6.429   4.068  14.617 -0.2881 -0.7685 -1.4869
14594TIP3    H265198   6.284   4.052  14.658  0.3777  0.1220  1.4523
14595TIP3   OH265199   3.882   3.392  13.615 -0.1292 -0.3817  0.0810
14595TIP3    H165200   3.978   3.398  13.619 -0.1632 -0.7122  3.3103
14595TIP3    H265201   3.851   3.459  13.675 -1.9086 -0.9821 -0.1240
14596TIP3   OH265202   3.098   4.442   0.758 -0.0426  0.2562 -0.0177
14596TIP3    H165203   3.098   4.379   0.830 -2.2376  0.0448 -0.1361
14596TIP3    H265204   3.179   4.492   0.770 -0.6033  0.6524  2.9617
14597TIP3   OH265205   0.983   6.184   4.848  0.2102  0.7477 -0.0176
14597TIP3    H165206   0.923   6.208   4.777  0.1448 -0.6852 -0.4891
14597TIP3    H265207   0.943   6.221   4.927 -1.0953  0.1625 -0.3829
14598TIP3   OH265208   4.268   6.313  11.298  0.0263  0.4822  0.1015
14598TIP3    H165209   4.336   6.329  11.233 -0.4839  3.1585  0.1302
14598TIP3    H265210   4.198   6.269  11.249 -0.6021  2.9642 -1.3977
14599TIP3   OH265211   2.728   4.181   1.628  0.2300  0.6954 -0.0163
14599TIP3    H165212   2.647   4.152   1.670  0.6867 -2.5796 -1.1301
14599TIP3    H265213   2.798   4.152   1.686  0.7791 -2.2046 -1.9119
14600TIP3   OH265214   4.173   2.415  13.107 -0.3860 -0.5689  0.4904
14600TIP3    H165215   4.183   2.439  13.199 -0.9826 -0.7146  0.5968
14600TIP3    H265216   4.160   2.499  13.062 -2.2761 -0.6285  0.8367
14601TIP3   OH265217   6.150   2.231  15.466  0.0743 -0.5521 -0.3503
14601TIP3    H165218   6.185   2.174  15.398 -1.5111 -0.7617 -1.0496
14601TIP3    H265219   6.111   2.171  15.530 -0.1703 -0.2992 -0.2590
14602TIP3   OH265220   6.122   2.893  15.774 -0.1140 -0.1495 -0.3569
14602TIP3    H165221   6.196   2.839  15.800  0.1602  0.4973  0.2667
14602TIP3    H265222   6.049   2.832  15.764  0.1651 -0.6219  0.4106
14603TIP3   OH265223   5.618   1.756  15.963 -0.4719  0.4049  0.5565
14603TIP3    H165224   5.604   1.763  15.868 -0.0307 -0.3890  0.4319
14603TIP3    H265225   5.679   1.827  15.983  1.6424 -1.0879 -0.2264
14604TIP3   OH265226   0.260   5.150  14.375 -0.5618 -0.0242 -0.1760
14604TIP3    H165227   0.323   5.158  14.304  0.7316  1.4705  1.0563
14604TIP3    H265228   0.286   5.071  14.422 -1.1236 -0.7464 -1.0606
14605TIP3   OH265229   1.966   0.455   4.220  0.4671  0.4081 -0.3641
14605TIP3    H165230   1.941   0.466   4.311  0.5072 -0.3407 -0.2586
14605TIP3    H265231   1.885   0.468   4.171 -0.1799 -1.9435 -0.0284
14606TIP3   OH265232   2.692   1.771  11.411 -0.0479  0.8944  0.0954
14606TIP3    H165233   2.645   1.803  11.488 -2.2722  1.0000 -1.2158
14606TIP3    H265234   2.679   1.839  11.344  0.2688 -0.0172 -0.9259
14607TIP3   OH265235   6.096   3.713  14.281 -0.1448  0.4143 -0.8264
14607TIP3    H165236   6.159   3.722  14.353 -0.5615  1.5294 -0.5802
14607TIP3    H265237   6.113   3.626  14.245  0.8860  0.3167 -0.1500
14608TIP3   OH265238   0.080   6.173  13.019 -0.1810  0.4905 -0.2507
14608TIP3    H165239  -0.006   6.171  12.977 -0.3246  0.8222  0.0186
14608TIP3    H265240   0.074   6.245  13.082 -0.1144 -0.2786  0.6562
14609TIP3   OH265241   5.773   1.936   3.782 -0.1081 -0.2183 -0.4984
14609TIP3    H165242   5.783   1.969   3.693  1.1497  0.1373 -0.2472
14609TIP3    H265243   5.815   1.849   3.780  2.4502  0.8955  0.3484
14610TIP3   OH265244   2.316   1.535  13.282 -0.0563  0.0166  1.1772
14610TIP3    H165245   2.274   1.577  13.356 -0.6714  0.8171  0.3892
14610TIP3    H265246   2.293   1.442  13.291 -0.4192  0.1636  1.7899
14611TIP3   OH265247   5.442   1.036   0.279  0.0971  0.3991 -0.4525
14611TIP3    H165248   5.505   1.108   0.282  1.2504 -0.6199  1.0928
14611TIP3    H265249   5.440   1.010   0.187  0.9004  1.3269 -0.7545
14612TIP3   OH265250   4.122   5.530   0.668 -0.5853  0.1765  0.0264
14612TIP3    H165251   4.138   5.509   0.760 -0.2418 -1.6904 -0.4120
14612TIP3    H265252   4.188   5.597   0.646  1.7800 -1.9306  0.2493
14613TIP3   OH265253   1.689   3.315  13.536 -0.0503  0.4394 -0.7792
14613TIP3    H165254   1.726   3.376  13.472 -0.1316  0.4200 -0.8446
14613TIP3    H265255   1.651   3.244  13.483  2.6538 -1.2207 -0.6834
14614TIP3   OH265256   4.430   6.405   4.336  0.0579  0.0353  0.3366
14614TIP3    H165257   4.517   6.413   4.377 -0.4031  1.2296  1.1424
14614TIP3    H265258   4.375   6.466   4.385 -1.0767 -0.1801 -0.6278
14615TIP3   OH265259   0.967   3.635   5.638  0.5334 -0.0631 -0.1875
14615TIP3    H165260   1.035   3.664   5.699 -0.2272  0.8910  0.2169
14615TIP3    H265261   0.975   3.540   5.637  1.5812  0.0079  0.1933
14616TIP3   OH265262   5.155   0.325   5.491 -0.5690  0.0328  0.2161
14616TIP3    H165263   5.147   0.232   5.513  0.4114  0.0056  0.5422
14616TIP3    H265264   5.102   0.370   5.557 -2.8107 -0.3806 -1.2204
14617TIP3   OH265265   4.631   0.264  15.335  0.3002  0.4382  0.5825
14617TIP3    H165266   4.689   0.323  15.288  1.0307 -0.4772  0.3133
14617TIP3    H265267   4.689   0.213  15.392 -0.3825  0.3747  1.2434
14618TIP3   OH265268   0.761   1.082  13.958 -0.7291 -0.2745  0.0329
14618TIP3    H165269   0.747   1.175  13.976 -1.6937 -0.6782  1.5824
14618TIP3    H265270   0.718   1.067  13.874 -0.1615  0.7629 -0.4590
14619TIP3   OH265271   1.250   6.579  13.188  0.0280 -0.4935  0.1206
14619TIP3    H165272   1.246   6.640  13.261 -0.4312 -0.3669 -0.0011
14619TIP3    H265273   1.316   6.514  13.213  0.4352 -0.0121  0.3002
14620TIP3   OH265274   5.845   3.580  15.367 -0.2087  0.2357  0.1609
14620TIP3    H165275   5.916   3.641  15.350  1.2874 -1.6075 -0.5252
14620TIP3    H265276   5.851   3.515  15.297 -1.7785 -0.6827  0.8182
14621TIP3   OH265277   5.488   6.498   4.291 -0.7972  0.0507 -0.6761
14621TIP3    H165278   5.465   6.424   4.347 -0.1097 -0.1605 -0.6679
14621TIP3    H265279   5.583   6.491   4.279 -0.0977  2.7541  2.0034
14622TIP3   OH265280   5.813   1.367  11.282  0.3794  0.2289 -0.4201
14622TIP3    H165281   5.877   1.310  11.325  1.3142 -0.1101 -2.1733
14622TIP3    H265282   5.781   1.316  11.208 -0.4089  1.1684 -0.7463
14623TIP3   OH265283   1.259   4.641  12.956 -0.1212  0.7748  0.1971
14623TIP3    H165284   1.243   4.725  12.912 -0.4047  1.7792  2.0896
14623TIP3    H265285   1.272   4.665  13.048 -0.7707 -1.3136  0.8836
14624TIP3   OH265286   0.519   3.943  13.747 -0.0078  0.0774  0.5751
14624TIP3    H165287   0.450   3.877  13.740 -0.5731  0.4982  1.7892
14624TIP3    H265288   0.599   3.892  13.764 -0.2461 -0.3492  0.4388
14625TIP3   OH265289   5.806   2.612  14.578  0.3714  0.3307  0.6302
14625TIP3    H165290   5.838   2.694  14.614  1.4085  0.1308  0.1936
14625TIP3    H265291   5.884   2.568  14.545 -0.3587 -0.1326 -0.5525
14626TIP3   OH265292   0.025   1.643  14.538  0.2347  0.8158 -0.2405
14626TIP3    H165293   0.040   1.560  14.492  1.8836  1.0038 -0.0833
14626TIP3    H265294   0.090   1.703  14.503  1.2825  1.0830  1.9946
14627TIP3   OH265295   5.560   5.377  15.296 -0.3108  0.2634 -0.0464
14627TIP3    H165296   5.551   5.319  15.221 -0.7120  1.6633 -1.1171
14627TIP3    H265297   5.655   5.390  15.304  0.2187 -3.5331  2.6639
14628TIP3   OH265298   6.099   2.614  10.696  0.1531 -0.3958  0.3569
14628TIP3    H165299   6.059   2.527  10.699  0.1788 -0.4614 -0.8863
14628TIP3    H265300   6.130   2.623  10.606 -0.0364  0.9887  0.4122
14629TIP3   OH265301   6.038   1.394  14.525 -0.3115  0.2868  0.2707
14629TIP3    H165302   5.970   1.420  14.587 -2.0485  0.4320 -1.6370
14629TIP3    H265303   6.007   1.423  14.440  2.5917  1.2286 -0.6120
14630TIP3   OH265304   0.635   3.457  14.466  0.7644 -0.1618  0.6982
14630TIP3    H165305   0.701   3.525  14.482  0.2071  0.6406 -0.3050
14630TIP3    H265306   0.567   3.474  14.532  1.6910 -1.2363  2.0002
14631TIP3   OH265307   5.028   5.403   6.343  0.7806  0.1700  0.0842
14631TIP3    H165308   4.993   5.480   6.298  0.9038 -0.3714 -0.9696
14631TIP3    H265309   5.033   5.336   6.275  0.1092 -0.9639  1.1125
14632TIP3   OH265310   3.508   5.467  12.105 -0.3610  0.1062  0.3662
14632TIP3    H165311   3.476   5.549  12.068  0.5277  0.2987 -0.0198
14632TIP3    H265312   3.520   5.485  12.198  0.0539  0.4906  0.2401
14633TIP3   OH265313   0.240   5.113  12.749 -0.4664 -0.2432 -0.2011
14633TIP3    H165314   0.252   5.033  12.801  0.8360 -0.8200 -1.3054
14633TIP3    H265315   0.202   5.082  12.667  1.8347 -0.0806 -1.4186
14634TIP3   OH265316   1.455   0.125  13.118 -0.3980  0.3841  0.2940
14634TIP3    H165317   1.530   0.178  13.145  0.4022 -1.4743  2.0269
14634TIP3    H265318   1.487   0.035  13.120 -2.1372 -0.3300 -0.9498
14635TIP3   OH265319   0.089   3.772   1.821 -0.2272  0.2731 -0.7142
14635TIP3    H165320   0.151   3.843   1.832 -1.1329  0.9785 -0.0302
14635TIP3    H265321   0.005   3.807   1.852 -0.4603 -1.4675  0.8579
14636TIP3   OH265322   2.137   6.600  16.572 -0.5924  0.0566 -0.0327
14636TIP3    H165323   2.078   6.546  16.520 -2.8837  2.6664 -0.3643
14636TIP3    H265324   2.090   6.615  16.654  0.6223  0.3848  0.6285
14637TIP3   OH265325   0.559   0.050  12.600  0.1797  0.2319  0.1996
14637TIP3    H165326   0.546   0.038  12.694  0.6250  0.9077  0.3597
14637TIP3    H265327   0.480   0.096  12.571  1.1025  2.3286  0.7529
14638TIP3   OH265328   0.112   5.872   1.015 -0.8757 -0.0956  0.2550
14638TIP3    H165329   0.174   5.941   0.991  0.8551 -1.8118 -0.4717
14638TIP3    H265330   0.141   5.795   0.966 -2.9574 -1.2855  0.7376
14639TIP3   OH265331   2.629   5.407  14.615 -0.3440  0.0025  0.1283
14639TIP3    H165332   2.586   5.322  14.618  2.8576 -1.9558 -2.6086
14639TIP3    H265333   2.635   5.428  14.522  3.5375  0.5506  0.3352
14640TIP3   OH265334   2.891   1.428   3.256 -0.1124  0.0912 -0.6191
14640TIP3    H165335   2.897   1.333   3.253 -1.9926 -0.1375  1.0233
14640TIP3    H265336   2.839   1.451   3.179 -1.9938 -0.5268  0.3992
14641TIP3   OH265337   5.313   1.235  13.691 -0.6770  0.3827 -0.1475
14641TIP3    H165338   5.400   1.263  13.720  0.2698 -0.4363 -2.0825
14641TIP3    H265339   5.305   1.145  13.722 -0.6726  0.3140 -0.3483
14642TIP3   OH265340   3.342   4.279  17.099  0.3986 -0.3282  0.5193
14642TIP3    H165341   3.361   4.282  17.193  1.0751 -0.7499  0.4022
14642TIP3    H265342   3.248   4.295  17.093  0.2408 -0.8975  1.3164
14643TIP3   OH265343   6.606   0.898   1.846  0.0661 -0.0834  0.4888
14643TIP3    H165344   6.583   0.965   1.911  2.0514 -1.1371  2.4015
14643TIP3    H265345   6.660   0.944   1.783 -2.7759  1.2208 -1.2171
14644TIP3   OH265346   0.035   6.489  15.405  0.5381 -0.3673  0.0952
14644TIP3    H165347   0.091   6.562  15.432 -0.1343  0.3897 -0.5128
14644TIP3    H265348   0.079   6.412  15.440  3.4607 -0.1201 -2.5660
14645TIP3   OH265349   0.114   4.625   2.004  0.2569 -0.1518 -0.2948
14645TIP3    H165350   0.050   4.633   1.933 -0.2944 -0.6006  0.1405
14645TIP3    H265351   0.198   4.614   1.960  0.3501  2.3557 -0.9083
14646TIP3   OH265352   4.454   0.033  17.165 -0.0135  0.4016  0.2168
14646TIP3    H165353   4.444   0.049  17.259  0.2141  0.7457  0.1824
14646TIP3    H265354   4.547   0.019  17.153 -0.2577 -1.7139  0.3600
14647TIP3   OH265355   6.162   5.649   1.109  0.1293 -0.3766 -0.3405
14647TIP3    H165356   6.199   5.737   1.119 -1.6476  0.4757 -0.7408
14647TIP3    H265357   6.156   5.615   1.198  3.0445 -1.1443 -0.3280
14648TIP3   OH265358   6.653   5.155  15.207 -0.2136 -0.0319  0.4745
14648TIP3    H165359   6.582   5.119  15.154  1.2140 -2.1504 -0.1472
14648TIP3    H265360   6.731   5.147  15.152  0.8730  0.1931  1.9171
14649TIP3   OH265361   3.583   0.638  11.644 -0.0413  0.0932  0.0406
14649TIP3    H165362   3.604   0.627  11.737 -0.1439 -0.1194  0.0412
14649TIP3    H265363   3.584   0.548  11.609 -1.0388  0.0603  0.0662
14650TIP3   OH265364   3.975   0.200   0.686  0.4164 -0.1886 -0.1581
14650TIP3    H165365   4.013   0.263   0.625  2.0661 -0.2152  0.7885
14650TIP3    H265366   3.988   0.115   0.643  0.5724 -0.1131 -0.2625
14651TIP3   OH265367   1.662   3.305   4.129  0.3018 -0.0698  0.3118
14651TIP3    H165368   1.721   3.262   4.067  1.4496  0.5775  0.9253
14651TIP3    H265369   1.603   3.357   4.074  1.9905  1.3526 -0.2475
14652TIP3   OH265370   0.120   3.610   3.600 -0.4581 -0.0747 -0.0546
14652TIP3    H165371   0.073   3.662   3.665  1.2355  0.5403  0.7417
14652TIP3    H265372   0.209   3.645   3.601  0.4335 -2.1658 -0.4003
14653TIP3   OH265373   3.500   3.779  15.492  0.4875 -0.4423 -0.5753
14653TIP3    H165374   3.462   3.691  15.483 -0.6209  0.0836 -1.1236
14653TIP3    H265375   3.563   3.770  15.563 -0.3619 -1.4435  0.0778
14654TIP3   OH265376   5.968   3.644  15.926 -0.0808 -0.0756  0.2114
14654TIP3    H165377   5.945   3.714  15.988  2.7224  0.3631  0.9137
14654TIP3    H265378   5.980   3.689  15.842 -1.1673 -0.2256 -0.0368
14655TIP3   OH265379   2.138   4.105  14.187 -0.1081  0.2346  0.1094
14655TIP3    H165380   2.089   4.186  14.197  0.6116  0.6474  0.3213
14655TIP3    H265381   2.200   4.104  14.260 -0.0138 -0.4331  0.0310
14656TIP3   OH265382   3.045   1.511  17.173  0.4879  1.1135 -0.5950
14656TIP3    H165383   3.090   1.552  17.247 -0.8720 -0.0396  0.9338
14656TIP3    H265384   3.114   1.464  17.126  0.9428 -0.8276  1.8327
14657TIP3   OH265385   1.640   1.532   4.122  0.0699 -0.0625  0.3141
14657TIP3    H165386   1.669   1.619   4.095  2.2543 -0.6285  0.6738
14657TIP3    H265387   1.670   1.523   4.212 -0.7733 -0.9288  0.5264
14658TIP3   OH265388   2.602   6.759   2.198  0.3143 -0.0289  0.3357
14658TIP3    H165389   2.599   6.735   2.106 -1.8076 -1.4955  0.7161
14658TIP3    H265390   2.658   6.837   2.201 -0.5267  0.7933 -2.3571
14659TIP3   OH265391   6.339   0.864  15.643 -0.2108  0.0582  0.2378
14659TIP3    H165392   6.270   0.925  15.617  0.1657 -0.3067 -1.7849
14659TIP3    H265393   6.374   0.900  15.725 -2.4435  0.4944  1.0750
14660TIP3   OH265394   6.194   4.161  13.359 -0.5192  0.0800  0.4003
14660TIP3    H165395   6.171   4.215  13.435 -0.5168  0.4462  0.1414
14660TIP3    H265396   6.276   4.199  13.327  0.4467 -1.1838  1.2822
14661TIP3   OH265397   2.306   3.564  13.940 -0.0926 -0.0194 -0.3019
14661TIP3    H165398   2.365   3.627  13.981 -1.2951  0.5335  0.6089
14661TIP3    H265399   2.273   3.610  13.863  1.1935 -0.6014 -1.2435
14662TIP3   OH265400   2.199   6.681   0.822 -0.2658 -0.1388  0.0136
14662TIP3    H165401   2.194   6.772   0.793  1.1515 -0.2373 -0.6172
14662TIP3    H265402   2.123   6.639   0.782  0.3161  0.2785 -1.6389
14663TIP3   OH265403   4.315   1.139  16.095  0.3355  0.2985 -0.3486
14663TIP3    H165404   4.331   1.219  16.044  4.0804 -0.0081  0.0531
14663TIP3    H265405   4.348   1.068  16.040  2.3537 -0.2651  1.4248
14664TIP3   OH265406   5.319   6.221   1.895 -0.2423  0.0211 -0.3695
14664TIP3    H165407   5.388   6.161   1.865 -0.2894  0.3120 -1.0915
14664TIP3    H265408   5.274   6.174   1.964 -0.9646 -1.2261 -1.6423
14665TIP3   OH265409   6.041   5.885   3.701 -0.4695  0.3778  0.1560
14665TIP3    H165410   5.971   5.939   3.736 -0.2738  0.4842  0.3879
14665TIP3    H265411   6.114   5.945   3.688 -0.2260  0.1566  0.4868
14666TIP3   OH265412   3.321   0.731  13.535 -0.0060 -0.6475 -0.1411
14666TIP3    H165413   3.313   0.678  13.615  0.8199 -0.1539  0.2741
14666TIP3    H265414   3.328   0.666  13.464  0.3156 -1.0886  0.2890
14667TIP3   OH265415   4.743   0.502  15.220 -0.2006  0.3955 -0.5521
14667TIP3    H165416   4.767   0.572  15.280  1.0249  0.5661 -1.2203
14667TIP3    H265417   4.654   0.524  15.191 -0.4830  0.7486  0.5371
14668TIP3   OH265418   1.452   3.922   0.257 -0.2583 -0.3546 -0.2870
14668TIP3    H165419   1.382   3.986   0.241  0.6256  0.7472  0.0814
14668TIP3    H265420   1.456   3.870   0.178 -0.1837  0.8723 -1.1260
14669TIP3   OH265421   0.789   2.165  11.640 -0.0759  0.5998 -0.0229
14669TIP3    H165422   0.783   2.246  11.590  0.9252  1.2240  0.8313
14669TIP3    H265423   0.832   2.103  11.581 -0.7218  0.7168 -0.6311
14670TIP3   OH265424   4.167   2.923   3.275 -0.2930  0.6146  0.1744
14670TIP3    H165425   4.157   2.873   3.357 -0.4460  0.4543  0.0581
14670TIP3    H265426   4.099   2.888   3.217  0.6864 -0.2494 -0.5007
14671TIP3   OH265427   3.511   4.456  16.365 -0.4792  0.2103 -0.4881
14671TIP3    H165428   3.436   4.435  16.420  0.5398 -0.0917  0.8643
14671TIP3    H265429   3.561   4.520  16.417 -0.2441  1.0897 -1.7482
14672TIP3   OH265430   1.631   6.653  15.604  0.0207 -0.7498  0.5634
14672TIP3    H165431   1.680   6.735  15.604 -1.0442 -0.0811  1.8082
14672TIP3    H265432   1.604   6.641  15.513  0.7452 -0.0661  0.2494
14673TIP3   OH265433   0.387   1.982  14.087  0.0713  0.1942  0.2549
14673TIP3    H165434   0.367   2.027  14.169  1.0598 -0.6498  0.9778
14673TIP3    H265435   0.430   1.902  14.114  1.1503  0.2834 -1.1332
14674TIP3   OH265436   4.622   2.470   5.163  0.1163  0.6499 -0.6825
14674TIP3    H165437   4.627   2.520   5.082 -1.3215  2.0454  0.0564
14674TIP3    H265438   4.544   2.501   5.207 -0.8509 -2.2229 -0.1245
14675TIP3   OH265439   1.919   1.278  15.158  0.1396  0.3493 -0.3183
14675TIP3    H165440   1.880   1.196  15.186  1.4768 -0.6470 -1.2540
14675TIP3    H265441   1.855   1.345  15.184 -0.3360 -0.8095  1.7626
14676TIP3   OH265442   3.870   0.357   3.561  0.6659  0.4683 -0.3210
14676TIP3    H165443   3.905   0.339   3.648  1.3135 -0.8909 -0.8352
14676TIP3    H265444   3.947   0.363   3.505  0.2028 -0.0196 -1.0249
14677TIP3   OH265445   1.920   3.050   0.020  0.4174 -0.3859 -0.2491
14677TIP3    H165446   1.859   3.124   0.015  1.2541  0.4342  1.0075
14677TIP3    H265447   1.894   3.003   0.100  1.7309  0.2893  0.6062
14678TIP3   OH265448   2.411   4.754   6.247  0.4225 -0.2366 -0.0814
14678TIP3    H165449   2.491   4.739   6.298 -0.0359  0.5965  0.9283
14678TIP3    H265450   2.344   4.702   6.292 -0.3107  1.6107  1.1266
14679TIP3   OH265451   0.565   6.505   3.553  0.1661  0.2714 -0.1994
14679TIP3    H165452   0.524   6.433   3.505  2.9811  0.0402 -2.5128
14679TIP3    H265453   0.608   6.462   3.627  0.2649 -0.1723 -0.5083
14680TIP3   OH265454   0.562   2.697  14.938 -0.4071  0.2460  0.0417
14680TIP3    H165455   0.610   2.703  14.855  0.8556 -1.4997  0.5979
14680TIP3    H265456   0.630   2.694  15.005 -1.3961  2.4688  1.2935
14681TIP3   OH265457   4.986   3.134   6.357 -0.0188  0.1938 -0.3159
14681TIP3    H165458   5.057   3.075   6.382 -1.3845 -0.6100  1.9784
14681TIP3    H265459   4.919   3.077   6.319 -0.3238  0.6324 -0.4487
14682TIP3   OH265460   0.227   5.334  11.283  0.5331 -0.0606 -0.2422
14682TIP3    H165461   0.236   5.366  11.373 -1.7227 -0.7976  0.3121
14682TIP3    H265462   0.288   5.261  11.278  1.8274  0.9509  0.1605
14683TIP3   OH265463   5.556   2.784   4.024  0.1200 -0.2468  0.1530
14683TIP3    H165464   5.486   2.791   4.090 -1.4910 -1.0739 -1.3858
14683TIP3    H265465   5.569   2.874   3.993 -0.7531 -0.1711 -0.0152
14684TIP3   OH265466   2.685   1.772  16.331 -0.2992 -0.5529 -0.3277
14684TIP3    H165467   2.600   1.791  16.370  1.3175  0.9492  2.7874
14684TIP3    H265468   2.700   1.845  16.270 -0.2876  0.4936  0.8823
14685TIP3   OH265469   5.742   6.672  14.363  0.6315 -0.1148 -0.1705
14685TIP3    H165470   5.719   6.763  14.345  2.7459  0.5202 -0.0363
14685TIP3    H265471   5.746   6.630  14.277  1.8859  0.5647 -0.4793
14686TIP3   OH265472   4.424   4.606   0.947  0.9305  0.5417 -0.2532
14686TIP3    H165473   4.435   4.644   1.034 -2.4820  2.3001 -0.3873
14686TIP3    H265474   4.497   4.640   0.896  2.3404  0.4432  1.6189
14687TIP3   OH265475   2.625   4.495   4.992  0.2498 -0.2456  0.4517
14687TIP3    H165476   2.638   4.577   4.946 -1.3012  0.2488  0.8386
14687TIP3    H265477   2.532   4.495   5.017  0.5673 -1.4078  1.8035
14688TIP3   OH265478   6.030   6.714   5.463  0.0986 -0.0515  0.4221
14688TIP3    H165479   5.996   6.662   5.390  0.4127 -0.0998  0.3082
14688TIP3    H265480   6.119   6.681   5.477 -0.2211 -0.5403  1.3117
14689TIP3   OH265481   0.531   3.153  15.576 -0.1520 -0.1623  0.0695
14689TIP3    H165482   0.462   3.208  15.539  0.5799  0.3219 -0.6024
14689TIP3    H265483   0.609   3.208  15.575  0.3835 -0.9001  0.2658
14690TIP3   OH265484   5.304   2.062  15.931  0.1583 -0.3248  0.4656
14690TIP3    H165485   5.240   2.076  15.862 -0.9401 -1.7371  1.1446
14690TIP3    H265486   5.281   2.127  15.998 -0.3622 -0.5955  0.5571
14691TIP3   OH265487   3.949   1.512  11.955 -0.3206 -0.2884  0.3057
14691TIP3    H165488   3.982   1.422  11.961 -0.9404 -0.8650 -3.0147
14691TIP3    H265489   4.022   1.561  11.917 -0.2728  0.4979  1.3555
14692TIP3   OH265490   6.684   0.320   2.922  0.2241 -0.1791  0.0212
14692TIP3    H165491   6.728   0.402   2.943  1.2573 -0.5666 -0.5759
14692TIP3    H265492   6.675   0.322   2.827  0.0023 -0.6313  0.0311
14693TIP3   OH265493   3.876   3.018   2.908  0.3820 -0.0716 -0.0884
14693TIP3    H165494   3.797   2.970   2.884  0.3633  0.0329 -0.2330
14693TIP3    H265495   3.850   3.070   2.984  0.6134 -0.8842  0.5626
14694TIP3   OH265496   3.450   4.786  13.899  0.0048  0.0306  0.2382
14694TIP3    H165497   3.530   4.834  13.877  1.0845 -2.2734 -1.2591
14694TIP3    H265498   3.406   4.773  13.815 -1.3034  0.1312  0.8835
14695TIP3   OH265499   5.713   3.110   1.835  0.3938 -0.3421  0.2030
14695TIP3    H165500   5.638   3.136   1.782  0.4965 -0.1580  0.1471
14695TIP3    H265501   5.720   3.015   1.822  0.8388 -0.1996 -0.6640
14696TIP3   OH265502   1.407   2.534  11.299 -0.5384 -0.2818  0.1968
14696TIP3    H165503   1.328   2.586  11.308 -0.2729 -0.1093  1.8406
14696TIP3    H265504   1.461   2.558  11.375  1.5781  0.4100 -1.4133
14697TIP3   OH265505   1.624   5.150   4.343 -0.2842  0.0573 -0.2642
14697TIP3    H165506   1.626   5.116   4.253 -0.5742 -0.3964 -0.1014
14697TIP3    H265507   1.540   5.120   4.378 -0.3840  0.6364  0.0065
14698TIP3   OH265508   5.658   0.088  11.215 -0.3532  0.3038  0.0085
14698TIP3    H165509   5.641   0.071  11.123  1.5162 -1.5980 -0.0486
14698TIP3    H265510   5.718   0.162  11.216 -0.0157  0.0335 -0.3220
14699TIP3   OH265511   0.808   3.073  11.492  0.2128 -0.3790  0.0728
14699TIP3    H165512   0.839   3.160  11.516  1.8798 -0.8859 -0.1491
14699TIP3    H265513   0.807   3.073  11.396 -0.7965 -0.2726  0.0749
14700TIP3   OH265514   0.096   6.511   3.513  0.1686  0.2749 -0.0054
14700TIP3    H165515   0.017   6.475   3.553  0.2021  0.7182  0.4810
14700TIP3    H265516   0.063   6.569   3.444  0.0879  0.0726 -0.1394
14701TIP3   OH265517   3.658   4.206  16.340  0.2703  0.5063  0.0488
14701TIP3    H165518   3.673   4.174  16.252 -2.4174 -1.2980  0.1060
14701TIP3    H265519   3.588   4.271  16.331 -1.8901 -1.5245  0.9640
14702TIP3   OH265520   6.586   0.667   2.618  0.8218  0.4543  0.3235
14702TIP3    H165521   6.629   0.746   2.650  2.1134 -0.3016  0.5540
14702TIP3    H265522   6.657   0.616   2.578 -0.1725 -0.0991 -0.8129
14703TIP3   OH265523   0.806   4.262   6.312  0.3742 -0.0256 -0.0150
14703TIP3    H165524   0.710   4.272   6.313  0.4255  0.5231  0.7759
14703TIP3    H265525   0.832   4.290   6.225 -0.3200 -1.6432 -0.7847
14704TIP3   OH265526   5.819   5.334  16.330  0.3973  0.4899  0.1528
14704TIP3    H165527   5.898   5.386  16.318 -0.0834  1.2645  0.3273
14704TIP3    H265528   5.815   5.317  16.424  0.4199  0.3359  0.1267
14705TIP3   OH265529   5.646   5.767   0.535 -0.1104 -0.5531 -0.3125
14705TIP3    H165530   5.636   5.761   0.440  0.2861  0.1406 -0.4045
14705TIP3    H265531   5.740   5.772   0.549 -0.2068  0.6588  0.0259
14706TIP3   OH265532   0.763   1.572  11.007 -0.3678  0.3812 -0.1918
14706TIP3    H165533   0.767   1.602  11.097 -0.8731 -1.5928  0.5418
14706TIP3    H265534   0.853   1.548  10.985 -0.1479  1.3729 -0.4304
14707TIP3   OH265535   3.721   3.417   3.486 -0.0617  0.3065 -0.6899
14707TIP3    H165536   3.690   3.497   3.528  0.2153 -0.3628  0.8288
14707TIP3    H265537   3.682   3.346   3.536 -1.1449 -0.5604 -2.6473
14708TIP3   OH265538   3.377   5.663  11.202 -0.3104  0.4834 -0.3748
14708TIP3    H165539   3.366   5.690  11.293 -1.0875  1.8119 -0.8284
14708TIP3    H265540   3.303   5.605  11.185 -0.8195  1.1411 -0.4646
14709TIP3   OH265541   5.634   5.248   5.111  0.0282  0.1909  0.4290
14709TIP3    H165542   5.613   5.296   5.030  0.2215 -0.1705  0.1594
14709TIP3    H265543   5.730   5.251   5.116  0.4598 -3.4238 -1.6862
14710TIP3   OH265544   6.246   4.372   5.783  0.0341  0.3505  0.3782
14710TIP3    H165545   6.181   4.401   5.719  0.1043  2.1255  1.0639
14710TIP3    H265546   6.196   4.324   5.848 -0.1764 -0.6386 -0.4900
14711TIP3   OH265547   1.194   1.425  14.458  0.8748 -0.4167  0.2672
14711TIP3    H165548   1.181   1.339  14.499  1.6207 -1.0286 -0.7372
14711TIP3    H265549   1.108   1.466  14.460  0.4680 -1.2675  0.5895
14712TIP3   OH265550   2.646   0.915  13.070 -0.1421  0.1290  0.3589
14712TIP3    H165551   2.689   0.891  13.152  0.3185  0.4677  0.2247
14712TIP3    H265552   2.662   0.839  13.013 -3.4787 -1.7107  1.6078
14713TIP3   OH265553   4.732   3.891  14.799  0.4013  0.2689  0.2078
14713TIP3    H165554   4.727   3.966  14.857 -1.1701  0.0825  0.3571
14713TIP3    H265555   4.803   3.912  14.739  0.8879  1.2488  1.0936
14714TIP3   OH265556   5.717   0.346   1.279  0.5724  0.2164 -0.3616
14714TIP3    H165557   5.639   0.394   1.250 -1.5691 -1.1337  2.6237
14714TIP3    H265558   5.780   0.415   1.302 -1.1597  1.5425  0.6692
14715TIP3   OH265559   3.166   6.243  16.589 -0.7568  1.0103 -0.2459
14715TIP3    H165560   3.183   6.312  16.525 -1.4058  0.8187 -0.6295
14715TIP3    H265561   3.253   6.210  16.612 -0.4859  1.4525 -0.6131
14716TIP3   OH265562   1.014   3.926  15.302  0.2888  1.0245  0.4560
14716TIP3    H165563   0.959   3.874  15.361 -0.8648  0.1520 -1.3079
14716TIP3    H265564   0.962   4.004  15.284  0.3888  1.0223  0.1549
14717TIP3   OH265565   1.031   2.521  13.910  0.4415 -0.6409 -0.1005
14717TIP3    H165566   1.011   2.428  13.922 -1.7665 -0.2131 -0.2225
14717TIP3    H265567   0.985   2.565  13.981  2.2513  0.3222  0.5372
14718TIP3   OH265568   2.282   1.166   0.500 -0.3953 -0.3708  0.0791
14718TIP3    H165569   2.351   1.210   0.549 -0.6079 -1.8261  1.8341
14718TIP3    H265570   2.201   1.201   0.536 -0.5580 -0.7011  0.0406
14719TIP3   OH265571   1.972   0.498   1.348  0.0021 -0.0730 -0.3949
14719TIP3    H165572   1.948   0.539   1.264 -0.4322 -0.2341 -0.3539
14719TIP3    H265573   1.945   0.562   1.414  0.7920  0.2657 -0.3960
14720TIP3   OH265574   6.706   0.306  13.555  0.1075  0.4347 -0.2218
14720TIP3    H165575   6.683   0.287  13.464  0.2070 -0.7324 -0.0214
14720TIP3    H265576   6.622   0.322  13.598  0.0286  0.5767 -0.4288
14721TIP3   OH265577   2.495   4.781  12.641 -0.7337 -0.5141  0.1109
14721TIP3    H165578   2.504   4.820  12.555  1.2856 -1.9683 -0.3898
14721TIP3    H265579   2.490   4.687  12.625  0.1684 -0.8500  1.6006
14722TIP3   OH265580   6.086   2.052  15.644 -0.3160 -0.1939  0.9611
14722TIP3    H165581   6.179   2.031  15.643 -0.5744 -1.5701 -0.7519
14722TIP3    H265582   6.044   1.975  15.605 -2.1103  0.6235  1.1674
14723TIP3   OH265583   5.259   5.297   3.648  0.2802 -0.3340  0.3872
14723TIP3    H165584   5.228   5.271   3.561 -1.3707  1.8242  0.2636
14723TIP3    H265585   5.193   5.265   3.708 -0.6914  1.5730  0.4164
14724TIP3   OH265586   2.970   3.848  16.217 -0.1269  0.0399 -0.1710
14724TIP3    H165587   2.928   3.835  16.302  0.6132  0.5619  0.2882
14724TIP3    H265588   3.060   3.818  16.230  0.0703  0.4082 -0.6770
14725TIP3   OH265589   0.917   0.550  16.261  0.1280  0.3747 -0.2051
14725TIP3    H165590   0.850   0.586  16.204  0.0223  0.6931  0.1169
14725TIP3    H265591   0.997   0.596  16.235 -0.1751  1.5718  0.8369
14726TIP3   OH265592   3.909   4.110  12.813 -0.0605 -0.2998 -0.1422
14726TIP3    H165593   3.869   4.080  12.895  1.4897 -1.2992  0.2952
14726TIP3    H265594   3.857   4.185  12.787 -0.9747 -0.3376  1.4365
14727TIP3   OH265595   5.077   5.879  15.335 -0.0655  0.0327  0.1479
14727TIP3    H165596   5.043   5.818  15.401 -1.1813  1.3061  0.7951
14727TIP3    H265597   5.005   5.888  15.272 -0.4658  1.7081  0.7999
14728TIP3   OH265598   0.202   1.608  16.018  0.3182  0.3241  0.2243
14728TIP3    H165599   0.234   1.672  15.954  1.4843 -0.9497 -0.5193
14728TIP3    H265600   0.190   1.527  15.968 -0.2082 -0.3044  1.3285
14729TIP3   OH265601   3.826   6.274   6.055 -0.3918 -0.2433 -0.2709
14729TIP3    H165602   3.849   6.186   6.028 -2.2150 -0.2346 -2.0717
14729TIP3    H265603   3.883   6.292   6.129  2.2376 -1.7221 -1.8055
14730TIP3   OH265604   6.705   3.542  16.057  0.5042 -0.0763 -0.0115
14730TIP3    H165605   6.732   3.614  16.000  2.1100  0.0887  0.8809
14730TIP3    H265606   6.655   3.583  16.127 -2.8460 -0.4485 -1.9852
14731TIP3   OH265607   6.153   0.743  12.761  0.1154 -0.4264  0.7576
14731TIP3    H165608   6.137   0.716  12.852 -2.8177  0.8624  0.7275
14731TIP3    H265609   6.109   0.677  12.708  1.3349 -0.8546  0.2334
14732TIP3   OH265610   2.979   5.659   1.525  0.5906  1.0862 -0.3793
14732TIP3    H165611   2.933   5.589   1.571  0.6399  2.4862  1.9612
14732TIP3    H265612   3.048   5.614   1.476 -1.1098 -0.7219 -1.2635
14733TIP3   OH265613   0.048   1.271   0.308 -0.4588 -0.5654  0.5126
14733TIP3    H165614   0.138   1.246   0.328 -0.2935  0.0490  0.5541
14733TIP3    H265615   0.030   1.228   0.224  0.5186  0.7612 -0.4390
14734TIP3   OH265616   3.055   3.349  14.399  0.1250  0.2199 -0.0968
14734TIP3    H165617   3.128   3.288  14.413  0.2457  0.5320  0.6551
14734TIP3    H265618   3.009   3.351  14.482 -2.2641 -1.8813 -1.2004
14735TIP3   OH265619   1.472   6.172  14.882  0.2129  0.2577  0.6162
14735TIP3    H165620   1.395   6.162  14.827  0.0238  0.8609  0.7613
14735TIP3    H265621   1.540   6.205  14.823  0.0771  0.6749  0.6879
14736TIP3   OH265622   1.185   0.408  16.370 -0.4914  0.1529 -0.0281
14736TIP3    H165623   1.113   0.464  16.398 -1.1206 -1.1921  1.1693
14736TIP3    H265624   1.142   0.336  16.323  0.2392  0.2845 -0.9278
14737TIP3   OH265625   3.023   1.383  13.193  0.6625  0.7157  0.6672
14737TIP3    H165626   3.070   1.307  13.227  0.6186  1.2407  1.9628
14737TIP3    H265627   3.091   1.448  13.176  0.8077  0.1074 -1.3397
14738TIP3   OH265628   2.204   2.204  12.893  0.7305  0.2960  0.3546
14738TIP3    H165629   2.113   2.227  12.912  1.0173  1.6440  0.2005
14738TIP3    H265630   2.199   2.156  12.810  0.0921 -0.3029  0.7308
14739TIP3   OH265631   2.701   4.083   5.606 -0.0497 -0.0992  0.1732
14739TIP3    H165632   2.633   4.097   5.540 -0.1935  1.1687  0.5604
14739TIP3    H265633   2.675   4.138   5.680  0.5969 -0.7768  0.9303
14740TIP3   OH265634   4.237   3.931   1.682 -0.3626 -0.5419 -0.3483
14740TIP3    H165635   4.168   3.991   1.655 -0.3591  0.9554  2.5245
14740TIP3    H265636   4.200   3.884   1.757  0.6030 -2.2038 -0.8508
14741TIP3   OH265637   5.908   5.260   0.593 -0.5333  0.1620 -0.7410
14741TIP3    H165638   5.901   5.172   0.629  0.7225  1.1492  2.2869
14741TIP3    H265639   5.827   5.273   0.545 -1.2026 -2.2707 -0.4068
14742TIP3   OH265640   1.154   2.672  12.699  0.5465  0.2726  0.5732
14742TIP3    H165641   1.143   2.767  12.699 -1.0266  0.1685  2.7898
14742TIP3    H265642   1.078   2.639  12.652  0.9897  0.0858 -0.0247
14743TIP3   OH265643   2.551   2.939  14.326  0.2025 -0.2297  0.0171
14743TIP3    H165644   2.632   2.893  14.302 -0.5429 -0.6127 -1.9798
14743TIP3    H265645   2.541   3.006  14.258 -1.2697 -0.3342  0.1040
14744TIP3   OH265646   0.161   0.453  14.959 -0.5410  0.0552 -0.6008
14744TIP3    H165647   0.177   0.358  14.958 -0.5271 -0.0026 -3.6453
14744TIP3    H265648   0.070   0.461  14.987  0.5396 -0.4551  3.8253
14745TIP3   OH265649   2.253   6.123  16.137 -0.0272  0.1430  0.3727
14745TIP3    H165650   2.224   6.032  16.128  1.2011 -0.1938 -0.5027
14745TIP3    H265651   2.290   6.144  16.051 -1.4190  1.8967  0.1505
14746TIP3   OH265652   0.326   2.080   1.821  0.1069 -0.1422  0.1374
14746TIP3    H165653   0.263   2.028   1.771  0.2735  0.5682 -0.8455
14746TIP3    H265654   0.282   2.098   1.904 -1.4674  1.2752 -0.9387
14747TIP3   OH265655   5.746   2.725  12.559 -0.4253 -0.1634  0.2931
14747TIP3    H165656   5.789   2.707  12.475 -1.5947 -0.2311 -0.3114
14747TIP3    H265657   5.682   2.654  12.568  0.5614 -0.9236  1.8942
14748TIP3   OH265658   2.858   3.951   2.621 -0.6672 -0.4058 -0.3717
14748TIP3    H165659   2.881   3.904   2.701  0.2927 -0.1426 -0.4782
14748TIP3    H265660   2.868   4.044   2.644  1.9572 -0.3540 -1.4173
14749TIP3   OH265661   0.891   6.174  12.131 -0.1891  0.4005 -0.5108
14749TIP3    H165662   0.814   6.229  12.148 -0.9777 -0.7624 -0.1457
14749TIP3    H265663   0.965   6.231  12.150 -0.9603  0.5970  2.5876
14750TIP3   OH265664   2.359   4.093   0.381  0.5068 -0.5235  0.1217
14750TIP3    H165665   2.402   4.075   0.465 -0.5921 -1.5956  0.4877
14750TIP3    H265666   2.415   4.052   0.316  0.5406 -1.1020  0.5045
14751TIP3   OH265667   5.779   1.239  14.933 -0.5107  0.5385 -0.0138
14751TIP3    H165668   5.703   1.294  14.953 -1.7317 -1.7303  2.3078
14751TIP3    H265669   5.742   1.162  14.890  0.5450 -0.3465  0.6071
14752TIP3   OH265670   2.960   5.244   5.876  0.0600 -0.1405 -0.1871
14752TIP3    H165671   2.885   5.231   5.934  0.9100  0.8273  1.1933
14752TIP3    H265672   3.024   5.178   5.903 -0.6235 -1.6680 -2.0558
14753TIP3   OH265673   5.235   3.694   3.759 -0.3765  0.2021 -0.4283
14753TIP3    H165674   5.226   3.773   3.704 -0.4946 -0.2848 -1.1273
14753TIP3    H265675   5.328   3.689   3.778 -0.5506  1.3343  0.8874
14754TIP3   OH265676   2.409   6.038  17.053  0.0776  0.1674  0.0767
14754TIP3    H165677   2.499   6.052  17.023 -0.0927 -1.2319 -1.1706
14754TIP3    H265678   2.355   6.081  16.987 -0.2461 -1.5050 -0.7866
14755TIP3   OH265679   1.889   1.407   0.067  0.2911  0.1217  0.6410
14755TIP3    H165680   1.977   1.444   0.062  0.4523 -0.4266 -0.8050
14755TIP3    H265681   1.901   1.313   0.054 -0.6102  0.1721 -0.7237
14756TIP3   OH265682   1.012   2.010   4.882 -0.0471 -0.1119 -0.0305
14756TIP3    H165683   1.020   2.104   4.898 -0.7669  0.0654 -0.6598
14756TIP3    H265684   0.940   2.002   4.820  1.4593 -0.9268 -1.7468
14757TIP3   OH265685   5.887   5.574   1.129  0.6242  0.1713  0.1536
14757TIP3    H165686   5.981   5.553   1.126  0.7187  0.6122 -0.1252
14757TIP3    H265687   5.884   5.661   1.168  0.4169  0.6745 -0.9748
14758TIP3   OH265688   1.951   2.532  15.787 -0.5958 -0.0924  0.1575
14758TIP3    H165689   1.911   2.619  15.792  0.2714  0.3025  0.3346
14758TIP3    H265690   1.912   2.493  15.709 -0.0553  0.9382 -0.6573
14759TIP3   OH265691   1.474   5.265  12.532 -0.1978 -0.0433  0.7210
14759TIP3    H165692   1.473   5.359  12.547  0.2160 -0.0295  0.6619
14759TIP3    H265693   1.505   5.256  12.442 -3.1950 -0.0835 -0.4451
14760TIP3   OH265694   3.411   1.272  16.327  0.4543  0.9023 -1.0030
14760TIP3    H165695   3.340   1.328  16.297  1.2655  1.6735 -1.5559
14760TIP3    H265696   3.423   1.208  16.257 -0.3951  0.0776 -0.4243
14761TIP3   OH265697   6.235   6.080   3.701 -0.1369  0.3750  0.1369
14761TIP3    H165698   6.330   6.075   3.705 -0.1811 -0.5684  0.3779
14761TIP3    H265699   6.212   6.158   3.751  0.4465 -0.0989  1.1708
14762TIP3   OH265700   0.691   1.373  16.796  0.6454 -0.3247 -0.2332
14762TIP3    H165701   0.693   1.467  16.810  0.8533 -0.1215 -1.5376
14762TIP3    H265702   0.780   1.344  16.814  0.4666 -0.3510  0.6344
14763TIP3   OH265703   4.109   4.070   4.710  0.5616  0.2805 -0.2911
14763TIP3    H165704   4.173   4.046   4.777  1.2452  1.6722 -0.4181
14763TIP3    H265705   4.150   4.041   4.628  1.7747  2.4460 -0.5360
14764TIP3   OH265706   2.443   1.885  16.232  0.6515 -0.6549  0.0377
14764TIP3    H165707   2.422   1.908  16.323 -1.2136  2.8175 -1.0862
14764TIP3    H265708   2.393   1.804  16.216 -1.4247  0.2842  1.3180
14765TIP3   OH265709   3.834   5.667   4.643 -0.9258  0.0629 -0.1902
14765TIP3    H165710   3.885   5.735   4.599 -1.5361  0.3071 -0.5362
14765TIP3    H265711   3.887   5.588   4.633 -0.9492  0.1554 -1.1954
14766TIP3   OH265712   0.144   6.110   5.459  0.0280 -0.4286 -0.2967
14766TIP3    H165713   0.050   6.118   5.475  0.1115  0.2969 -0.1211
14766TIP3    H265714   0.173   6.038   5.514 -0.2883 -0.1449  0.2452
14767TIP3   OH265715   3.525   1.362   1.332 -0.6465 -0.1817  0.4618
14767TIP3    H165716   3.589   1.378   1.262 -0.1810  0.6987  1.0662
14767TIP3    H265717   3.571   1.388   1.412 -1.0808 -1.3917  1.1413
14768TIP3   OH265718   5.864   3.587  13.851 -0.2724 -0.4108 -0.2733
14768TIP3    H165719   5.865   3.598  13.755 -0.1731  1.1759 -0.1221
14768TIP3    H265720   5.945   3.628  13.880 -1.7449  2.0267  0.7149
14769TIP3   OH265721   1.500   2.888  16.490  0.3186  0.3484 -0.3246
14769TIP3    H165722   1.427   2.949  16.481  0.7062  1.1812  1.6080
14769TIP3    H265723   1.577   2.938  16.461  0.3534  0.0112 -0.8309
14770TIP3   OH265724   6.250   4.643   6.739 -0.2653  0.5891 -0.3977
14770TIP3    H165725   6.256   4.608   6.650  0.4143  0.1571 -0.1931
14770TIP3    H265726   6.316   4.712   6.742  0.5626 -0.1971  0.1137
14771TIP3   OH265727   6.094   1.670  12.392  0.0552 -0.0699 -0.4558
14771TIP3    H165728   6.051   1.715  12.320 -0.0851 -0.3154 -0.5229
14771TIP3    H265729   6.043   1.695  12.470  1.4134  1.8904 -0.1047
14772TIP3   OH265730   6.733   2.604  14.375  0.2753  0.1324  0.1043
14772TIP3    H165731   6.796   2.664  14.416  0.3315  0.8785 -1.0407
14772TIP3    H265732   6.671   2.661  14.331 -0.1762 -0.6400 -0.2792
14773TIP3   OH265733   6.738   4.242   4.899  0.5777  0.1194  0.0691
14773TIP3    H165734   6.787   4.178   4.847 -1.8003 -1.8997  0.1370
14773TIP3    H265735   6.773   4.232   4.988  1.2037 -0.0154 -0.1839
14774TIP3   OH265736   2.763   1.022   4.304 -0.3813 -0.2165 -0.4059
14774TIP3    H165737   2.831   0.961   4.331  0.5380  0.0920 -1.8619
14774TIP3    H265738   2.706   0.971   4.246 -2.2563 -0.8455  1.8655
14775TIP3   OH265739   6.390   1.155   1.775 -0.3368  0.1177 -0.2671
14775TIP3    H165740   6.384   1.109   1.692 -1.3494  1.0092 -0.7141
14775TIP3    H265741   6.423   1.242   1.753 -1.3497  0.6221  0.1400
14776TIP3   OH265742   1.502   0.596  13.260 -0.0010 -0.1409  0.0836
14776TIP3    H165743   1.539   0.677  13.224 -0.3690 -0.1428 -0.3084
14776TIP3    H265744   1.554   0.526  13.219  0.5969 -0.0970  0.7456
14777TIP3   OH265745   1.000   5.836   4.531 -0.3559 -0.3809  0.0339
14777TIP3    H165746   1.069   5.770   4.523 -0.6489 -0.5448 -1.2577
14777TIP3    H265747   1.026   5.888   4.608  1.0410 -0.6228 -0.2502
14778TIP3   OH265748   1.648   0.567   1.435  0.2036 -0.2998 -0.6321
14778TIP3    H165749   1.637   0.472   1.448 -1.3960  0.0985  1.4916
14778TIP3    H265750   1.722   0.590   1.491 -1.4278  0.1256  1.4806
14779TIP3   OH265751   0.843   5.799  13.295 -0.2955  0.2319  0.4027
14779TIP3    H165752   0.782   5.726  13.285  1.5263 -1.2397 -0.3438
14779TIP3    H265753   0.801   5.871  13.248 -2.4468 -0.0563  1.7148
14780TIP3   OH265754   3.317   0.645   4.045 -0.1113  0.4459  0.2072
14780TIP3    H165755   3.286   0.575   4.103  3.0136 -0.0979  1.4420
14780TIP3    H265756   3.410   0.624   4.031  0.2785  2.9725 -1.5054
14781TIP3   OH265757   5.848   6.627   5.281  0.5691 -0.5758  0.1820
14781TIP3    H165758   5.804   6.544   5.263 -0.8887  0.5634 -1.9663
14781TIP3    H265759   5.924   6.627   5.222  1.3192 -0.8872  1.1148
14782TIP3   OH265760   6.499   3.178   5.281  0.0321 -0.1084 -0.0759
14782TIP3    H165761   6.413   3.219   5.278  0.9199  1.8456 -1.2169
14782TIP3    H265762   6.539   3.212   5.361  0.2319  0.0928 -0.2589
14783TIP3   OH265763   5.093   4.959  11.135  0.5072  0.0312 -0.1854
14783TIP3    H165764   5.129   4.922  11.054  1.8794 -0.2566  0.5114
14783TIP3    H265765   5.060   5.045  11.110 -1.4844 -1.0603 -1.5581
14784TIP3   OH265766   2.245   1.416  10.959  0.1710  0.1504  0.0924
14784TIP3    H165767   2.310   1.359  11.001 -0.5573 -1.2827 -0.6649
14784TIP3    H265768   2.294   1.464  10.893  0.6787 -0.0582  0.3086
14785TIP3   OH265769   0.193   5.596  14.688 -0.1252 -0.2002  0.8388
14785TIP3    H165770   0.219   5.507  14.713 -0.1103 -0.3416  0.3191
14785TIP3    H265771   0.099   5.600  14.706 -0.6427 -1.1057 -1.3582
14786TIP3   OH265772   3.277   0.632  15.555 -0.0546  0.3719 -0.3693
14786TIP3    H165773   3.352   0.665  15.606 -0.1107  0.8475 -0.5844
14786TIP3    H265774   3.200   0.661  15.605 -0.0950 -0.1177 -0.1474
14787TIP3   OH265775   6.025   6.586   4.815 -0.2967  0.3939 -0.5210
14787TIP3    H165776   6.120   6.574   4.824 -0.1584  2.1524  0.9649
14787TIP3    H265777   6.002   6.534   4.738  1.6460 -1.1501 -0.1656
14788TIP3   OH265778   5.314   0.001   5.520  0.1429 -0.3562 -0.6187
14788TIP3    H165779   5.273  -0.014   5.605  1.7494 -0.6256  0.1575
14788TIP3    H265780   5.386   0.061   5.539  0.1329  0.0845 -1.9117
14789TIP3   OH265781   5.365   5.093   4.930 -0.6629  0.2387 -0.7747
14789TIP3    H165782   5.458   5.100   4.952 -0.7561  0.1624 -0.3399
14789TIP3    H265783   5.361   5.027   4.861 -0.3869  0.2936 -0.8414
14790TIP3   OH265784   3.276   1.987   5.012 -0.3556 -0.5851  0.3565
14790TIP3    H165785   3.337   2.048   4.969 -1.9513  2.8366  2.5510
14790TIP3    H265786   3.295   1.996   5.105 -2.9369 -0.8427  0.9656
14791TIP3   OH265787   4.667   4.198   3.551 -0.1178  0.4252  0.1464
14791TIP3    H165788   4.605   4.148   3.604  0.9119  0.6623  1.6384
14791TIP3    H265789   4.734   4.135   3.525 -0.7399  0.2584 -1.1180
14792TIP3   OH265790   5.584   0.607   4.483 -0.2882  0.3113  0.1723
14792TIP3    H165791   5.650   0.600   4.413 -1.0044 -2.2709 -0.3281
14792TIP3    H265792   5.515   0.547   4.457 -1.5618  0.8560  2.1077
14793TIP3   OH265793   1.441   0.860  13.747 -0.1859  0.1858 -0.2059
14793TIP3    H165794   1.523   0.885  13.790 -0.8602  1.4577  0.3970
14793TIP3    H265795   1.463   0.859  13.654  0.4043  1.0116 -0.0922
14794TIP3   OH265796   5.962   4.786   4.506  0.0587 -0.9392  0.4749
14794TIP3    H165797   5.911   4.866   4.496 -2.4772 -2.3709  1.0071
14794TIP3    H265798   6.040   4.813   4.553 -0.9044  1.1581  0.9751
14795TIP3   OH265799   1.147   0.152   3.478 -0.2859 -0.3548 -0.7545
14795TIP3    H165800   1.122   0.081   3.419 -0.4210 -1.2408  0.3381
14795TIP3    H265801   1.241   0.161   3.467 -0.3891 -0.1595 -1.4868
14796TIP3   OH265802   5.963   4.575  16.595  0.0298  0.2761  0.6496
14796TIP3    H165803   6.046   4.574  16.642  0.7715 -0.0151 -0.6168
14796TIP3    H265804   5.896   4.579  16.664  1.0480 -0.5773  1.7295
14797TIP3   OH265805   2.737   3.683   2.376  0.7536 -0.2441 -0.5244
14797TIP3    H165806   2.827   3.702   2.401  0.9723 -1.1527 -0.5718
14797TIP3    H265807   2.688   3.689   2.458  0.8960  0.0529 -0.4612
14798TIP3   OH265808   3.815   2.682  14.304 -0.4333  0.3118  0.1381
14798TIP3    H165809   3.906   2.697  14.279 -1.2729  3.1811 -1.8560
14798TIP3    H265810   3.796   2.752  14.367 -1.2706 -0.2811  0.5653
14799TIP3   OH265811   3.700   3.446   6.132 -0.2248  0.1143 -0.4349
14799TIP3    H165812   3.658   3.361   6.116 -1.0347  0.5631 -0.7807
14799TIP3    H265813   3.743   3.435   6.217 -1.1573 -0.3428  0.0058
14800TIP3   OH265814   2.969   0.651   3.515 -0.8346 -0.1643 -0.1490
14800TIP3    H165815   3.012   0.711   3.454  0.4630 -1.6149 -0.7257
14800TIP3    H265816   3.014   0.567   3.502  0.1674 -0.3563  3.4008
14801TIP3   OH265817   6.469   4.264   0.558  0.2137 -0.2155  0.0698
14801TIP3    H165818   6.418   4.345   0.559 -3.0025 -2.0287 -1.2973
14801TIP3    H265819   6.529   4.273   0.631  1.2357  4.0579 -0.9955
14802TIP3   OH265820   6.771   0.479  13.178  0.1895 -0.2057  0.2173
14802TIP3    H165821   6.710   0.539  13.220 -0.0958 -1.6358  1.9438
14802TIP3    H265822   6.856   0.522  13.187 -0.4574  1.8552 -2.3138
14803TIP3   OH265823   5.727   2.089   2.617  0.6143 -0.1199  0.1184
14803TIP3    H165824   5.642   2.086   2.574  0.3529  2.0754  0.3571
14803TIP3    H265825   5.789   2.113   2.547  0.3085  2.6537  0.6894
14804TIP3   OH265826   6.387   0.341   0.130 -0.2281  0.2962 -0.3067
14804TIP3    H165827   6.357   0.330   0.040  3.2154  0.4812 -1.6443
14804TIP3    H265828   6.378   0.254   0.169 -2.8743  0.4693 -0.3174
14805TIP3   OH265829   0.068   1.178  16.929  0.2923 -0.1916 -0.2564
14805TIP3    H165830   0.097   1.105  16.873  0.7822 -0.3764  0.2386
14805TIP3    H265831  -0.010   1.144  16.973 -0.0028 -0.1013 -0.6966
14806TIP3   OH265832   4.058   0.658  16.955 -0.2895 -0.8271 -0.0014
14806TIP3    H165833   4.137   0.613  16.983 -0.9404 -2.1385 -0.2249
14806TIP3    H265834   4.087   0.748  16.937  1.2425 -1.4214 -0.6255
14807TIP3   OH265835   0.268   2.683  11.890  0.0727  0.2792  0.6839
14807TIP3    H165836   0.301   2.749  11.829  0.0418 -0.9469 -0.7170
14807TIP3    H265837   0.182   2.659  11.854 -0.1117 -0.1884  1.4288
14808TIP3   OH265838   4.881   4.972  15.473  0.8807  0.1573  0.4600
14808TIP3    H165839   4.926   4.888  15.485 -0.9183 -0.7102  1.7229
14808TIP3    H265840   4.791   4.947  15.451  0.8389  1.8046 -1.5392
14809TIP3   OH265841   3.449   5.212   1.874  0.2001  0.7726 -0.0037
14809TIP3    H165842   3.442   5.264   1.953  0.3944  1.7358 -0.6064
14809TIP3    H265843   3.466   5.275   1.804  1.4190 -0.1764 -0.6096
14810TIP3   OH265844   5.942   3.958   4.773 -0.3457  0.9070 -0.3433
14810TIP3    H165845   5.863   4.012   4.769 -0.2986  0.9744 -0.3568
14810TIP3    H265846   6.008   4.014   4.813 -0.0090  1.2161 -1.2846
14811TIP3   OH265847   4.162   5.660   1.414 -0.2340 -0.1364 -1.1202
14811TIP3    H165848   4.215   5.692   1.488 -0.7734  0.3185 -0.9298
14811TIP3    H265849   4.102   5.731   1.394 -1.0890 -0.8137 -1.0385
14812TIP3   OH265850   3.737   6.285  11.265  0.1800  0.7942 -0.0524
14812TIP3    H165851   3.764   6.358  11.208  1.3592  0.6192  0.2549
14812TIP3    H265852   3.800   6.216  11.245  1.0956  0.9851  2.0012
14813TIP3   OH265853   5.176   4.310  16.297  0.7723  0.6023  0.2662
14813TIP3    H165854   5.138   4.336  16.381 -0.5914 -3.5908  1.1574
14813TIP3    H265855   5.104   4.319  16.234  0.9170  0.8792  0.1365
14814TIP3   OH265856   5.816   1.310  12.230  0.4472 -0.8255  0.6114
14814TIP3    H165857   5.783   1.221  12.212 -0.4554  0.0154 -2.7301
14814TIP3    H265858   5.738   1.359  12.256  0.7835 -0.7855  1.5754
14815TIP3   OH265859   0.749   6.279   4.659  0.6739  0.0062  0.1394
14815TIP3    H165860   0.676   6.264   4.599  0.6399 -0.3349  0.2638
14815TIP3    H265861   0.737   6.214   4.728  1.4304 -0.4509 -0.1486
14816TIP3   OH265862   1.694   5.608  13.000 -0.6402 -0.0948 -0.4396
14816TIP3    H165863   1.619   5.625  13.057 -0.6258 -0.4362 -0.3146
14816TIP3    H265864   1.762   5.575  13.059 -0.2649  0.5710 -0.4945
14817TIP3   OH265865   3.735   1.123   1.497 -0.4532 -0.1127 -0.1284
14817TIP3    H165866   3.642   1.142   1.508 -0.2784  1.3130 -0.9497
14817TIP3    H265867   3.737   1.031   1.470 -1.8474  0.4792 -2.5936
14818TIP3   OH265868   4.599   1.872  14.310  0.2047 -0.2255 -0.3122
14818TIP3    H165869   4.613   1.836  14.397 -0.7057 -1.4502 -0.6348
14818TIP3    H265870   4.541   1.947  14.324  0.1291 -0.3668  0.1485
14819TIP3   OH265871   4.484   1.140  11.158 -0.4169 -0.2512  0.1920
14819TIP3    H165872   4.495   1.104  11.070  2.3102  0.3238  0.2191
14819TIP3    H265873   4.522   1.228  11.152 -1.2798  0.2475  1.6653
14820TIP3   OH265874   0.218   0.633  13.161  0.5465  0.0580  0.1254
14820TIP3    H165875   0.260   0.702  13.213  2.1139  0.3478 -1.4031
14820TIP3    H265876   0.264   0.553  13.186  1.4917  0.2393 -0.9262
14821TIP3   OH265877   3.728   4.169  14.943 -0.1167 -0.2343  0.8287
14821TIP3    H165878   3.788   4.221  14.996 -0.4006  0.3152  0.6269
14821TIP3    H265879   3.651   4.225  14.934  0.2215  0.0133 -0.7987
14822TIP3   OH265880   2.096   3.009   4.061 -0.5338  0.0921 -0.4834
14822TIP3    H165881   2.183   3.050   4.065 -1.2009  1.6600 -1.0579
14822TIP3    H265882   2.096   2.959   3.980 -0.2788  0.3728 -0.6577
14823TIP3   OH265883   4.795   1.771  17.160 -0.1484 -0.0973 -0.1090
14823TIP3    H165884   4.803   1.865  17.145  0.4416 -0.4559 -2.3714
14823TIP3    H265885   4.874   1.748  17.209  0.6529  0.3008 -1.1885
14824TIP3   OH265886   4.826   0.387  13.571 -0.4976  0.2679  0.4058
14824TIP3    H165887   4.869   0.459  13.617 -0.4406 -0.3103  1.2734
14824TIP3    H265888   4.857   0.308  13.615  1.3241 -0.4806 -2.0346
14825TIP3   OH265889   3.286   0.439   1.285 -0.4109 -0.0559  0.1385
14825TIP3    H165890   3.345   0.445   1.360  0.4670 -0.3183 -0.5139
14825TIP3    H265891   3.212   0.388   1.317 -0.1890  0.0833  0.9045
14826TIP3   OH265892   4.935   3.314   5.006 -0.2087 -0.1476  0.1009
14826TIP3    H165893   4.883   3.275   5.076  0.9330 -1.1253  0.4452
14826TIP3    H265894   5.026   3.300   5.033  0.2575  1.0082 -0.7485
14827TIP3   OH265895   2.333   2.667   6.084  0.3343  0.3859  0.0946
14827TIP3    H165896   2.278   2.715   6.022  0.6600  0.2620 -0.2915
14827TIP3    H265897   2.281   2.665   6.164 -0.6330 -0.4798 -0.5114
14828TIP3   OH265898   4.058   3.810   5.627  0.0286  0.7320 -0.0856
14828TIP3    H165899   4.123   3.872   5.593 -0.4582  1.0674 -0.4120
14828TIP3    H265900   4.106   3.760   5.693  1.6432 -1.3027 -2.5533
14829TIP3   OH265901   6.293   1.333   2.310  0.5783  0.1484  0.5434
14829TIP3    H165902   6.243   1.337   2.228  0.5636  2.5978  0.5960
14829TIP3    H265903   6.366   1.276   2.291 -0.0654 -0.2509 -0.8218
14830TIP3   OH265904   6.630   5.819   0.604  0.2249 -0.2198  0.8872
14830TIP3    H165905   6.571   5.790   0.674 -1.3130  1.0838  0.1970
14830TIP3    H265906   6.576   5.818   0.526  1.5185 -0.2690 -0.0359
14831TIP3   OH265907   1.331   0.017   2.797 -0.0686  0.1767 -0.0981
14831TIP3    H165908   1.288  -0.067   2.815  0.0007  0.3679  0.9774
14831TIP3    H265909   1.353   0.012   2.703 -1.0263 -0.5529 -0.2997
14832TIP3   OH265910   2.192   3.807   3.458  0.2735  0.0200 -0.6588
14832TIP3    H165911   2.119   3.786   3.400  0.7146 -0.5165 -1.0306
14832TIP3    H265912   2.268   3.815   3.399  0.2834  1.9043 -0.4568
14833TIP3   OH265913   3.583   0.716  17.161 -0.0700  0.0353  0.0345
14833TIP3    H165914   3.514   0.703  17.096  0.7869 -3.3029 -0.3815
14833TIP3    H265915   3.663   0.726  17.109  0.2046  0.8194  0.5800
14834TIP3   OH265916   4.642   6.710  12.853  0.1505 -0.3403 -0.2611
14834TIP3    H165917   4.644   6.654  12.776 -0.2832 -1.4985  0.5550
14834TIP3    H265918   4.634   6.650  12.927 -0.9316  0.8082  0.6028
14835TIP3   OH265919   0.136   3.582  13.141 -0.5064  0.2625  0.0159
14835TIP3    H165920   0.202   3.512  13.140 -0.4287  0.3362 -0.1868
14835TIP3    H265921   0.187   3.663  13.135 -0.6004  0.3346  0.1670
14836TIP3   OH265922   2.544   4.346   6.109  0.1197  0.3946 -0.2728
14836TIP3    H165923   2.453   4.336   6.079 -0.1970 -0.5635  0.9376
14836TIP3    H265924   2.536   4.370   6.201  1.0791 -1.1893  0.2708
14837TIP3   OH265925   0.433   4.567  16.505 -0.2812  0.2284 -0.1583
14837TIP3    H165926   0.512   4.512  16.506 -0.5464 -0.1429  0.5271
14837TIP3    H265927   0.367   4.513  16.461 -0.4030  0.1896  0.0719
14838TIP3   OH265928   6.305   3.129  16.688  0.1720  0.2861 -0.0724
14838TIP3    H165929   6.358   3.052  16.668 -0.8114 -1.0918  2.1930
14838TIP3    H265930   6.358   3.204  16.660  0.8010 -1.1726 -3.1335
14839TIP3   OH265931   2.930   6.732   2.710 -0.8029  0.2386  0.5821
14839TIP3    H165932   2.953   6.650   2.667 -1.2365  0.9594 -1.1041
14839TIP3    H265933   3.014   6.777   2.722 -0.5496 -0.5004  1.6482
14840TIP3   OH265934   4.827   5.219  14.796 -0.2912 -0.3638  1.1857
14840TIP3    H165935   4.896   5.152  14.793  1.0845  1.0033  0.3690
14840TIP3    H265936   4.751   5.178  14.757  0.9243 -1.0488 -0.5929
14841TIP3   OH265937   5.805   4.454   3.926  0.0374 -0.0869 -0.5381
14841TIP3    H165938   5.720   4.410   3.920 -0.6036  0.9150  0.7240
14841TIP3    H265939   5.808   4.509   3.848 -0.1517 -0.6668 -0.9618
14842TIP3   OH265940   6.614   6.778   6.355  0.3157  0.5115 -0.4995
14842TIP3    H165941   6.551   6.709   6.333  1.2210 -0.3014 -0.5868
14842TIP3    H265942   6.600   6.794   6.449  0.7622 -0.4991 -0.2508
14843TIP3   OH265943   1.539   2.195   4.029  0.6077 -0.2712 -0.3344
14843TIP3    H165944   1.601   2.130   3.996  1.9857  0.8840 -0.1322
14843TIP3    H265945   1.594   2.267   4.061 -0.7878  0.1485  1.2955
14844TIP3   OH265946   5.961   1.832   4.175  0.2051  0.4040  0.0998
14844TIP3    H165947   5.936   1.823   4.267  0.9405  1.2859  0.3990
14844TIP3    H265948   5.884   1.869   4.133 -0.3306 -0.5052  0.2342
14845TIP3   OH265949   3.105   3.115  11.153  0.0348 -0.2975  0.8992
14845TIP3    H165950   3.010   3.123  11.153 -0.1826 -1.4052 -2.5128
14845TIP3    H265951   3.122   3.028  11.189 -0.2229 -0.1464  1.3946
14846TIP3   OH265952   6.199   2.032   4.649  0.0576 -0.3923 -0.1728
14846TIP3    H165953   6.122   1.990   4.610 -1.7768  1.9050  0.7873
14846TIP3    H265954   6.194   2.010   4.742  0.5241 -0.1243 -0.0816
14847TIP3   OH265955   1.871   5.956  12.428  0.2136  0.0268 -0.3952
14847TIP3    H165956   1.794   5.929  12.478  1.7209 -2.4500  0.7759
14847TIP3    H265957   1.838   5.972  12.339 -1.9394  1.0785  0.5337
14848TIP3   OH265958   0.014   2.054   4.320 -0.8481  0.0768  0.2677
14848TIP3    H165959   0.102   2.043   4.355 -0.9494  0.5352  0.6844
14848TIP3    H265960  -0.044   2.023   4.391 -1.0357  0.3636  0.2428
14849TIP3   OH265961   5.641   6.258   2.608  0.1190 -0.1095  0.5551
14849TIP3    H165962   5.641   6.165   2.586 -0.7407 -0.0714  0.3557
14849TIP3    H265963   5.692   6.300   2.538 -1.9050 -0.0900 -0.9787
14850TIP3   OH265964   3.685   6.143  13.855  0.5387 -0.3324 -0.1612
14850TIP3    H165965   3.774   6.173  13.841  0.8679 -1.0719  0.2853
14850TIP3    H265966   3.635   6.222  13.874  1.1244  0.0682 -0.2908
14851TIP3   OH265967   2.123   1.651   5.368 -0.2234 -0.1228 -0.5737
14851TIP3    H165968   2.078   1.717   5.315  0.7769  0.8679 -0.2380
14851TIP3    H265969   2.120   1.572   5.315 -2.1553 -0.0515 -0.6426
14852TIP3   OH265970   3.256   1.214  10.630  0.2323  0.2457  0.0950
14852TIP3    H165971   3.216   1.149  10.571  0.8855  0.9165 -1.1455
14852TIP3    H265972   3.253   1.296  10.580  1.3361  0.7169  0.7693
14853TIP3   OH265973   5.562   6.342  14.416  0.8761  0.3195  0.0422
14853TIP3    H165974   5.520   6.420  14.453 -1.9272 -0.7646 -0.5514
14853TIP3    H265975   5.593   6.293  14.492 -0.1888  0.5669  0.6636
14854TIP3   OH265976   4.408   5.214  11.105 -0.2454  0.4249 -0.1411
14854TIP3    H165977   4.414   5.147  11.037  2.5952  0.2319  0.1561
14854TIP3    H265978   4.325   5.196  11.150  1.3242 -4.4667  1.4212
14855TIP3   OH265979   3.920   2.111   0.710 -0.0876  0.0023  0.0213
14855TIP3    H165980   3.883   2.156   0.787 -0.4800  0.2980 -0.3351
14855TIP3    H265981   4.012   2.136   0.711  0.1526 -0.8723  1.0101
14856TIP3   OH265982   2.086   4.966   6.881  0.0784 -0.2935  0.2112
14856TIP3    H165983   2.170   5.008   6.866  0.4827 -1.4512 -1.0370
14856TIP3    H265984   2.021   5.034   6.860  0.6386  0.9935  2.3904
14857TIP3   OH265985   2.040   4.792  14.911  0.0762  0.0230 -0.2558
14857TIP3    H165986   1.954   4.829  14.927 -0.0824 -1.1111  1.8402
14857TIP3    H265987   2.030   4.699  14.930  2.5194  0.3426  3.8956
14858TIP3   OH265988   0.580   6.701  15.403  0.6728 -0.3572  0.1891
14858TIP3    H165989   0.512   6.645  15.439  1.7212 -1.0955  1.0826
14858TIP3    H265990   0.547   6.790  15.416 -1.5077 -0.6711 -2.2090
14859TIP3   OH265991   4.984   4.684  15.913 -0.1062 -0.0282 -0.0888
14859TIP3    H165992   4.987   4.633  15.832  1.8905 -0.6819  0.3422
14859TIP3    H265993   5.007   4.621  15.981  1.0393  1.1352  0.6296
14860TIP3   OH265994   5.693   3.620  14.467  0.1838 -0.3506  0.0149
14860TIP3    H165995   5.742   3.699  14.490 -0.9483 -0.0829  1.7005
14860TIP3    H265996   5.651   3.641  14.383 -0.1507  0.8768  0.4711
14861TIP3   OH265997   5.105   3.596  14.215 -0.0709 -0.4674  0.3698
14861TIP3    H165998   5.112   3.692  14.216  0.5803 -0.5004 -0.2205
14861TIP3    H265999   5.015   3.579  14.187  0.4305 -0.0145 -1.6508
14862TIP3   OH266000   0.136   1.077  10.778  0.0960 -0.5539 -0.1806
14862TIP3    H166001   0.117   1.134  10.703 -1.8411  1.6505  1.8273
14862TIP3    H266002   0.136   1.136  10.853 -2.0323 -3.1689  2.0669
14863TIP3   OH266003   0.501   3.767  15.190  0.3281  0.0557 -0.1840
14863TIP3    H166004   0.510   3.862  15.202  0.2445 -0.0399  0.6907
14863TIP3    H266005   0.583   3.740  15.151  0.5795  0.4116  0.0847
14864TIP3   OH266006   5.627   1.328   4.657  0.2830 -0.1095  0.1817
14864TIP3    H166007   5.663   1.416   4.665 -1.8955  1.0454 -1.4513
14864TIP3    H266008   5.568   1.333   4.582 -1.1746 -2.5434  1.0293
14865TIP3   OH266009   5.610   6.726   0.252  0.2921  0.1803  0.3244
14865TIP3    H166010   5.695   6.705   0.213  1.1617  0.3512  2.0569
14865TIP3    H266011   5.550   6.731   0.177  1.7543 -0.1416 -0.9117
14866TIP3   OH266012   6.694   6.217  13.814  0.6357 -0.7003  0.4385
14866TIP3    H166013   6.745   6.298  13.810  0.3764 -0.5725 -0.3720
14866TIP3    H266014   6.623   6.236  13.875  1.2148 -0.6887  1.1217
14867TIP3   OH266015   4.484   2.694   4.990  0.1893 -0.4309 -0.3224
14867TIP3    H166016   4.413   2.740   4.945  1.3074  0.9461 -0.7671
14867TIP3    H266017   4.564   2.740   4.962  1.1204 -0.9100  1.4046
14868TIP3   OH266018   6.482   4.607  16.622 -0.6362  0.6585  0.3605
14868TIP3    H166019   6.402   4.628  16.668 -1.2975 -0.1793 -0.3650
14868TIP3    H266020   6.459   4.612  16.529 -0.2599 -1.0107  0.1435
14869TIP3   OH266021   2.594   6.286   1.327  0.1310 -0.1675 -0.4058
14869TIP3    H166022   2.558   6.251   1.409  2.1857  1.1259  1.1570
14869TIP3    H266023   2.524   6.341   1.292 -0.7865 -0.7269  0.4739
14870TIP3   OH266024   1.535   3.063   1.044  0.0686 -0.4704  0.0958
14870TIP3    H166025   1.586   3.142   1.031  1.6317 -1.4351  0.1327
14870TIP3    H266026   1.470   3.065   0.974  2.0673 -0.6738 -1.8653
14871TIP3   OH266027   4.030   3.127  17.124  0.4381 -0.3139  0.5549
14871TIP3    H166028   3.935   3.141  17.117  0.5794  0.0797 -1.0543
14871TIP3    H266029   4.040   3.031  17.126 -0.0022 -0.3541  1.1072
14872TIP3   OH266030   0.659   4.083   1.188 -0.1859 -0.3516 -0.0417
14872TIP3    H166031   0.651   4.177   1.175 -2.0852 -0.4202  0.3885
14872TIP3    H266032   0.723   4.055   1.122  1.4363  1.3961  0.6948
14873TIP3   OH266033   5.503   1.335  15.077  0.2280  0.2434  0.4994
14873TIP3    H166034   5.533   1.351  15.166  0.3836  1.3599  0.2619
14873TIP3    H266035   5.481   1.242  15.075  0.8180  0.0710  1.5217
14874TIP3   OH266036   5.475   4.270   1.750 -0.2231  0.5399  0.1674
14874TIP3    H166037   5.429   4.191   1.722 -0.8174  1.2231 -0.8592
14874TIP3    H266038   5.567   4.247   1.745 -0.3670  0.1535 -0.8931
14875TIP3   OH266039   0.022   0.702  15.388  0.5723 -0.1192  0.3944
14875TIP3    H166040   0.027   0.614  15.351 -2.2642 -0.8642  1.4935
14875TIP3    H266041  -0.049   0.744  15.341  1.3873  1.3612  0.4124
14876TIP3   OH266042   2.850   1.770  15.317 -0.6587 -0.1658 -0.3109
14876TIP3    H166043   2.843   1.819  15.235 -2.6391 -0.7841 -0.5649
14876TIP3    H266044   2.856   1.837  15.385  0.7562  0.3537 -0.9055
14877TIP3   OH266045   2.009   0.364  12.090  0.4293  0.0133 -0.3139
14877TIP3    H166046   1.926   0.323  12.115 -0.3325  1.9870  0.6334
14877TIP3    H266047   2.008   0.365  11.994 -0.7896  0.2469 -0.3085
14878TIP3   OH266048   5.945   5.549   0.063  0.0291 -0.0658 -0.2970
14878TIP3    H166049   5.973   5.512  -0.022  0.1973  1.0236 -0.7302
14878TIP3    H266050   5.871   5.605   0.042  0.6994  1.0099  0.1135
14879TIP3   OH266051   4.473   2.193   5.011 -0.2394 -0.5328 -0.3851
14879TIP3    H166052   4.552   2.140   5.025 -0.8782 -1.5219 -0.4002
14879TIP3    H266053   4.415   2.169   5.083 -0.1068  1.0458  0.2828
14880TIP3   OH266054   5.412   2.499   5.647  0.3567  0.4481 -0.5766
14880TIP3    H166055   5.466   2.516   5.570  3.9802 -1.1544  1.3295
14880TIP3    H266056   5.415   2.580   5.697 -0.7792  1.0208 -1.4082
14881TIP3   OH266057   1.078   5.860  13.429 -0.4609 -0.2606 -0.4092
14881TIP3    H166058   1.130   5.780  13.440 -2.3062 -1.2716  1.9586
14881TIP3    H266059   1.006   5.834  13.371  0.4638  0.5579 -1.9923
14882TIP3   OH266060   1.866   2.153  15.464 -0.3173 -0.0708  0.2383
14882TIP3    H166061   1.886   2.241  15.497  0.2372 -1.0160  2.6907
14882TIP3    H266062   1.820   2.111  15.537  1.7339 -2.6569  0.1920
14883TIP3   OH266063   0.713   1.473  14.744  0.0266  0.4697 -0.0692
14883TIP3    H166064   0.631   1.510  14.709 -0.8411 -1.1165  0.2055
14883TIP3    H266065   0.685   1.414  14.813  1.5370  1.0644  1.0931
14884TIP3   OH266066   4.445   6.708  14.057 -0.6863 -0.4873  0.2218
14884TIP3    H166067   4.468   6.667  13.974  1.1834 -0.1880  0.5557
14884TIP3    H266068   4.386   6.780  14.033  0.4446  0.0805 -0.9234
14885TIP3   OH266069   6.512   3.146   4.474  0.1919  0.4443 -0.0027
14885TIP3    H166070   6.570   3.219   4.450 -0.1748  1.5419  2.1648
14885TIP3    H266071   6.425   3.176   4.449 -0.0333  1.0524  1.4162
14886TIP3   OH266072   1.624   6.717  16.743  0.4795  0.3776  0.2230
14886TIP3    H166073   1.670   6.763  16.814  1.7303 -0.3235 -0.1130
14886TIP3    H266074   1.545   6.770  16.727 -0.3233  0.0901  2.7435
14887TIP3   OH266075   2.480   1.631  15.871 -0.1092  0.1464  0.6116
14887TIP3    H166076   2.455   1.539  15.868  1.1746 -0.2589  1.4268
14887TIP3    H266077   2.545   1.640  15.801  1.6519 -0.2249  2.1084
14888TIP3   OH266078   6.003   6.235   0.783  0.2594  0.3908 -0.2274
14888TIP3    H166079   6.085   6.188   0.768 -0.2759 -1.7667  2.6811
14888TIP3    H266080   6.012   6.270   0.872 -1.3253  1.6033 -0.5094
14889TIP3   OH266081   4.136   4.583   0.965  0.0770  0.6300  0.7294
14889TIP3    H166082   4.129   4.633   0.884  0.3675  0.8537  0.8422
14889TIP3    H266083   4.230   4.578   0.982  0.0723 -0.3142  0.4955
14890TIP3   OH266084   2.295   1.191   2.744 -0.5281  0.3059 -0.0026
14890TIP3    H166085   2.231   1.159   2.807  0.1001  1.9647  1.5507
14890TIP3    H266086   2.255   1.269   2.707 -1.3205 -1.1611 -2.5087
14891TIP3   OH266087   2.128   4.103   5.174  0.5398  0.4654  0.3776
14891TIP3    H166088   2.066   4.090   5.103 -0.7059  3.4014  0.7683
14891TIP3    H266089   2.126   4.022   5.224 -0.1302 -0.8770 -1.7140
14892TIP3   OH266090   3.519   0.789   5.827  0.3453  0.5924  0.1980
14892TIP3    H166091   3.546   0.806   5.917  1.1651  1.5431 -0.2109
14892TIP3    H266092   3.541   0.869   5.779 -0.1690  0.1433 -0.8293
14893TIP3   OH266093   6.536   0.865  14.941  0.0418  0.1500  0.1440
14893TIP3    H166094   6.550   0.804  15.014  0.3382 -1.8164 -1.4475
14893TIP3    H266095   6.612   0.923  14.944 -0.6915  1.1031  2.2496
14894TIP3   OH266096   2.849   4.953  15.449  0.4470  0.0497 -0.0444
14894TIP3    H166097   2.763   4.920  15.426 -0.5980  1.7390  1.1774
14894TIP3    H266098   2.835   5.004  15.528  2.7938 -0.5722  0.8642
14895TIP3   OH266099   5.481   6.377   5.410 -0.0082 -0.1457 -0.0340
14895TIP3    H166100   5.434   6.299   5.380  0.5883  0.5376 -3.1283
14895TIP3    H266101   5.416   6.447   5.407 -0.0758 -0.1620  0.8855
14896TIP3   OH266102   0.909   2.429   2.191 -0.0084 -0.0818 -0.3952
14896TIP3    H166103   1.004   2.420   2.190 -0.1094 -1.3868 -1.3865
14896TIP3    H266104   0.877   2.345   2.224 -0.8133  0.7040  0.9315
14897TIP3   OH266105   2.916   2.106   3.156 -0.1844  0.0653 -0.2851
14897TIP3    H166106   2.898   2.176   3.093 -1.2461 -0.2814 -0.3942
14897TIP3    H266107   2.915   2.026   3.103 -2.1639 -0.3417  0.3070
14898TIP3   OH266108   1.593   3.952   2.123  0.4197 -0.3863 -0.8280
14898TIP3    H166109   1.513   3.903   2.104  0.9299 -0.5555 -2.7783
14898TIP3    H266110   1.595   3.959   2.218 -0.5241 -2.7238 -0.5633
14899TIP3   OH266111   4.565   5.408   5.254  0.4871  0.3574  0.1454
14899TIP3    H166112   4.630   5.476   5.239 -0.1780  1.2640  1.1862
14899TIP3    H266113   4.589   5.372   5.340 -0.8434  1.2867  0.9415
14900TIP3   OH266114   3.650   2.674   0.074 -0.4437 -0.1971  1.4483
14900TIP3    H166115   3.635   2.579   0.076  2.3822 -0.7151  2.1950
14900TIP3    H266116   3.656   2.698   0.167  1.2696  0.2089  1.2673
14901TIP3   OH266117   1.366   5.235  13.247 -0.1026  0.0575  0.2689
14901TIP3    H166118   1.336   5.278  13.167 -0.4080  1.8704  1.2959
14901TIP3    H266119   1.461   5.228  13.237 -0.2231 -0.4529 -0.5678
14902TIP3   OH266120   2.380   0.250   1.600 -0.1077  0.1599 -0.0074
14902TIP3    H166121   2.446   0.318   1.586  0.5486 -0.0404  1.8598
14902TIP3    H266122   2.335   0.243   1.516 -0.0760  2.7409 -0.3171
14903TIP3   OH266123   6.133   2.577   0.265 -0.0387 -0.0055  0.3411
14903TIP3    H166124   6.133   2.655   0.210  2.3614  0.5852  1.0523
14903TIP3    H266125   6.141   2.504   0.204 -1.8022  0.2761 -0.2974
14904TIP3   OH266126   2.090   2.802  12.127  0.1197 -0.0491 -0.5665
14904TIP3    H166127   2.001   2.809  12.162 -0.1511  0.1469 -1.2833
14904TIP3    H266128   2.135   2.743  12.188 -0.4417  0.0025 -0.0907
14905TIP3   OH266129   3.576   1.519   2.511  0.3623  0.3184 -0.2155
14905TIP3    H166130   3.625   1.446   2.473  1.5811  1.4812 -0.9633
14905TIP3    H266131   3.530   1.559   2.437  1.3863  1.5607 -0.2251
14906TIP3   OH266132   3.655   0.556  12.609  0.1948  0.4710  0.5814
14906TIP3    H166133   3.673   0.505  12.530 -0.2953  0.9382  0.1602
14906TIP3    H266134   3.616   0.493  12.669  0.9876  0.0087  0.6285
14907TIP3   OH266135   0.037   6.467   5.417  0.0792 -0.1706  0.2681
14907TIP3    H166136   0.017   6.405   5.348 -0.3691 -0.1288  0.3583
14907TIP3    H266137   0.003   6.551   5.385 -2.5800 -0.6327  1.6565
14908TIP3   OH266138   5.085   3.580  15.087  0.0901  0.1359  0.1441
14908TIP3    H166139   5.131   3.643  15.142  0.3681 -0.6417  0.8144
14908TIP3    H266140   5.102   3.609  14.998  0.1456  1.0538  0.4447
14909TIP3   OH266141   1.171   2.030   1.363  0.2033  1.0744  0.1764
14909TIP3    H166142   1.100   2.091   1.382 -0.8633 -0.6155  2.0971
14909TIP3    H266143   1.135   1.972   1.295  0.1984  0.9562  0.2797
14910TIP3   OH266144   5.098   0.662   1.626 -0.1813 -0.5279  0.3931
14910TIP3    H166145   5.188   0.629   1.629  0.2175  0.5450  0.6238
14910TIP3    H266146   5.044   0.583   1.619  0.7359 -1.2284  0.9389
14911TIP3   OH266147   1.037   3.668   3.633 -0.1004 -0.3087  0.1180
14911TIP3    H166148   1.069   3.683   3.544 -0.4595  1.8187  0.2813
14911TIP3    H266149   1.114   3.677   3.689 -0.3539  1.6357  0.2412
14912TIP3   OH266150   4.874   3.277   0.305 -0.2591 -0.0523 -0.0812
14912TIP3    H166151   4.819   3.323   0.369 -0.9705 -0.6040 -0.2767
14912TIP3    H266152   4.835   3.300   0.220 -0.2812 -0.5647 -0.2124
14913TIP3   OH266153   6.210   1.095   3.050 -0.2408 -0.3053 -0.5657
14913TIP3    H166154   6.161   1.023   3.009  0.6072 -2.5835  2.0947
14913TIP3    H266155   6.179   1.096   3.141  1.3843  1.2460  0.0228
14914TIP3   OH266156   0.622   6.384   2.053 -0.3853  0.5117 -0.1977
14914TIP3    H166157   0.674   6.335   1.989 -0.3509 -0.2338  0.3875
14914TIP3    H266158   0.599   6.465   2.008  1.0883  0.7607 -0.5593
14915TIP3   OH266159   2.483   1.360  11.791 -0.5279  0.5013  0.3643
14915TIP3    H166160   2.459   1.406  11.872  0.2215 -1.0863  1.5457
14915TIP3    H266161   2.529   1.281  11.821  2.0256  1.0742 -1.6547
14916TIP3   OH266162   5.187   0.906  11.268  0.3755 -0.5632 -0.0793
14916TIP3    H166163   5.270   0.905  11.219  0.5502  0.5462  0.1701
14916TIP3    H266164   5.125   0.863  11.210  1.0401 -1.0769 -0.4284
14917TIP3   OH266165   5.380   0.777  10.874 -0.5760  0.3156 -0.4258
14917TIP3    H166166   5.383   0.681  10.880 -1.6793  0.3429  1.3025
14917TIP3    H266167   5.287   0.798  10.883 -0.2309  1.5925  0.3413
14918TIP3   OH266168   1.995   3.723   0.795 -0.3904  0.5228  0.3710
14918TIP3    H166169   1.985   3.705   0.701  1.1554  1.1054  0.0711
14918TIP3    H266170   1.975   3.817   0.803  1.0645  0.8571  0.3349
14919TIP3   OH266171   0.905   1.207  12.876 -0.3811  0.1614  0.4817
14919TIP3    H166172   0.959   1.249  12.809 -0.0912  1.2583  1.3604
14919TIP3    H266173   0.833   1.167  12.827  1.4363 -1.7764 -0.7616
14920TIP3   OH266174   0.404   2.513   3.182 -0.0876 -0.6970  0.4281
14920TIP3    H166175   0.354   2.521   3.101  0.5227 -0.1869  0.0895
14920TIP3    H266176   0.488   2.554   3.162  0.3642 -1.2903  1.0696
14921TIP3   OH266177   4.673   6.706   1.707  0.5846  0.4158 -0.2902
14921TIP3    H166178   4.676   6.614   1.731  1.3248 -0.0466 -1.9942
14921TIP3    H266179   4.619   6.708   1.628  0.8220  1.4074 -0.4401
14922TIP3   OH266180   5.427   3.833   2.029  0.0623  0.9471  0.5173
14922TIP3    H166181   5.351   3.881   2.063  1.5635  2.2357  2.3092
14922TIP3    H266182   5.476   3.809   2.108  1.3029 -0.2127 -0.5726
14923TIP3   OH266183   5.509   4.550  17.187  0.4946  0.1534 -0.1319
14923TIP3    H166184   5.538   4.499  17.262 -1.3606 -0.4238  0.2360
14923TIP3    H266185   5.443   4.495  17.144  0.9980  0.7709 -1.7891
14924TIP3   OH266186   1.868   5.332  15.840  0.4743 -0.5993 -0.5601
14924TIP3    H166187   1.827   5.257  15.884  0.2034  0.3061  0.7864
14924TIP3    H266188   1.830   5.331  15.752 -1.5393 -0.5319  0.2580
14925TIP3   OH266189   0.347   4.536   2.414 -0.4309  0.0154 -0.2481
14925TIP3    H166190   0.403   4.596   2.363 -0.6694  2.4612  2.1522
14925TIP3    H266191   0.258   4.560   2.389 -0.5384 -1.4094 -1.3881
14926TIP3   OH266192   6.352   2.765  13.922 -0.4541  0.7903  0.0503
14926TIP3    H166193   6.388   2.853  13.911  1.8648  0.3220  2.7174
14926TIP3    H266194   6.421   2.707  13.891 -1.2564 -0.1108 -0.0766
14927TIP3   OH266195   5.328   0.854   3.042  0.1318  0.2425 -0.6667
14927TIP3    H166196   5.235   0.859   3.021  0.1588 -0.5585 -1.0181
14927TIP3    H266197   5.332   0.841   3.137 -0.1777 -1.0421 -0.8039
14928TIP3   OH266198   6.401   5.188   3.995 -0.1962 -0.0076 -0.3470
14928TIP3    H166199   6.306   5.187   4.007 -0.2803  0.6137 -0.9238
14928TIP3    H266200   6.429   5.272   4.032  0.2632 -0.6276  0.7490
14929TIP3   OH266201   3.403   3.253  15.112  0.2104 -0.0168  0.3387
14929TIP3    H166202   3.471   3.230  15.176  0.8371 -1.7705 -0.8763
14929TIP3    H266203   3.451   3.266  15.030 -0.8251 -0.3709 -0.3429
14930TIP3   OH266204   3.763   3.797   2.722  0.1642  0.4472 -0.7389
14930TIP3    H166205   3.732   3.737   2.654 -2.5826 -1.7087  2.1469
14930TIP3    H266206   3.722   3.881   2.700 -0.7617 -0.2247 -1.6985
14931TIP3   OH266207   5.611   0.943  16.534  0.1071  0.0526  0.2163
14931TIP3    H166208   5.520   0.973  16.532 -0.4773 -1.2742  2.4563
14931TIP3    H266209   5.604   0.847  16.535  1.5607 -0.0792 -0.1063
14932TIP3   OH266210   2.973   2.308  14.119 -0.3574  0.0462  0.2355
14932TIP3    H166211   2.951   2.248  14.048  0.5801 -2.1938  1.7089
14932TIP3    H266212   3.068   2.301  14.128 -0.3755  0.8212  1.2341
14933TIP3   OH266213   3.638   5.827   5.574  0.4592 -0.4203  0.5633
14933TIP3    H166214   3.675   5.762   5.633  1.1172  0.4878  1.1820
14933TIP3    H266215   3.576   5.877   5.627 -1.2483 -1.5328 -0.3154
14934TIP3   OH266216   1.462   0.092  13.832 -0.7765  0.2417 -0.2933
14934TIP3    H166217   1.476   0.128  13.920 -0.2543 -2.0266  0.6226
14934TIP3    H266218   1.479   0.165  13.773  0.2499  1.4656  1.4352
14935TIP3   OH266219   0.967   1.787  11.058 -0.3980  0.1668  0.5906
14935TIP3    H166220   0.892   1.845  11.046  1.8143  3.0135 -0.6051
14935TIP3    H266221   1.004   1.813  11.143 -0.4946 -0.9508  0.9969
14936TIP3   OH266222   0.416   4.140   2.113 -0.1577  0.3299  0.2149
14936TIP3    H166223   0.462   4.058   2.131 -0.8424  0.2010  1.4345
14936TIP3    H266224   0.466   4.207   2.161 -0.0605  0.5128 -0.1340
14937TIP3   OH266225   3.896   5.027  13.526  0.0356 -0.2534  0.6469
14937TIP3    H166226   3.922   4.981  13.605  1.7441  0.1397  0.3573
14937TIP3    H266227   3.933   4.976  13.454 -0.5814 -0.0279  0.1502
14938TIP3   OH266228   6.098   3.126  11.895 -0.3220 -0.2416  0.1575
14938TIP3    H166229   6.121   3.117  11.802  0.1832 -1.3622  0.3684
14938TIP3    H266230   6.177   3.102  11.942 -0.1595  1.6436  0.9003
14939TIP3   OH266231   2.781   0.563   4.611  0.3167 -0.2660 -0.0826
14939TIP3    H166232   2.866   0.581   4.571  0.6842  0.2652  0.9002
14939TIP3    H266233   2.799   0.496   4.677 -0.2259 -0.9105 -0.5665
14940TIP3   OH266234   0.160   3.339   2.883 -0.1761  0.2641 -0.3236
14940TIP3    H166235   0.100   3.276   2.923 -0.0613  0.1517 -0.3278
14940TIP3    H266236   0.135   3.424   2.921 -0.6408  0.2890 -0.6702
14941TIP3   OH266237   5.992   0.139   5.136 -0.1862  0.0977 -0.3244
14941TIP3    H166238   6.006   0.219   5.187  0.5461 -1.0663  1.3986
14941TIP3    H266239   5.938   0.167   5.062  2.5180  2.8077 -1.5156
14942TIP3   OH266240   6.070   4.601  12.480 -0.4783  0.2277  0.3203
14942TIP3    H166241   6.102   4.568  12.564  0.9779 -1.5397 -0.8424
14942TIP3    H266242   5.986   4.557  12.468 -0.0495 -0.6036  0.2648
14943TIP3   OH266243   4.303   6.239  14.065  0.1540  1.0315 -0.2739
14943TIP3    H166244   4.344   6.258  13.980  1.9160 -0.6505  0.1220
14943TIP3    H266245   4.333   6.151  14.087  0.4775  1.7514  2.5354
14944TIP3   OH266246   2.940   2.546   1.933  0.3412  0.2352 -0.1997
14944TIP3    H166247   2.919   2.493   2.010 -0.9460  1.9393  0.7072
14944TIP3    H266248   2.927   2.487   1.859  0.0726 -1.0170  0.8070
14945TIP3   OH266249   3.625   5.396   4.094  0.0067 -0.1032  0.0332
14945TIP3    H166250   3.712   5.435   4.094  0.3879 -0.8924  1.4723
14945TIP3    H266251   3.597   5.400   4.002  0.8239  1.7135 -0.1878
14946TIP3   OH266252   5.629   3.335  10.631 -0.3829 -0.0813  0.2434
14946TIP3    H166253   5.602   3.264  10.572  1.0862  0.0063 -0.5882
14946TIP3    H266254   5.547   3.377  10.656 -1.1221 -0.6358 -1.0970
14947TIP3   OH266255   3.217   2.584   5.075  0.4881  0.0912 -0.9481
14947TIP3    H166256   3.280   2.512   5.074  1.7970  1.1752  0.0775
14947TIP3    H266257   3.226   2.623   5.162  0.0613  1.7023 -1.5897
14948TIP3   OH266258   0.583   5.900   1.459 -0.0410 -0.0688 -0.1032
14948TIP3    H166259   0.617   5.929   1.374 -0.3181 -0.7403 -0.4480
14948TIP3    H266260   0.489   5.912   1.452 -0.2418 -1.6475 -0.5051
14949TIP3   OH266261   0.547   4.901   3.967  0.0971 -0.1519 -0.3645
14949TIP3    H166262   0.478   4.913   4.032 -1.6932 -0.0061 -2.1898
14949TIP3    H266263   0.628   4.897   4.018 -0.9305  2.3642  1.6955
14950TIP3   OH266264   0.898   3.031   3.233 -0.3514  0.5121  0.4305
14950TIP3    H166265   0.987   3.007   3.261 -0.8225 -0.6671  0.9734
14950TIP3    H266266   0.896   3.127   3.240  0.3061  0.4458  2.2015
14951TIP3   OH266267   1.479   6.595   5.169 -0.2307 -0.2828 -0.1026
14951TIP3    H166268   1.500   6.541   5.093 -0.6776 -0.2393 -0.2606
14951TIP3    H266269   1.555   6.651   5.180 -0.3847  0.0882 -0.8512
14952TIP3   OH266270   5.626   5.003  14.220 -0.3827 -0.6739  0.5049
14952TIP3    H166271   5.568   4.932  14.193 -2.0130 -0.0495  2.0919
14952TIP3    H266272   5.566   5.074  14.244  1.1359  0.6267  0.6029
14953TIP3   OH266273   4.999   1.382   5.466  0.1338 -0.4971 -0.4676
14953TIP3    H166274   4.920   1.333   5.491 -0.6034 -0.1074 -1.9163
14953TIP3    H266275   4.974   1.426   5.385  0.7600  2.3327  0.7749
14954TIP3   OH266276   1.025   4.385  11.663  0.1317  0.1978 -0.0036
14954TIP3    H166277   1.022   4.373  11.758  1.0583  0.2143  0.0329
14954TIP3    H266278   0.941   4.352  11.633 -0.4245  0.7457  0.8810
14955TIP3   OH266279   4.280   3.318  14.628 -0.3133  0.0768  0.1128
14955TIP3    H166280   4.358   3.370  14.646  0.5580 -0.9865 -0.4362
14955TIP3    H266281   4.256   3.341  14.538 -0.3336  0.0294  0.1056
14956TIP3   OH266282   3.472   1.191  12.753  0.0796  0.2758  0.4558
14956TIP3    H166283   3.515   1.227  12.675  0.1440  1.2607  0.9299
14956TIP3    H266284   3.380   1.182  12.728  0.2860 -0.4735 -0.0869
14957TIP3   OH266285   4.660   6.604  16.953 -0.2048 -0.1344  0.4005
14957TIP3    H166286   4.638   6.511  16.944 -0.7188 -0.0891  1.0947
14957TIP3    H266287   4.722   6.606  17.026  1.3961 -0.1494 -0.9121
14958TIP3   OH266288   1.064   2.785  16.053  0.7409  0.0446 -0.0746
14958TIP3    H166289   0.986   2.741  16.020 -0.3571  0.5439  1.7120
14958TIP3    H266290   1.097   2.836  15.979 -1.3619  0.8128 -0.5504
14959TIP3   OH266291   4.166   3.520  12.413 -0.0763  0.2123 -0.6474
14959TIP3    H166292   4.162   3.612  12.387 -0.8092  0.0841 -1.0397
14959TIP3    H266293   4.081   3.503  12.455  0.4190 -0.0429  0.2740
14960TIP3   OH266294   4.216   2.741  12.086 -0.0895 -0.4112  0.3752
14960TIP3    H166295   4.271   2.790  12.024 -1.5754  3.2442  1.6934
14960TIP3    H266296   4.257   2.756  12.171 -2.2222  1.2760  1.2078
14961TIP3   OH266297   3.239   2.209  11.670 -0.2020 -0.3976 -0.1204
14961TIP3    H166298   3.169   2.231  11.608  0.7263  2.6751 -0.2375
14961TIP3    H266299   3.204   2.236  11.755  0.0937 -0.7623  0.1197
14962TIP3   OH266300   4.244   6.161   5.538 -0.4775  0.1516 -0.1825
14962TIP3    H166301   4.184   6.087   5.550  0.0440 -0.2140  0.2068
14962TIP3    H266302   4.297   6.162   5.618  1.4123 -0.7909 -1.3775
14963TIP3   OH266303   3.561   0.472  13.642 -0.1068  0.2249 -0.2675
14963TIP3    H166304   3.626   0.538  13.618 -1.6939  1.5775 -1.0163
14963TIP3    H266305   3.597   0.389  13.610  1.6302  0.7966  0.1204
14964TIP3   OH266306   3.660   4.663   1.026  0.1862 -0.2097  0.1264
14964TIP3    H166307   3.744   4.618   1.030  1.9270  2.6917 -1.1503
14964TIP3    H266308   3.645   4.678   0.932 -0.6176  1.2633  0.4529
14965TIP3   OH266309   4.417   3.699  11.198  0.1677 -0.1895 -0.3801
14965TIP3    H166310   4.456   3.715  11.112 -1.8442  0.6449 -1.1940
14965TIP3    H266311   4.406   3.604  11.203  2.9929 -0.5643  0.2538
14966TIP3   OH266312   0.899   0.968   0.708 -0.4262  0.0264 -0.3084
14966TIP3    H166313   0.829   0.963   0.772 -1.3662  1.9039 -1.1092
14966TIP3    H266314   0.934   1.056   0.717  0.9082 -0.4182 -0.8818
14967TIP3   OH266315   2.914   4.102   6.323  0.1703  0.1428  0.0270
14967TIP3    H166316   2.857   4.130   6.394  0.2892  5.1690 -1.4544
14967TIP3    H266317   2.855   4.087   6.249  0.3094 -2.1806  0.3014
14968TIP3   OH266318   4.164   3.207   4.782  0.3734  0.5470 -0.2390
14968TIP3    H166319   4.155   3.238   4.692 -1.3450  0.9841  0.0466
14968TIP3    H266320   4.083   3.235   4.825 -0.4094 -2.5260  0.5686
14969TIP3   OH266321   6.119   1.441   4.794  0.3888 -0.1281 -0.1002
14969TIP3    H166322   6.071   1.462   4.713  1.3127 -0.9318 -0.8836
14969TIP3    H266323   6.128   1.525   4.839 -0.1275  0.3342 -0.8321
14970TIP3   OH266324   4.829   3.002  16.750  0.1046  0.0109  0.1398
14970TIP3    H166325   4.923   2.998  16.732  0.2277 -0.4938  0.8923
14970TIP3    H266326   4.792   2.935  16.693  0.4714 -1.4099  1.5084
14971TIP3   OH266327   3.930   3.991  11.230 -0.4057 -0.0092 -0.0458
14971TIP3    H166328   3.923   3.962  11.321 -0.0477 -0.7103 -0.2366
14971TIP3    H266329   3.863   3.941  11.183 -0.6651  0.4318 -0.1547
14972TIP3   OH266330   5.016   0.396   0.049  0.7503  0.4630 -0.3356
14972TIP3    H166331   4.980   0.480   0.020  2.3739  2.2750  2.4709
14972TIP3    H266332   5.042   0.411   0.140  0.2037 -3.4278  0.6288
14973TIP3   OH266333   1.340   0.214  14.062  0.0136 -0.1023 -0.1772
14973TIP3    H166334   1.274   0.154  14.026  1.0529 -1.4922  0.1450
14973TIP3    H266335   1.300   0.300  14.055 -2.4061 -1.0142  1.2233
14974TIP3   OH266336   3.533   1.767  11.479 -0.3763 -0.4425 -0.0971
14974TIP3    H166337   3.525   1.678  11.515  0.1436 -1.2951 -1.9191
14974TIP3    H266338   3.624   1.791  11.497 -0.0244 -0.9957 -1.0419
14975TIP3   OH266339   1.972   3.421   2.628 -0.1960 -0.3536  0.0284
14975TIP3    H166340   1.958   3.515   2.614 -0.8224 -0.3617  0.5595
14975TIP3    H266341   2.040   3.398   2.566  2.4260  1.1475  2.1469
14976TIP3   OH266342   4.896   2.535  16.467  0.0949  0.4843  0.2393
14976TIP3    H166343   4.842   2.459  16.445  0.2254  0.2965  0.5611
14976TIP3    H266344   4.964   2.500  16.524 -0.2281  0.9592  0.9221
14977TIP3   OH266345   3.630   4.305   2.516  0.1593  0.0853  0.4812
14977TIP3    H166346   3.644   4.400   2.516 -2.1237  0.4674  1.2519
14977TIP3    H266347   3.690   4.272   2.582  0.6900  1.0277  0.4863
14978TIP3   OH266348   1.708   3.435  15.156 -0.4341 -0.1230  0.0363
14978TIP3    H166349   1.735   3.412  15.067 -0.9518  0.1731 -0.2043
14978TIP3    H266350   1.707   3.352  15.203 -0.1681 -0.2845 -0.2369
14979TIP3   OH266351   0.130   1.070  13.481 -0.1688  0.0617  0.2840
14979TIP3    H166352   0.110   1.011  13.554  1.4916  1.0452  1.6207
14979TIP3    H266353   0.225   1.060  13.467 -0.3630  0.2740 -1.4387
14980TIP3   OH266354   4.624   1.780  11.991  0.0205 -0.1402 -0.7362
14980TIP3    H166355   4.630   1.789  12.086 -1.4467  0.2101 -0.6559
14980TIP3    H266356   4.715   1.780  11.961  0.4839  0.5354  0.5993
14981TIP3   OH266357   5.790   2.509   5.073  0.1836 -0.1725 -0.0617
14981TIP3    H166358   5.845   2.450   5.125 -1.5368 -0.8100  1.1301
14981TIP3    H266359   5.718   2.454   5.042 -0.2950  0.8210 -0.7798
14982TIP3   OH266360   0.874   3.576   4.586 -0.0992  0.2181  0.2210
14982TIP3    H166361   0.885   3.626   4.666  0.0298  2.0585 -0.8947
14982TIP3    H266362   0.781   3.581   4.566 -0.1087 -0.1097  0.1704
14983TIP3   OH266363   6.573   1.654   0.994 -0.2418 -0.1613  0.1093
14983TIP3    H166364   6.545   1.644   0.902 -0.2552  1.1077 -0.0351
14983TIP3    H266365   6.626   1.576   1.011  1.6892  0.6855 -1.6985
14984TIP3   OH266366   1.821   4.337  16.112 -0.7704  0.1767  0.4850
14984TIP3    H166367   1.820   4.407  16.178  1.4330 -0.2649  1.0569
14984TIP3    H266368   1.793   4.259  16.159 -0.4713  0.1196  0.5694
14985TIP3   OH266369   5.127   2.981   3.877  0.5383  0.2705 -0.5414
14985TIP3    H166370   5.066   3.054   3.886  0.6108  0.3734 -0.8565
14985TIP3    H266371   5.072   2.903   3.880  0.6672  0.2038  2.0451
14986TIP3   OH266372   6.124   4.759   5.638 -0.1621  0.3854  0.0079
14986TIP3    H166373   6.152   4.761   5.546 -0.6851  0.4071 -0.1498
14986TIP3    H266374   6.160   4.840   5.674 -0.6794  0.7987 -0.3923
14987TIP3   OH266375   4.805   5.310   3.476  0.1954 -0.1036  0.0797
14987TIP3    H166376   4.802   5.404   3.461 -0.1225 -0.2072 -0.5695
14987TIP3    H266377   4.828   5.300   3.568 -0.1896  0.6122  0.2558
14988TIP3   OH266378   4.523   0.506   4.363 -0.1569 -1.0549 -0.3386
14988TIP3    H166379   4.611   0.481   4.333 -0.2120 -2.7536  0.8364
14988TIP3    H266380   4.539   0.565   4.436  0.0804 -3.0172  1.2580
14989TIP3   OH266381   4.441   5.725  14.442 -0.0201  0.2708  0.2164
14989TIP3    H166382   4.489   5.807  14.430 -0.8248  0.6952 -0.1581
14989TIP3    H266383   4.451   5.679  14.359 -0.0431  0.2423  0.2293
14990TIP3   OH266384   4.282   1.022  14.087 -0.1738 -0.0200 -0.2159
14990TIP3    H166385   4.304   1.095  14.029 -1.0297  0.4551  0.0282
14990TIP3    H266386   4.198   0.990  14.053  0.2378 -0.9584 -0.3763
14991TIP3   OH266387   2.934   6.516  16.029 -0.2643  0.2256  0.6546
14991TIP3    H166388   2.953   6.537  16.121  0.8463 -0.2321  0.5403
14991TIP3    H266389   2.981   6.582  15.979  2.8369 -2.0235  0.3068
14992TIP3   OH266390   2.225   0.955  15.717 -0.6370 -0.1113  0.0458
14992TIP3    H166391   2.278   0.880  15.689  0.7302 -0.0807  2.2924
14992TIP3    H266392   2.268   1.030  15.677  0.0671 -0.2413  0.5349
14993TIP3   OH266393   6.249   6.490  16.837  0.0774  0.0522  0.2476
14993TIP3    H166394   6.286   6.415  16.790  0.2422 -0.4166  1.1136
14993TIP3    H266395   6.304   6.500  16.915 -0.4475  0.5544  0.5644
14994TIP3   OH266396   3.603   6.112   3.405 -0.1399  0.6266  0.5060
14994TIP3    H166397   3.583   6.110   3.312  0.9070  0.2350  0.2650
14994TIP3    H266398   3.518   6.115   3.449 -0.6204  2.3731 -0.4821
14995TIP3   OH266399   4.318   1.440  14.862  0.5140  0.1241  0.3484
14995TIP3    H166400   4.299   1.453  14.954 -1.1173  0.2221  0.0332
14995TIP3    H266401   4.319   1.345  14.851 -0.7553  0.1164  0.2101
14996TIP3   OH266402   6.230   1.504   2.060  0.2780  0.6971  0.1239
14996TIP3    H166403   6.286   1.463   1.995 -0.1124 -0.3497  0.4333
14996TIP3    H266404   6.258   1.596   2.062  1.3351  0.3933 -0.3963
14997TIP3   OH266405   1.714   3.045  15.474 -0.4558  0.4819  0.0983
14997TIP3    H166406   1.771   3.046  15.550  0.1165  1.3511 -0.3229
14997TIP3    H266407   1.676   2.957  15.473 -0.1214  0.3163  1.1161
14998TIP3   OH266408   3.749   6.407  11.695 -0.2196  0.1175  0.0962
14998TIP3    H166409   3.805   6.350  11.642 -1.1520  1.2238 -2.1910
14998TIP3    H266410   3.804   6.431  11.770  2.0004  0.3088 -1.4951
14999TIP3   OH266411   6.283   2.227  13.002 -0.4266  0.4049 -0.0968
14999TIP3    H166412   6.224   2.270  13.064 -0.5571 -0.0313  0.0822
14999TIP3    H266413   6.370   2.258  13.025 -0.3329 -0.6836  1.0788
15000TIP3   OH266414   1.272   5.080   4.057 -0.1102  0.1455  0.3578
15000TIP3    H166415   1.234   5.079   4.145 -0.1315  1.7349  0.3980
15000TIP3    H266416   1.365   5.098   4.071 -0.1596  0.6569  0.0533
15001TIP3   OH266417   4.416   1.047  12.375 -0.3903  0.0785  0.5303
15001TIP3    H166418   4.414   0.997  12.293 -2.6024  1.5405 -0.3945
15001TIP3    H266419   4.419   1.138  12.348  1.6212  0.5844  2.1823
15002TIP3   OH266420   1.868   4.705  14.564 -0.0053  0.3549  0.4664
15002TIP3    H166421   1.844   4.701  14.656 -0.2062 -1.9446  0.3740
15002TIP3    H266422   1.786   4.693  14.516  0.2863  0.0382  0.0306
15003TIP3   OH266423   0.803   4.215  15.699 -0.3174 -0.2288 -0.4153
15003TIP3    H166424   0.785   4.238  15.608 -0.6217 -1.1028 -0.5898
15003TIP3    H266425   0.762   4.285  15.750  0.4654  0.6429 -0.9556
15004TIP3   OH266426   3.379   2.847  11.814 -0.6846  0.1735  0.5342
15004TIP3    H166427   3.418   2.910  11.875 -0.1730 -0.1293  0.5324
15004TIP3    H266428   3.398   2.882  11.727  0.1305 -0.2815  0.5212
15005TIP3   OH266429   1.068   3.490   4.049  0.2935  0.2452 -0.3510
15005TIP3    H166430   1.059   3.514   4.142 -0.3832  2.4617 -0.9169
15005TIP3    H266431   0.979   3.497   4.015  0.0960 -2.8011 -0.7668
15006TIP3   OH266432   0.992   2.212   3.571  0.0971 -0.5602  0.1191
15006TIP3    H166433   0.918   2.159   3.600 -2.0476  1.9382 -0.3619
15006TIP3    H266434   0.965   2.246   3.485  2.6447 -1.0263 -0.9561
15007TIP3   OH266435   0.855   2.881   5.857 -0.1313  0.5787 -0.3355
15007TIP3    H166436   0.798   2.864   5.782  0.4298  0.3577 -0.7218
15007TIP3    H266437   0.824   2.822   5.926  0.1874 -0.1899 -0.8349
15008TIP3   OH266438   6.419   2.516  11.460 -0.0658 -0.2607 -0.4630
15008TIP3    H166439   6.367   2.532  11.539 -2.4512 -0.3221 -1.9379
15008TIP3    H266440   6.451   2.427  11.470 -1.4125 -0.7273 -0.1009
15009TIP3   OH266441   3.221   4.081  12.612  0.1664  0.2622 -0.0496
15009TIP3    H166442   3.126   4.067  12.609  0.1543  0.5083 -1.1199
15009TIP3    H266443   3.251   4.063  12.523  1.1532  0.0479  0.3103
15010TIP3   OH266444   4.813   4.251   5.717 -0.0063 -0.2505  0.1438
15010TIP3    H166445   4.856   4.168   5.739 -2.4580 -1.0677  2.5165
15010TIP3    H266446   4.732   4.249   5.768 -0.9185  2.9384 -0.9742
15011TIP3   OH266447   6.333   2.531   5.465 -0.1255 -0.1209  0.4551
15011TIP3    H166448   6.245   2.528   5.426  0.9187 -0.4151 -2.0697
15011TIP3    H266449   6.354   2.625   5.467 -0.2800 -0.0875  0.5506
15012TIP3   OH266450   4.031   5.715  15.183 -0.2898 -0.4034  0.3490
15012TIP3    H166451   4.028   5.620  15.197  0.5679 -0.4126  0.5529
15012TIP3    H266452   4.087   5.748  15.254  3.5194 -0.3596 -2.3525
15013TIP3   OH266453   4.013   3.434   0.443  0.0560 -0.2434 -0.5503
15013TIP3    H166454   3.993   3.519   0.484  0.6206 -0.7715  0.8583
15013TIP3    H266455   3.974   3.441   0.355 -4.1637 -0.2607  1.0601
15014TIP3   OH266456   5.318   3.307  12.825  0.4211  0.1913 -0.2123
15014TIP3    H166457   5.235   3.302  12.872  1.8375 -1.8505  2.3317
15014TIP3    H266458   5.347   3.398  12.836 -1.5768  1.0364 -1.4830
15015TIP3   OH266459   5.714   1.755  14.722  0.2244 -0.1069  0.4544
15015TIP3    H166460   5.763   1.786  14.646  0.4475  1.0724  1.0611
15015TIP3    H266461   5.709   1.660  14.710 -0.5417  0.1393 -1.4946
15016TIP3   OH266462   1.492   1.859   3.307  0.5876  0.4277  0.2491
15016TIP3    H166463   1.537   1.869   3.392  2.0641  0.1639 -0.4680
15016TIP3    H266464   1.560   1.827   3.248 -0.2292  1.3142 -1.2219
15017TIP3   OH266465   4.303   3.066   2.792  0.2879 -0.2630  0.0265
15017TIP3    H166466   4.236   3.057   2.860  0.0282  0.8055 -0.0770
15017TIP3    H266467   4.283   2.996   2.729 -0.5368 -0.1568  0.1559
15018TIP3   OH266468   0.866   2.336  12.433 -0.3570  0.2057 -0.3986
15018TIP3    H166469   0.900   2.320  12.345 -1.7894  0.9164 -1.1241
15018TIP3    H266470   0.799   2.268  12.445 -2.0892  1.7072 -1.0046
15019TIP3   OH266471   5.903   4.920  13.060 -0.2545 -0.6483  0.4146
15019TIP3    H166472   5.836   4.980  13.091 -0.4271 -0.3472 -0.5026
15019TIP3    H266473   5.865   4.879  12.982  1.7595  1.9837 -2.2035
15020TIP3   OH266474   0.510   5.129   5.306 -0.6306 -0.4150 -0.3072
15020TIP3    H166475   0.508   5.210   5.357  0.2647  0.2002 -1.2172
15020TIP3    H266476   0.444   5.073   5.348 -0.4317  0.3337  1.0597
15021TIP3   OH266477   5.690   1.194   1.246 -0.5774  0.2355  0.1389
15021TIP3    H166478   5.626   1.262   1.226  1.8527  2.7604  0.3181
15021TIP3    H266479   5.734   1.224   1.326 -0.8757 -2.7578  1.5901
15022TIP3   OH266480   4.153   2.590  13.710  0.5071  0.0166 -0.1324
15022TIP3    H166481   4.148   2.616  13.802 -1.3114 -0.9555  0.1042
15022TIP3    H266482   4.107   2.660  13.663  1.0040  0.2687 -0.2442
15023TIP3   OH266483   5.400   0.209  14.833  0.2060  0.2661 -0.5766
15023TIP3    H166484   5.348   0.283  14.866 -0.9522 -1.0120  0.5642
15023TIP3    H266485   5.480   0.210  14.886 -0.8631 -0.7020  1.1451
15024TIP3   OH266486   2.043   1.975  16.808  0.2220 -0.1253  0.0848
15024TIP3    H166487   2.092   1.974  16.890  0.9038  0.4334 -0.3109
15024TIP3    H266488   1.951   1.979  16.836  0.4699  1.1568  0.8328
15025TIP3   OH266489   3.903   6.155  11.649  0.3116  0.0428 -0.1550
15025TIP3    H166490   3.920   6.142  11.556  0.7612 -0.8926  0.0550
15025TIP3    H266491   3.848   6.081  11.675 -1.7167  1.4428 -0.1459
15026TIP3   OH266492   2.674   0.095   1.136  0.7503  0.1112  0.1373
15026TIP3    H166493   2.621   0.111   1.214 -2.4275 -3.8370 -0.8360
15026TIP3    H266494   2.746   0.040   1.167  0.9761  0.6536  0.6009
15027TIP3   OH266495   2.985   0.068   6.002 -0.3358  0.2549 -0.0192
15027TIP3    H166496   2.915   0.033   6.058  0.5706  0.4570  1.3054
15027TIP3    H266497   3.024   0.138   6.054  0.8703  0.1155 -0.6975
15028TIP3   OH266498   5.596   2.338  11.767  0.8156 -0.0963  0.0368
15028TIP3    H166499   5.641   2.291  11.697  0.7332 -0.2999  0.1210
15028TIP3    H266500   5.645   2.420  11.776  0.7627 -0.0232 -0.3302
15029TIP3   OH266501   0.723   0.852   3.966  0.5512  0.9156  0.2583
15029TIP3    H166502   0.700   0.860   3.873 -1.1779  1.3540  0.6801
15029TIP3    H266503   0.721   0.758   3.983 -1.4259  0.9173  0.3255
15030TIP3   OH266504   1.316   5.057  16.435 -0.0791  0.4407  0.1612
15030TIP3    H166505   1.355   5.131  16.388 -1.0540 -0.4601 -2.2266
15030TIP3    H266506   1.365   4.981  16.404 -0.6027 -0.1666  0.8068
15031TIP3   OH266507   6.554   6.301  14.853  0.0716 -0.0151 -0.1063
15031TIP3    H166508   6.587   6.325  14.940  1.7522 -0.8494 -0.4723
15031TIP3    H266509   6.512   6.381  14.821  0.6485  0.7330  0.9150
15032TIP3   OH266510   3.645   2.530   5.067 -0.4351 -0.3373  1.0752
15032TIP3    H166511   3.627   2.507   5.158  1.1962 -2.9856  0.8130
15032TIP3    H266512   3.595   2.466   5.016  1.9629 -1.6738  0.2482
15033TIP3   OH266513   2.599   0.243  14.696 -0.2599 -0.3497  0.3028
15033TIP3    H166514   2.561   0.190  14.766  0.8096  0.1568  1.3188
15033TIP3    H266515   2.693   0.223  14.700 -0.0141  0.6640 -0.1273
15034TIP3   OH266516   4.651   4.731  16.251  0.2953  0.2190  0.2838
15034TIP3    H166517   4.743   4.742  16.274  0.9238 -2.5145 -0.6359
15034TIP3    H266518   4.630   4.808  16.198  1.3890  1.9132  2.1500
15035TIP3   OH266519   2.511   4.931  12.380 -0.4306  0.5927  0.7816
15035TIP3    H166520   2.416   4.945  12.385 -0.2698  2.2615 -0.0086
15035TIP3    H266521   2.523   4.886  12.296 -0.5830 -0.4270  1.2950
15036TIP3   OH266522   5.555   6.656   2.353 -0.0859 -0.3497  0.1896
15036TIP3    H166523   5.625   6.706   2.394  0.1028  0.5060 -1.1100
15036TIP3    H266524   5.492   6.641   2.423  1.0086 -0.4271  1.1820
15037TIP3   OH266525   3.954   0.457   1.180  0.0186 -0.0467 -0.2957
15037TIP3    H166526   3.890   0.385   1.185  0.3385 -0.3260 -0.2260
15037TIP3    H266527   3.966   0.471   1.086  1.6382 -1.5998 -0.3799
15038TIP3   OH266528   3.287   3.594   0.749 -0.0626 -0.0263  0.3666
15038TIP3    H166529   3.342   3.648   0.692  1.3567 -1.2513  0.5226
15038TIP3    H266530   3.265   3.517   0.695 -1.9649  0.5914  0.1811
15039TIP3   OH266531   2.873   4.775   0.314 -0.0763  0.3648 -0.6780
15039TIP3    H166532   2.874   4.778   0.218 -0.7017  1.5596 -0.6626
15039TIP3    H266533   2.782   4.791   0.337 -0.1844 -1.1614  0.1139
15040TIP3   OH266534   3.080   1.494  15.094  0.0123  0.0427  0.1223
15040TIP3    H166535   3.053   1.583  15.071 -0.6898 -0.0251  0.6573
15040TIP3    H266536   3.126   1.462  15.016  1.2226  1.2453  0.2951
15041TIP3   OH266537   1.847   4.520  16.326 -0.0675  0.0474 -0.2253
15041TIP3    H166538   1.878   4.468  16.400 -0.3879 -0.3956 -0.3991
15041TIP3    H266539   1.756   4.541  16.348 -0.3279 -0.5351 -0.7327
15042TIP3   OH266540   4.491   5.404   5.522  0.0507 -0.1246 -0.0135
15042TIP3    H166541   4.527   5.320   5.548 -0.4003 -0.5059 -0.6059
15042TIP3    H266542   4.419   5.420   5.583 -1.4372 -1.3331 -1.3775
15043TIP3   OH266543   6.060   1.403   5.580 -0.4466  0.0685  0.0818
15043TIP3    H166544   6.138   1.456   5.571  0.0234 -0.0689  2.6706
15043TIP3    H266545   6.085   1.317   5.546 -0.3096  0.6649 -1.4055
15044TIP3   OH266546   1.517   5.842   3.207 -0.2553 -0.2547  0.3636
15044TIP3    H166547   1.506   5.770   3.270  0.7641 -0.1422  0.6935
15044TIP3    H266548   1.434   5.889   3.209 -0.5946 -0.8661  0.8605
15045TIP3   OH266549   0.663   6.521  16.067 -0.0317  0.1357 -0.3869
15045TIP3    H166550   0.613   6.601  16.080  0.5403  0.4111  0.1566
15045TIP3    H266551   0.754   6.550  16.058  0.5831 -0.5830  2.4134
15046TIP3   OH266552   1.918   4.323  15.371  0.1060  0.4584  0.3301
15046TIP3    H166553   1.964   4.239  15.375 -1.1843 -0.2795  0.1819
15046TIP3    H266554   1.899   4.345  15.462  0.4888  0.6291  0.3721
15047TIP3   OH266555   5.901   6.337  16.985 -0.1729 -0.6828  0.0603
15047TIP3    H166556   5.949   6.257  17.006  1.9706  0.6681  0.6819
15047TIP3    H266557   5.913   6.347  16.890 -0.6076 -1.1778 -0.0501
15048TIP3   OH266558   5.130   0.358  17.052 -0.1093  0.1322  0.3417
15048TIP3    H166559   5.073   0.430  17.026  0.1123 -0.1289 -0.9455
15048TIP3    H266560   5.134   0.364  17.147 -0.4227  1.5639  0.2908
15049TIP3   OH266561   1.573   0.387  15.730 -0.7654  0.4862  0.0980
15049TIP3    H166562   1.542   0.445  15.799  0.0366  1.5705 -0.4266
15049TIP3    H266563   1.593   0.445  15.656 -1.2519 -0.6044 -0.9272
15050TIP3   OH266564   5.642   4.495   5.842  0.1861 -0.4061  0.1591
15050TIP3    H166565   5.710   4.468   5.780 -0.6926  2.1497 -2.0910
15050TIP3    H266566   5.569   4.436   5.824  0.5044 -0.7400 -0.0625
15051TIP3   OH266567   3.766   0.195  13.476 -0.2129 -0.2168 -0.4494
15051TIP3    H166568   3.792   0.278  13.436 -0.8911 -0.0542 -0.5673
15051TIP3    H266569   3.831   0.132  13.445  0.2128  0.2408 -0.4829
15052TIP3   OH266570   3.330   2.331   1.369  0.3574  0.0471 -0.0646
15052TIP3    H166571   3.406   2.308   1.422  0.4540  1.0152  0.2267
15052TIP3    H266572   3.337   2.425   1.355 -2.6842  0.9461  3.0518
15053TIP3   OH266573   3.994   0.912  13.139  0.1952 -0.3144  0.5505
15053TIP3    H166574   4.011   0.818  13.133 -0.1558 -0.4282  1.2176
15053TIP3    H266575   3.994   0.942  13.048 -1.0407 -1.2139  0.2294
15054TIP3   OH266576   5.829   0.452   0.051  0.3103  0.4248  0.6105
15054TIP3    H166577   5.823   0.500   0.134  1.9725  1.5749  0.1203
15054TIP3    H266578   5.840   0.521  -0.015  1.1860 -0.5617 -0.3044
15055TIP3   OH266579   1.255   6.624   5.704 -0.0732 -0.0789 -0.2066
15055TIP3    H166580   1.296   6.702   5.667  0.7970 -1.0198 -1.2763
15055TIP3    H266581   1.199   6.591   5.633  0.0645 -0.7883  0.0106
15056TIP3   OH266582   0.684   3.905   2.039  0.0602  0.1975 -0.3021
15056TIP3    H166583   0.663   3.959   2.115 -0.9908 -0.4240 -0.1318
15056TIP3    H266584   0.672   3.815   2.070  1.7582 -0.1528 -0.5857
15057TIP3   OH266585   3.506   2.251   6.290 -0.2739 -0.0936  0.4560
15057TIP3    H166586   3.586   2.272   6.338  0.1078  0.1457 -0.2688
15057TIP3    H266587   3.513   2.158   6.270 -0.3188 -0.1385  0.6444
15058TIP3   OH266588   3.344   5.719  11.499 -0.2192 -0.4860  0.2791
15058TIP3    H166589   3.434   5.749  11.487 -0.2887 -0.6394 -0.6548
15058TIP3    H266590   3.345   5.674  11.584  0.8328 -1.3632 -0.1732
15059TIP3   OH266591   2.966   3.815   5.317  0.2814  0.7595 -0.0243
15059TIP3    H166592   2.958   3.898   5.364 -1.1396  0.8155 -0.3197
15059TIP3    H266593   3.022   3.760   5.373  1.7228  2.0812 -0.0973
15060TIP3   OH266594   3.248   4.344  11.190 -0.0403 -0.5236 -0.4565
15060TIP3    H166595   3.257   4.311  11.280  1.4397 -1.1643 -0.8061
15060TIP3    H266596   3.211   4.271  11.141 -1.5822  0.0829 -0.2406
15061TIP3   OH266597   1.622   6.520   1.667 -0.4314  0.4178  0.2889
15061TIP3    H166598   1.653   6.471   1.743  0.0258  0.7649  0.3329
15061TIP3    H266599   1.640   6.611   1.689 -2.7736  0.7945  0.9109
15062TIP3   OH266600   2.114   6.483   3.466  0.4363  0.0135  0.7724
15062TIP3    H166601   2.135   6.557   3.409  0.1491 -0.0817  0.5375
15062TIP3    H266602   2.082   6.524   3.547 -1.6004  0.1843 -0.0504
15063TIP3   OH266603   4.987   1.161   0.032 -0.1605  0.4985 -0.4447
15063TIP3    H166604   4.964   1.251   0.053  2.0141  1.0322 -0.0570
15063TIP3    H266605   5.006   1.120   0.116 -2.4683 -0.8118 -0.4640
15064TIP3   OH266606   1.141   3.734  15.144 -0.0383  0.2012  0.8479
15064TIP3    H166607   1.085   3.795  15.193 -0.4068  1.4747 -1.0839
15064TIP3    H266608   1.220   3.783  15.125  0.4672 -0.5780  0.8781
15065TIP3   OH266609   5.842   0.697   1.797 -0.2301  0.0381  0.4814
15065TIP3    H166610   5.847   0.617   1.745 -2.2627  0.2727 -0.1547
15065TIP3    H266611   5.866   0.767   1.735 -0.3340  0.0978  0.5086
15066TIP3   OH266612   0.848   6.501  11.243  0.1668  0.1618 -0.0324
15066TIP3    H166613   0.818   6.583  11.203  0.2321 -0.0327 -0.4872
15066TIP3    H266614   0.943   6.507  11.240  0.1869 -0.6288 -1.5424
15067TIP3   OH266615   0.274   4.552   1.165  0.5717 -0.9226  0.6093
15067TIP3    H166616   0.321   4.631   1.192 -0.7527 -0.3946  1.5124
15067TIP3    H266617   0.323   4.480   1.203  1.0020 -0.4365  0.9845
15068TIP3   OH266618   0.834   0.958  14.665 -0.2376 -0.1668  0.2031
15068TIP3    H166619   0.897   0.909  14.718 -0.8624 -0.6948  0.4650
15068TIP3    H266620   0.869   0.952  14.576  0.1734 -0.3105  0.3712
15069TIP3   OH266621   2.465   0.722   4.379 -1.1970  0.0520 -0.3255
15069TIP3    H166622   2.492   0.679   4.461  0.7857  0.5642 -0.6550
15069TIP3    H266623   2.468   0.816   4.399  0.1536  0.2148 -1.1962
15070TIP3   OH266624   0.308   5.032  16.121  0.4144 -0.7463 -0.7861
15070TIP3    H166625   0.333   5.086  16.197  0.0462 -1.9033  0.1988
15070TIP3    H266626   0.344   4.946  16.141  1.9829 -0.6282 -2.8816
15071TIP3   OH266627   3.060   0.184  14.073  0.6979 -0.2434 -0.3400
15071TIP3    H166628   3.029   0.142  13.992  1.0028  1.3891 -1.3486
15071TIP3    H266629   3.148   0.147  14.086  1.0132  0.1500 -1.2722
15072TIP3   OH266630   6.589   1.730  15.991 -0.1201 -0.0842 -0.2137
15072TIP3    H166631   6.601   1.825  15.991  1.1490 -0.2191 -1.0275
15072TIP3    H266632   6.537   1.712  15.913 -0.0750 -0.0788 -0.2460
15073TIP3   OH266633   4.841   2.123  12.505 -0.0429  1.1742 -0.6344
15073TIP3    H166634   4.875   2.125  12.416 -0.7506  1.6945 -0.9020
15073TIP3    H266635   4.770   2.187  12.506  1.8504  3.4232  1.0932
15074TIP3   OH266636   1.293   3.368   1.629 -0.0431  0.1844  0.6884
15074TIP3    H166637   1.355   3.297   1.618  1.0359  0.7613  2.5440
15074TIP3    H266638   1.346   3.448   1.625 -0.8312  0.7550  1.1238
15075TIP3   OH266639   4.076   3.776  12.658 -0.1843  0.0147  0.2524
15075TIP3    H166640   4.033   3.854  12.622  0.4741  1.1846  1.8986
15075TIP3    H266641   4.156   3.766  12.606  0.1061  0.8811  0.5364
15076TIP3   OH266642   6.700   5.644  14.182 -0.1179  0.2695 -0.3559
15076TIP3    H166643   6.678   5.737  14.191  0.1338  0.2325  0.8343
15076TIP3    H266644   6.790   5.638  14.214 -0.0194 -0.3381 -0.7390
15077TIP3   OH266645   5.383   0.778   6.392 -0.4012  0.2861 -0.3576
15077TIP3    H166646   5.449   0.710   6.406 -0.4499  0.1621 -0.7258
15077TIP3    H266647   5.432   0.860   6.396 -0.2355  0.1977 -0.5608
15078TIP3   OH266648   4.360   2.874  10.651  0.1296 -0.6671  0.4019
15078TIP3    H166649   4.268   2.901  10.656  0.0341 -0.9820  0.3721
15078TIP3    H266650   4.409   2.954  10.669 -0.1401 -0.3440 -0.2845
15079TIP3   OH266651   3.202   1.669   0.113 -0.4438  0.5692  0.0793
15079TIP3    H166652   3.253   1.692   0.035  0.2881 -2.4632 -0.4620
15079TIP3    H266653   3.227   1.735   0.178  1.2625  1.4028 -1.3317
15080TIP3   OH266654   1.775   1.560   1.158  0.0185  0.7910 -0.5630
15080TIP3    H166655   1.836   1.630   1.182  0.4948  0.1072  0.2802
15080TIP3    H266656   1.725   1.596   1.084  0.5936  1.8241 -0.4703
15081TIP3   OH266657   4.189   1.329   0.347  0.2903 -0.9088  0.3671
15081TIP3    H166658   4.245   1.278   0.288  0.5542  0.0819 -0.2629
15081TIP3    H266659   4.251   1.381   0.399 -0.0082 -0.7179  0.5333
15082TIP3   OH266660   5.287   4.320   5.102 -0.2451 -0.3130  0.0509
15082TIP3    H166661   5.262   4.405   5.065  0.9975 -0.4999 -1.3371
15082TIP3    H266662   5.316   4.340   5.191 -1.3173  0.4878  0.2401
15083TIP3   OH266663   2.821   5.200   1.679  0.4002  0.0751  0.5255
15083TIP3    H166664   2.912   5.179   1.698  0.2074  0.0290  1.4620
15083TIP3    H266665   2.771   5.139   1.733 -0.1958 -0.1623 -0.2742
15084TIP3   OH266666   3.472   5.997  10.855 -0.2821 -0.4604  0.0318
15084TIP3    H166667   3.492   5.919  10.907 -0.5939  0.2434  1.2475
15084TIP3    H266668   3.378   5.992  10.840 -0.3982 -0.0495  0.5879
15085TIP3   OH266669   4.730   5.201   1.785  0.0348  0.2731 -0.4232
15085TIP3    H166670   4.726   5.172   1.876  2.0107 -1.2566 -0.7625
15085TIP3    H266671   4.799   5.148   1.746  0.3375  2.0101 -2.4225
15086TIP3   OH266672   5.458   5.022   2.814 -0.1409 -0.2939  0.0367
15086TIP3    H166673   5.495   5.004   2.901 -2.6423 -3.4722  0.6264
15086TIP3    H266674   5.406   5.101   2.827  0.7574  0.1785  0.9722
15087TIP3   OH266675   4.182   1.114   6.140 -0.1226 -0.3391 -0.4011
15087TIP3    H166676   4.261   1.164   6.162 -0.5870  0.1353  0.1818
15087TIP3    H266677   4.188   1.035   6.194  0.5466 -0.8933 -1.2324
15088TIP3   OH266678   4.836   4.386   5.210  0.0682 -0.0440  0.2883
15088TIP3    H166679   4.869   4.382   5.300  0.2394 -0.2221  0.2171
15088TIP3    H266680   4.906   4.428   5.160 -0.3500  0.7823  0.3869
15089TIP3   OH266681   3.394   5.054   6.611  0.2067  0.0178  0.2399
15089TIP3    H166682   3.365   5.143   6.632  0.5607  0.2557 -0.2572
15089TIP3    H266683   3.313   5.007   6.591  0.1210  0.6492 -1.0217
15090TIP3   OH266684   6.363   2.635   2.277  0.3128 -0.1540 -0.4581
15090TIP3    H166685   6.430   2.567   2.274 -1.2548 -1.7433 -0.9313
15090TIP3    H266686   6.283   2.592   2.248 -0.5787  2.1301 -1.6742
15091TIP3   OH266687   5.634   4.903   6.499  0.0629  0.2209 -0.1922
15091TIP3    H166688   5.601   4.814   6.508 -0.2043  0.0678 -2.2100
15091TIP3    H266689   5.729   4.894   6.492 -0.1111 -0.2604 -3.1660
15092TIP3   OH266690   2.983   1.504   2.914 -0.5426 -0.2053 -0.0663
15092TIP3    H166691   2.901   1.501   2.964 -0.4112 -0.2912  0.1482
15092TIP3    H266692   3.045   1.546   2.973  0.0044 -1.6352  0.4304
15093TIP3   OH266693   5.028   2.767  14.480  0.2510  0.4394 -0.1253
15093TIP3    H166694   5.098   2.831  14.464 -0.3156  0.9085 -0.8215
15093TIP3    H266695   5.013   2.727  14.394 -0.3168  0.3250  0.0279
15094TIP3   OH266696   4.271   2.171   5.206 -0.4146 -0.0554 -0.2594
15094TIP3    H166697   4.186   2.177   5.162 -0.7670  0.8835  0.4933
15094TIP3    H266698   4.281   2.256   5.249  0.9131 -0.1615 -0.3323
15095TIP3   OH266699   1.972   0.852  11.461  0.1285  0.3324 -0.1788
15095TIP3    H166700   2.033   0.899  11.519 -0.0349  0.7868 -0.3714
15095TIP3    H266701   1.931   0.921  11.409  1.4621 -0.1664 -2.0024
15096TIP3   OH266702   4.768   2.272  16.370  0.0251  0.6683 -0.4428
15096TIP3    H166703   4.764   2.270  16.465 -0.3430 -0.0632 -0.4690
15096TIP3    H266704   4.707   2.205  16.341 -0.0675  1.0654 -1.2055
15097TIP3   OH266705   2.103   3.023  17.045 -0.5313  0.4033 -0.0709
15097TIP3    H166706   2.043   3.056  17.112  0.1674 -0.7917  1.1916
15097TIP3    H266707   2.182   3.075  17.056 -0.4734  0.3159 -0.0707
15098TIP3   OH266708   4.270   4.295   3.169 -0.5122  0.2194 -0.0189
15098TIP3    H166709   4.246   4.302   3.261 -0.8955 -0.9181 -0.0156
15098TIP3    H266710   4.267   4.385   3.137  1.3752  0.8923  1.4769
15099TIP3   OH266711   3.684   4.714  11.004 -0.3450 -0.2771  0.0399
15099TIP3    H166712   3.653   4.694  10.915  1.5432  0.3175 -0.7863
15099TIP3    H266713   3.689   4.809  11.007 -0.6010 -0.2871  0.8652
15100TIP3   OH266714   0.173   5.883   5.899 -0.8090 -0.5395  0.1916
15100TIP3    H166715   0.216   5.963   5.869 -0.7594 -0.5369  0.2700
15100TIP3    H266716   0.226   5.853   5.973 -1.0491 -0.4376  0.4057
15101TIP3   OH266717   2.264   2.210  15.217 -0.2020 -0.5100  0.1477
15101TIP3    H166718   2.221   2.128  15.191 -1.4862  0.8612 -2.6027
15101TIP3    H266719   2.259   2.265  15.138  0.0190  2.4444  2.0355
15102TIP3   OH266720   4.873   3.830   1.414 -0.8426  0.0804 -0.2021
15102TIP3    H166721   4.881   3.737   1.433 -2.7870 -0.4250 -1.5760
15102TIP3    H266722   4.845   3.834   1.323 -1.8058  1.9603  0.1207
15103TIP3   OH266723   2.521   5.676   0.442 -0.4483  0.5000 -0.5569
15103TIP3    H166724   2.591   5.736   0.466  0.4898 -0.7994  0.0561
15103TIP3    H266725   2.559   5.620   0.374 -0.4492 -0.9925  0.6068
15104TIP3   OH266726   5.079   5.694  11.689  0.0854 -0.3059 -0.7394
15104TIP3    H166727   5.087   5.668  11.597 -0.5394  1.6463 -1.4102
15104TIP3    H266728   5.169   5.698  11.721  0.5115  1.3073 -2.0103
15105TIP3   OH266729   5.283   6.203   5.204 -0.6414  0.2462  0.4326
15105TIP3    H166730   5.298   6.118   5.245  1.1408  0.4694  0.3228
15105TIP3    H266731   5.203   6.236   5.245 -2.5750 -2.3351 -0.9646
15106TIP3   OH266732   0.227   2.576  16.505  0.2891 -0.0811 -0.3418
15106TIP3    H166733   0.248   2.578  16.411  0.8699  0.7898 -0.2112
15106TIP3    H266734   0.308   2.603  16.548 -0.2379  0.4256  0.3600
15107TIP3   OH266735   1.848   4.936  16.947 -0.5993 -0.3798 -0.0844
15107TIP3    H166736   1.782   4.906  16.885  0.3426  0.6089 -1.6301
15107TIP3    H266737   1.915   4.868  16.945  0.7786  0.9131 -2.3873
15108TIP3   OH266738   2.957   1.380   0.586 -0.2773  0.3509  0.1834
15108TIP3    H166739   2.946   1.301   0.534 -1.1426 -1.3833  2.7677
15108TIP3    H266740   3.051   1.393   0.592 -0.1467 -0.0978 -0.8120
15109TIP3   OH266741   4.226   0.213   0.055 -0.4217 -0.5322  0.3391
15109TIP3    H166742   4.167   0.157   0.106  0.0200 -2.0042 -0.7111
15109TIP3    H266743   4.174   0.292   0.038 -1.8511 -1.4831  0.0652
15110TIP3   OH266744   0.447   2.838  14.316  0.0844  0.3138 -0.4636
15110TIP3    H166745   0.494   2.863  14.236 -0.4547  0.1119 -0.8558
15110TIP3    H266746   0.377   2.902  14.324 -0.4087 -0.1853 -0.6601
15111TIP3   OH266747   0.770   2.889   4.657 -0.3399 -0.1137 -0.2067
15111TIP3    H166748   0.757   2.979   4.629 -1.4221  0.0453  0.7590
15111TIP3    H266749   0.694   2.841   4.623 -0.5752 -0.3363  0.5933
15112TIP3   OH266750   3.484   2.560   3.704  0.3518 -0.0395  0.3494
15112TIP3    H166751   3.463   2.572   3.797 -0.1608 -1.1054  0.3950
15112TIP3    H266752   3.481   2.465   3.692 -2.4010  0.1698 -1.3770
15113TIP3   OH266753   3.908   6.043  12.675 -0.0415 -0.2035  0.0552
15113TIP3    H166754   3.849   5.970  12.658 -1.3976  0.6429  0.9603
15113TIP3    H266755   3.850   6.119  12.680  1.2308  0.7811  0.1408
15114TIP3   OH266756   3.896   4.689  15.866  0.5078 -0.6604  0.2685
15114TIP3    H166757   3.854   4.615  15.911 -0.2913  0.2550  1.0944
15114TIP3    H266758   3.875   4.677  15.774 -2.6333  0.3007  0.7076
15115TIP3   OH266759   6.160   6.417  14.549  0.0559 -0.1604  0.4185
15115TIP3    H166760   6.118   6.365  14.618  0.2407  0.5210  1.0588
15115TIP3    H266761   6.155   6.362  14.471  0.1513 -1.0867  1.0529
15116TIP3   OH266762   6.192   1.691  15.193  0.0750  0.4664  0.2000
15116TIP3    H166763   6.262   1.706  15.256 -0.3093  0.6742  0.5835
15116TIP3    H266764   6.175   1.596  15.198 -1.3378  0.7596  1.9206
15117TIP3   OH266765   0.233   5.140   5.859 -0.0325 -0.0201  0.4199
15117TIP3    H166766   0.325   5.153   5.833 -0.1997  1.5080  0.5550
15117TIP3    H266767   0.199   5.228   5.872 -1.9263 -0.4737 -1.0036
15118TIP3   OH266768   2.303   6.745  12.612  0.2097 -0.1497 -0.2718
15118TIP3    H166769   2.378   6.686  12.608 -0.4634 -1.1633  1.2608
15118TIP3    H266770   2.304   6.791  12.527  1.2274 -1.7674 -1.1791
15119TIP3   OH266771   0.154   0.165   4.326  0.2291  0.0378  0.0917
15119TIP3    H166772   0.195   0.085   4.293  1.1835  0.7044 -0.4118
15119TIP3    H266773   0.193   0.178   4.412 -0.4539 -0.4060  0.4760
15120TIP3   OH266774   0.948   0.405   2.523 -0.0061  0.6170  0.3120
15120TIP3    H166775   0.885   0.337   2.499  0.8936  0.0632 -0.6011
15120TIP3    H266776   0.901   0.487   2.513 -0.6046  0.2099 -0.2714
15121TIP3   OH266777   1.825   1.582  16.790  0.2200  0.7894  0.2966
15121TIP3    H166778   1.882   1.546  16.857  0.3250  3.2589  1.6652
15121TIP3    H266779   1.884   1.608  16.719  0.0989 -1.9050 -0.9143
15122TIP3   OH266780   0.608   0.836  15.109  0.5902 -0.1046  0.4405
15122TIP3    H166781   0.680   0.889  15.141  0.6930 -0.7447  1.3051
15122TIP3    H266782   0.612   0.844  15.014  0.5985  1.4152  0.5523
15123TIP3   OH266783   5.091   0.464  14.721  0.1626 -0.1797 -0.5339
15123TIP3    H166784   5.012   0.488  14.769 -0.3062 -0.8473 -0.9369
15123TIP3    H266785   5.074   0.374  14.693  1.5866 -0.7619  0.4053
15124TIP3   OH266786   0.625   2.591   6.435 -0.2568 -0.2007 -0.3595
15124TIP3    H166787   0.580   2.598   6.351 -0.0219 -2.1578 -0.7027
15124TIP3    H266788   0.618   2.498   6.458  0.7069  0.0802  1.2109
15125TIP3   OH266789   4.830   5.479   2.231 -0.0445  0.1565  0.1507
15125TIP3    H166790   4.835   5.575   2.237 -0.7898  0.1517  1.0298
15125TIP3    H266791   4.880   5.448   2.308 -0.2844 -0.1499  0.1834
15126TIP3   OH266792   1.254   1.614  14.677  0.8146 -0.0589  0.5620
15126TIP3    H166793   1.267   1.539  14.618 -0.0056  0.8407 -0.8326
15126TIP3    H266794   1.341   1.635  14.709  1.2848 -0.5810 -0.3357
15127TIP3   OH266795   2.342   6.405  16.677  0.0425  0.1383 -0.0377
15127TIP3    H166796   2.267   6.406  16.618 -0.4402 -1.3639  0.5111
15127TIP3    H266797   2.411   6.451  16.629 -0.3056 -1.0811 -1.8086
15128TIP3   OH266798   6.149   3.382   2.551 -0.8751 -0.1944  0.4689
15128TIP3    H166799   6.198   3.322   2.494 -0.7776  0.1737  0.1655
15128TIP3    H266800   6.062   3.388   2.512 -0.1534  1.8526 -0.9899
15129TIP3   OH266801   5.015   3.430   2.473  0.1743 -0.0773 -0.1502
15129TIP3    H166802   5.070   3.355   2.452  0.5492  0.4656 -1.1687
15129TIP3    H266803   4.954   3.437   2.400  1.3370  1.6955 -1.0069
15130TIP3   OH266804   6.218   5.610  16.902 -0.6947 -0.1960 -0.4740
15130TIP3    H166805   6.266   5.588  16.822  1.3068 -0.7361  0.7750
15130TIP3    H266806   6.265   5.563  16.971 -2.1283  0.5372  1.0695
15131TIP3   OH266807   0.551   4.363   4.950  0.3371 -0.0436 -0.0513
15131TIP3    H166808   0.600   4.285   4.923  3.8881  1.5028  1.2275
15131TIP3    H266809   0.538   4.412   4.869  0.0621 -0.9512 -0.5645
15132TIP3   OH266810   4.026   1.676   0.347 -0.5201 -0.8082  0.0956
15132TIP3    H166811   4.005   1.639   0.261 -1.6924 -0.2966  0.1385
15132TIP3    H266812   3.991   1.765   0.344  0.1831 -0.4950  0.8167
15133TIP3   OH266813   5.549   3.832  16.628  0.1297 -0.0421 -0.1538
15133TIP3    H166814   5.579   3.894  16.562  2.8190 -0.9818  0.0464
15133TIP3    H266815   5.548   3.882  16.710  0.8169  0.1295 -0.2423
15134TIP3   OH266816   6.435   5.404   2.339 -0.1892  0.0057 -0.0964
15134TIP3    H166817   6.417   5.362   2.255  0.4406  1.8252 -1.1794
15134TIP3    H266818   6.422   5.497   2.324  1.6962  0.5723  1.3174
15135TIP3   OH266819   6.448   2.286  11.144 -0.2812  0.0884  0.2893
15135TIP3    H166820   6.409   2.373  11.138 -0.8845 -0.2411 -0.6587
15135TIP3    H266821   6.499   2.277  11.064 -1.9790 -1.2560 -0.7054
15136TIP3   OH266822   3.644   5.849   5.312 -0.0344  0.1639 -0.6933
15136TIP3    H166823   3.714   5.797   5.273 -0.1092  0.6751 -1.5402
15136TIP3    H266824   3.648   5.829   5.405  0.4712 -0.7100 -0.8929
15137TIP3   OH266825   1.644   6.642  11.769  0.4218  0.4840 -0.0594
15137TIP3    H166826   1.724   6.619  11.817 -0.7012 -2.0723  0.7990
15137TIP3    H266827   1.581   6.575  11.795 -1.1596  0.7036 -2.9099
15138TIP3   OH266828   1.671   2.174   4.840 -0.3211 -0.0595  0.0328
15138TIP3    H166829   1.579   2.167   4.863  0.2002 -1.0169  2.0663
15138TIP3    H266830   1.700   2.084   4.828  0.7645  0.0795  1.3755
15139TIP3   OH266831   3.375   6.729   2.637  0.0246 -0.0766  0.7522
15139TIP3    H166832   3.462   6.690   2.630  0.1937  0.2875  0.7879
15139TIP3    H266833   3.348   6.746   2.547 -0.2777 -0.7602  0.7051
15140TIP3   OH266834   6.426   1.160   4.159 -0.0843  0.3493 -0.4049
15140TIP3    H166835   6.473   1.240   4.180  0.0895  0.6351 -1.7735
15140TIP3    H266836   6.338   1.190   4.134  0.2829  0.2638 -1.9400
15141TIP3   OH266837   1.801   4.907   3.424  0.5283 -0.3540  0.3994
15141TIP3    H166838   1.843   4.862   3.351 -1.3670  0.5475 -1.3378
15141TIP3    H266839   1.758   4.838   3.474  1.1285 -0.8823  0.2079
15142TIP3   OH266840   3.963   5.172   0.207  0.3420  0.1116 -0.2644
15142TIP3    H166841   3.929   5.226   0.136  1.1775  0.9497 -0.0387
15142TIP3    H266842   3.919   5.204   0.286 -0.5756 -0.8094 -0.3762
15143TIP3   OH266843   2.099   6.099  15.136  0.4807 -0.1411  0.0057
15143TIP3    H166844   2.008   6.121  15.115 -0.0198 -1.7761  0.3116
15143TIP3    H266845   2.093   6.022  15.193  2.0948 -3.1959 -3.5007
15144TIP3   OH266846   4.967   4.508  14.839 -0.2344 -0.0340 -0.3326
15144TIP3    H166847   5.005   4.591  14.867  1.4881 -1.1851  0.9168
15144TIP3    H266848   4.884   4.533  14.798  1.4772  2.5552 -2.5926
15145TIP3   OH266849   5.370   3.635   2.388  0.4432  0.1153  0.0087
15145TIP3    H166850   5.367   3.542   2.364  0.5991  0.0874  0.0946
15145TIP3    H266851   5.285   3.652   2.430 -0.0896  0.3188 -1.1037
15146TIP3   OH266852   3.772   4.870   1.705 -0.3827 -0.1683 -0.2510
15146TIP3    H166853   3.756   4.946   1.649  1.6368  0.4952 -0.0036
15146TIP3    H266854   3.718   4.885   1.783 -2.4039 -0.5774 -1.4934
15147TIP3   OH266855   5.703   2.509  16.858 -0.4064  0.1996  0.6880
15147TIP3    H166856   5.697   2.518  16.763  2.2032  1.9981  0.5803
15147TIP3    H266857   5.667   2.591  16.892 -0.5649 -0.0845  1.2122
15148TIP3   OH266858   3.535   2.720   0.990 -0.7127 -0.1452 -0.2185
15148TIP3    H166859   3.613   2.694   0.941  0.2339 -0.8000  1.5664
15148TIP3    H266860   3.515   2.808   0.957  1.4669  0.5200  0.0671
15149TIP3   OH266861   1.427   6.229   1.834 -0.0120  0.1243 -0.0727
15149TIP3    H166862   1.348   6.272   1.868 -0.0327 -0.3072  0.4436
15149TIP3    H266863   1.498   6.265   1.886  0.1480  0.5916 -0.6105
15150TIP3   OH266864   5.203   1.449   0.535 -0.2955  0.4566 -0.5045
15150TIP3    H166865   5.164   1.471   0.619 -0.8631  0.8305 -0.8581
15150TIP3    H266866   5.295   1.434   0.555 -0.4695  0.2970  0.2221
15151TIP3   OH266867   3.450   6.515   0.560 -0.5004  0.1553 -0.1679
15151TIP3    H166868   3.542   6.491   0.553  0.1044  2.4978 -1.1129
15151TIP3    H266869   3.416   6.508   0.470 -0.5871  1.5940 -0.2701
15152TIP3   OH266870   6.218   4.518   5.375  0.4755  0.6542  0.6616
15152TIP3    H166871   6.267   4.530   5.456 -0.3467  1.8894  1.0151
15152TIP3    H266872   6.223   4.603   5.331  2.1690 -0.4045 -1.3591
15153TIP3   OH266873   2.814   1.854   1.078  0.1774 -0.4458  0.4850
15153TIP3    H166874   2.883   1.919   1.092  1.1290 -1.5238  0.9034
15153TIP3    H266875   2.818   1.834   0.985  0.3458 -0.4180  0.4865
15154TIP3   OH266876   6.400   5.867  13.863 -0.1382 -0.0080 -0.0421
15154TIP3    H166877   6.436   5.813  13.932  1.9065  1.7094  0.3167
15154TIP3    H266878   6.324   5.910  13.903  0.2494 -0.0184  0.7120
15155TIP3   OH266879   4.909   6.245   0.608  0.4610  0.1824 -0.3047
15155TIP3    H166880   4.982   6.302   0.629 -0.9754  1.8478  0.3908
15155TIP3    H266881   4.888   6.201   0.691  1.7490 -1.6583 -0.9003
15156TIP3   OH266882   3.389   5.810   4.272 -0.1516 -0.6316  0.7591
15156TIP3    H166883   3.470   5.765   4.292  1.1773  1.8185  1.2523
15156TIP3    H266884   3.359   5.846   4.355 -0.9850 -0.3149  0.3400
15157TIP3   OH266885   6.559   6.109   0.581 -0.5016 -0.1543  0.0032
15157TIP3    H166886   6.596   6.024   0.606  0.6554  0.7400  1.5135
15157TIP3    H266887   6.572   6.165   0.658 -2.5626  1.0167 -0.4015
15158TIP3   OH266888   6.385   6.584   6.049  0.6829  0.0719 -0.3884
15158TIP3    H166889   6.355   6.668   6.085 -2.3451 -1.0410 -0.0113
15158TIP3    H266890   6.401   6.602   5.956  0.3851  1.1472 -0.2495
15159TIP3   OH266891   0.156   6.160  16.318  0.1877  0.5353  0.4882
15159TIP3    H166892   0.101   6.229  16.280  0.4829 -0.1100 -1.2192
15159TIP3    H266893   0.096   6.108  16.371 -1.0353 -0.4937 -1.7900
15160TIP3   OH266894   3.709   4.332   2.046  0.2679  0.4547  0.4376
15160TIP3    H166895   3.685   4.386   2.122 -0.1321  0.1343  0.5415
15160TIP3    H266896   3.704   4.392   1.972 -2.1084  0.1430  0.2623
15161TIP3   OH266897   2.919   0.641   6.104  1.0290  0.2543  0.5111
15161TIP3    H166898   2.876   0.555   6.103 -0.1421  0.8099  0.4203
15161TIP3    H266899   3.003   0.626   6.145  0.6922 -0.8776  0.8169
15162TIP3   OH266900   2.190   4.578  15.499  0.0458 -0.0035 -0.6069
15162TIP3    H166901   2.099   4.593  15.525 -0.4294  0.1227 -2.2531
15162TIP3    H266902   2.195   4.608  15.408  1.7170 -0.0967 -0.5897
15163TIP3   OH266903   3.660   1.033  16.814 -0.0489  0.1137  0.0107
15163TIP3    H166904   3.687   1.085  16.738 -0.3132  0.8835  0.4273
15163TIP3    H266905   3.587   1.082  16.851  0.2117 -0.1376  0.8793
15164TIP3   OH266906   5.668   0.434  14.242 -0.4433  0.2480  0.0706
15164TIP3    H166907   5.630   0.506  14.292 -1.8293  0.1317 -0.7543
15164TIP3    H266908   5.669   0.466  14.152 -0.5823 -0.5714 -0.2247
15165TIP3   OH266909   2.671   6.722  15.825 -0.1229 -0.1869  0.5369
15165TIP3    H166910   2.619   6.675  15.760 -1.4461  0.4514  1.1056
15165TIP3    H266911   2.755   6.738  15.781 -1.1380  0.6681 -1.2272
15166TIP3   OH266912   3.245   3.684   3.196  0.5212 -0.0660  0.1835
15166TIP3    H166913   3.163   3.733   3.199  1.6553  1.9324  1.5216
15166TIP3    H266914   3.229   3.607   3.249 -0.1294  0.9893  1.5856
15167TIP3   OH266915   3.015   3.732   2.440  0.1831 -0.5973 -0.2704
15167TIP3    H166916   3.090   3.685   2.477  1.1603  1.5492  0.6291
15167TIP3    H266917   3.018   3.818   2.481 -1.2204  0.4559 -2.2121
15168TIP3   OH266918   5.613   1.856   4.964 -0.3447 -0.0708  0.1049
15168TIP3    H166919   5.694   1.875   4.917 -0.3016 -0.8134 -0.1261
15168TIP3    H266920   5.560   1.805   4.903 -0.6360 -0.3192  0.5563
15169TIP3   OH266921   3.858   2.671   2.142 -0.5652 -0.1781 -0.6871
15169TIP3    H166922   3.781   2.626   2.108 -0.5487 -0.4569 -0.3562
15169TIP3    H266923   3.830   2.762   2.153 -1.2589 -0.5314  0.6857
15170TIP3   OH266924   4.091   4.222  13.010  0.2244 -0.2772 -0.0687
15170TIP3    H166925   4.055   4.169  12.939  0.9687 -1.0910  0.1425
15170TIP3    H266926   4.073   4.313  12.985 -1.3763 -0.6357 -0.2666
15171TIP3   OH266927   4.111   1.127  15.802  0.2152  0.1429 -0.2680
15171TIP3    H166928   4.034   1.183  15.809 -0.4308 -0.6819 -0.5923
15171TIP3    H266929   4.080   1.048  15.757  1.1462 -0.3931 -0.0077
15172TIP3   OH266930   2.412   5.905  14.758 -0.2632  0.1144 -0.1677
15172TIP3    H166931   2.343   5.960  14.719  1.7945  1.3286 -2.3815
15172TIP3    H266932   2.454   5.961  14.822 -0.3737 -0.1134  0.1065
15173TIP3   OH266933   1.622   2.244   0.604  0.1421  0.3388  0.5146
15173TIP3    H166934   1.638   2.151   0.613  0.9262  0.5012  0.9097
15173TIP3    H266935   1.532   2.256   0.636 -0.3086 -0.3988 -0.4254
15174TIP3   OH266936   4.389   6.719  15.292  1.0685  0.3936  0.1130
15174TIP3    H166937   4.312   6.762  15.329 -0.5330 -2.4403  0.3610
15174TIP3    H266938   4.450   6.710  15.365  0.0521 -0.6008  0.8686
15175TIP3   OH266939   1.769   2.550  14.169 -0.6575  0.0844 -0.6333
15175TIP3    H166940   1.839   2.565  14.231  0.1668  1.0617 -1.7503
15175TIP3    H266941   1.749   2.457  14.177 -1.7672  0.4799  2.2678
15176TIP3   OH266942   3.710   0.419  11.882 -0.2244  0.0005 -0.0339
15176TIP3    H166943   3.803   0.399  11.880 -0.2259 -0.0635  0.3360
15176TIP3    H266944   3.667   0.336  11.901 -0.5054 -0.3406 -1.9846
15177TIP3   OH266945   4.379   6.367   1.286  0.8745 -0.4937  0.2274
15177TIP3    H166946   4.399   6.426   1.214  0.2020 -2.4613 -1.6762
15177TIP3    H266947   4.285   6.350   1.278  0.5139  0.1806  2.3687
15178TIP3   OH266948   5.541   4.282   4.893  0.5080 -0.1790  0.0605
15178TIP3    H166949   5.445   4.273   4.899  0.0938  0.8063 -3.2284
15178TIP3    H266950   5.564   4.336   4.968 -1.7346  0.7118  0.2096
15179TIP3   OH266951   4.008   0.152  15.755  0.0257 -0.0402 -0.1045
15179TIP3    H166952   3.978   0.237  15.722 -0.4217 -0.0609  0.2310
15179TIP3    H266953   3.989   0.091  15.684 -1.0404 -0.1043  0.2233
15180TIP3   OH266954   6.661   0.320  14.783 -0.0585  0.2453  0.0649
15180TIP3    H166955   6.699   0.322  14.871  0.1173 -0.8924  0.0232
15180TIP3    H266956   6.573   0.285  14.795  0.9297 -2.6861 -0.5092
15181TIP3   OH266957   0.676   0.889   3.096  0.1506  0.1381 -0.5390
15181TIP3    H166958   0.697   0.966   3.149 -2.0867  0.9581 -0.7160
15181TIP3    H266959   0.668   0.924   3.007 -1.5448 -0.1391 -0.5177
15182TIP3   OH266960   5.702   2.360   5.783 -0.0502 -0.3128  0.3652
15182TIP3    H166961   5.777   2.396   5.831 -0.4011 -1.2699  1.6802
15182TIP3    H266962   5.692   2.419   5.708  2.2479 -0.3874 -0.0760
15183TIP3   OH266963   5.813   2.929   3.937 -0.0442 -0.1634  0.1181
15183TIP3    H166964   5.751   2.856   3.931 -0.3956  0.1294  0.1195
15183TIP3    H266965   5.788   2.987   3.865 -0.6148  0.5927  0.9037
15184TIP3   OH266966   0.652   1.066   2.884  0.3077 -0.0242 -0.1545
15184TIP3    H166967   0.645   1.148   2.932  1.6366  0.0043  0.0278
15184TIP3    H266968   0.678   1.093   2.796  1.3979 -0.2609  0.0773
15185TIP3   OH266969   3.865   5.444   0.545  0.0675  0.2369  0.6638
15185TIP3    H166970   3.881   5.519   0.487 -0.3821  0.6370  1.0550
15185TIP3    H266971   3.947   5.433   0.594 -0.0770  0.8682  1.0528
15186TIP3   OH266972   4.717   4.804   1.744 -0.1018  0.3039 -0.1104
15186TIP3    H166973   4.672   4.767   1.820  0.8017  0.6365  0.6123
15186TIP3    H266974   4.725   4.731   1.683 -0.7854  0.0132  0.1417
15187TIP3   OH266975   5.891   2.849  10.542 -0.3515 -0.1271 -0.3249
15187TIP3    H166976   5.918   2.925  10.490 -0.4510  1.9888  2.4693
15187TIP3    H266977   5.816   2.880  10.592  0.1557 -1.7670  1.5794
15188TIP3   OH266978   5.557   0.112  15.924  0.2032 -0.2239  0.3817
15188TIP3    H166979   5.479   0.096  15.978 -0.5102 -1.3728 -0.9200
15188TIP3    H266980   5.630   0.112  15.986 -0.6475 -0.9194  1.4254
15189TIP3   OH266981   2.468   0.178   0.860 -0.1943 -0.3367  0.8245
15189TIP3    H166982   2.516   0.102   0.826  0.2644  1.4338 -2.9241
15189TIP3    H266983   2.386   0.179   0.810 -0.3502  1.4065  1.0659
15190TIP3   OH266984   2.779   1.022   1.056  0.1157  0.2483  0.3913
15190TIP3    H166985   2.717   1.094   1.053 -0.4774 -0.2653  0.0107
15190TIP3    H266986   2.864   1.062   1.041 -0.1117  0.9727  1.0020
15191TIP3   OH266987   2.759   3.911  15.765 -0.3026  0.2440 -0.0018
15191TIP3    H166988   2.844   3.866  15.767 -0.5220 -0.1633  0.4281
15191TIP3    H266989   2.744   3.929  15.672  0.7598  1.2974  0.0115
15192TIP3   OH266990   0.994   6.495   0.483 -0.1749 -0.6249 -0.3563
15192TIP3    H166991   0.899   6.488   0.495 -0.0541 -0.5161  0.7713
15192TIP3    H266992   1.006   6.574   0.431 -0.6636 -0.1542  0.2289
15193TIP3   OH266993   0.785   6.073  12.871  0.6210  1.1037  0.3464
15193TIP3    H166994   0.724   6.140  12.841 -1.5789 -0.3947  1.1574
15193TIP3    H266995   0.798   6.092  12.964 -0.5487  0.1169  0.7495
15194TIP3   OH266996   6.516   0.141  16.592 -0.2527  0.0484  0.4468
15194TIP3    H166997   6.607   0.110  16.589  0.4727  2.0527  0.3910
15194TIP3    H266998   6.469   0.071  16.638  1.7411 -0.0728  2.4869
15195TIP3   OH266999   6.611   0.323  16.943  0.2403 -0.4098  0.1562
15195TIP3    H167000   6.665   0.318  16.864 -1.0041 -0.5353 -0.7265
15195TIP3    H267001   6.521   0.320  16.910 -0.3214  0.5789  1.5134
15196TIP3   OH267002   3.083   2.182   3.691 -0.5528 -0.4581  0.3087
15196TIP3    H167003   3.008   2.219   3.644  0.6357  1.2955 -0.2866
15196TIP3    H267004   3.052   2.172   3.781 -1.0872  1.7431  0.4408
15197TIP3   OH267005   5.421   5.959  12.078  0.6888 -0.0382  0.1076
15197TIP3    H167006   5.383   6.047  12.079  0.4503 -0.1277 -0.4881
15197TIP3    H267007   5.427   5.934  12.170 -0.4995  0.0606  0.2302
15198TIP3   OH267008   0.014   5.367  14.323 -0.2455 -0.5156  0.5142
15198TIP3    H167009  -0.077   5.393  14.339 -0.6557 -0.6934 -1.3252
15198TIP3    H267010   0.013   5.272  14.334 -0.3801 -0.5586  0.1679
15199TIP3   OH267011   2.057   5.824   1.264  0.1899 -0.2221 -0.2031
15199TIP3    H167012   2.135   5.769   1.257 -0.5797 -1.3001 -0.6880
15199TIP3    H267013   2.071   5.878   1.342  2.5034  1.4064 -1.6152
15200TIP3   OH267014   5.004   4.042   0.601 -0.9931  0.0413 -0.2057
15200TIP3    H167015   5.076   4.035   0.538 -1.0678 -1.4172 -0.1593
15200TIP3    H267016   5.046   4.072   0.682 -0.4711 -0.4877 -0.2705
15201TIP3   OH267017   0.672   0.148   2.954 -0.3065 -0.0494 -0.6468
15201TIP3    H167018   0.606   0.101   3.005  0.7546 -0.2578  0.5962
15201TIP3    H267019   0.742   0.166   3.017  0.0546  1.7142 -1.5064
15202TIP3   OH267020   6.749   1.610  12.278  0.0421 -0.0370 -0.2663
15202TIP3    H167021   6.825   1.551  12.277  1.0038  1.1485 -0.1646
15202TIP3    H267022   6.756   1.659  12.196 -0.3104  0.4471 -0.0106
15203TIP3   OH267023   2.132   5.741  13.089  0.2552 -0.0151  0.2082
15203TIP3    H167024   2.206   5.681  13.089 -0.2028 -0.7278 -2.9943
15203TIP3    H267025   2.055   5.684  13.082 -0.4412  0.8352  0.7075
15204TIP3   OH267026   3.476   6.466  11.728  0.2548  0.4127 -0.3841
15204TIP3    H167027   3.473   6.560  11.746 -1.3173  0.9336 -2.8849
15204TIP3    H267028   3.568   6.448  11.706  0.6847  1.2095  0.7207
15205TIP3   OH267029   0.680   0.169  14.863 -0.0354  0.4862 -0.1114
15205TIP3    H167030   0.731   0.111  14.806 -0.1128  0.0835  0.2222
15205TIP3    H267031   0.715   0.155  14.950  0.7015  1.7977 -0.1797
15206TIP3   OH267032   4.375   0.448   1.776 -0.1555  0.2828 -0.1562
15206TIP3    H167033   4.344   0.448   1.685  2.2890 -1.6345 -1.1095
15206TIP3    H267034   4.324   0.379   1.818 -0.0458 -0.0501 -0.5645
15207TIP3   OH267035   3.412   2.431  13.449  0.6254 -0.2682  0.0652
15207TIP3    H167036   3.330   2.386  13.468  0.3769  0.7987  1.7258
15207TIP3    H267037   3.457   2.375  13.385 -1.3391 -0.9127 -0.8195
15208TIP3   OH267038   5.727   1.139  12.465  0.1070 -0.0130 -0.2570
15208TIP3    H167039   5.797   1.203  12.478 -1.0463  1.1903  0.3378
15208TIP3    H267040   5.649   1.183  12.499 -1.0313 -1.1009 -1.3784
15209TIP3   OH267041   5.146   5.730   2.484  0.6160 -0.6755 -0.1566
15209TIP3    H167042   5.237   5.751   2.505  0.5948 -1.0406  0.3042
15209TIP3    H267043   5.101   5.729   2.568  0.1184 -0.2122 -0.4075
15210TIP3   OH267044   5.904   1.959   6.569 -0.0938 -0.0101 -0.4783
15210TIP3    H167045   5.904   2.046   6.529  1.6413  0.1134 -0.3102
15210TIP3    H267046   5.981   1.916   6.531 -0.0016 -0.8820  0.6509
15211TIP3   OH267047   4.894   5.802   6.767  0.0929  0.5885  0.2186
15211TIP3    H167048   4.955   5.742   6.811 -0.4824  0.6562  1.1395
15211TIP3    H267049   4.924   5.803   6.676  0.5215 -0.5786  0.3159
15212TIP3   OH267050   3.856   0.830  16.814  0.4107  0.5438  0.1390
15212TIP3    H167051   3.776   0.883  16.821 -0.6313 -0.9745  0.3100
15212TIP3    H267052   3.845   0.761  16.879  0.0757 -1.8635 -2.2763
15213TIP3   OH267053   5.099   4.621   2.706 -0.6973  0.3282  0.2714
15213TIP3    H167054   5.120   4.712   2.727 -0.3522  0.4577 -0.5894
15213TIP3    H267055   5.031   4.597   2.769  2.8237 -0.5620  4.1455
15214TIP3   OH267056   4.939   0.628  16.710 -0.0849 -0.6636  0.2153
15214TIP3    H167057   4.979   0.690  16.770  1.3617 -0.3038 -1.0627
15214TIP3    H267058   4.892   0.683  16.647 -1.4651 -1.0293  0.8779
15215TIP3   OH267059   3.528   6.243   4.426  0.0880  0.2809 -0.6962
15215TIP3    H167060   3.539   6.333   4.397  0.1328  0.5044 -0.0119
15215TIP3    H267061   3.437   6.221   4.403  0.3444  0.1850 -1.6771
15216TIP3   OH267062   5.768   1.107  11.447 -0.0302 -0.0379 -0.1547
15216TIP3    H167063   5.733   1.150  11.369 -1.5483 -0.3185  0.3398
15216TIP3    H267064   5.691   1.070  11.490  0.9319 -0.9633  0.8231
15217TIP3   OH267065   2.380   4.839  11.807  0.1427 -0.3703  0.0811
15217TIP3    H167066   2.375   4.843  11.711  1.9665  0.5864 -0.0215
15217TIP3    H267067   2.311   4.778  11.832 -1.5100  0.6300 -1.7104
15218TIP3   OH267068   5.284   1.206  11.875  0.1810 -0.1165  0.1146
15218TIP3    H167069   5.285   1.166  11.787  1.9483 -0.2452  0.1642
15218TIP3    H267070   5.232   1.145  11.928  1.4317 -1.5358 -0.2074
15219TIP3   OH267071   3.750   0.901   4.391  0.2527 -0.0850 -0.0082
15219TIP3    H167072   3.670   0.935   4.350  1.2584  2.3593 -0.1238
15219TIP3    H267073   3.718   0.846   4.462 -1.5497  1.0068  0.1029
15220TIP3   OH267074   3.456   2.012  16.356  0.1286 -0.1542  0.2449
15220TIP3    H167075   3.505   2.063  16.421  0.7434 -0.6201  0.1451
15220TIP3    H267076   3.397   2.076  16.316  1.6417  0.7410 -0.6410
15221TIP3   OH267077   4.956   6.380  16.345 -0.0450  0.3316  0.4976
15221TIP3    H167078   4.888   6.447  16.338 -0.7291 -0.4540 -0.8333
15221TIP3    H267079   5.033   6.420  16.304 -0.8423 -0.1325 -1.5969
15222TIP3   OH267080   3.573   5.717  11.714  0.5346  0.4336 -0.2082
15222TIP3    H167081   3.574   5.712  11.619 -1.6642 -4.0421 -0.2579
15222TIP3    H267082   3.651   5.668  11.741 -0.4240 -0.9364  0.1721
15223TIP3   OH267083   4.635   2.503   2.079 -0.2638 -0.1604  0.1835
15223TIP3    H167084   4.606   2.566   2.013  1.5697 -2.7054 -3.3745
15223TIP3    H267085   4.728   2.521   2.090 -0.4018 -0.2390  1.6176
15224TIP3   OH267086   1.913   0.106   3.281 -0.1230 -0.1111 -0.0025
15224TIP3    H167087   1.913   0.194   3.320 -0.3689  0.2102 -0.7138
15224TIP3    H267088   1.836   0.105   3.225 -0.2956 -0.8960  0.2317
15225TIP3   OH267089   0.182   0.157  16.104  0.4119 -0.1674 -0.6360
15225TIP3    H167090   0.109   0.096  16.089 -0.0894  0.3830 -0.4793
15225TIP3    H267091   0.203   0.145  16.197 -0.4311  0.6914 -0.3207
15226TIP3   OH267092   4.995   5.568   3.731 -0.3332  0.0015 -0.3650
15226TIP3    H167093   4.906   5.583   3.699  0.4037 -1.0978 -3.2594
15226TIP3    H267094   4.999   5.475   3.750 -0.2546  0.3479  1.5290
15227TIP3   OH267095   3.593   6.318  12.994  0.1344  0.7382  0.1837
15227TIP3    H167096   3.628   6.260  13.062  1.4164  2.0424  0.6884
15227TIP3    H267097   3.620   6.277  12.912  0.6448  0.3667  0.5259
15228TIP3   OH267098   3.734   1.657   2.062 -0.4052 -0.5670 -0.1140
15228TIP3    H167099   3.654   1.606   2.047  0.2246 -1.8282  0.6496
15228TIP3    H267100   3.737   1.719   1.989 -1.4901 -1.2586 -0.7710
15229TIP3   OH267101   1.640   0.033  16.298  0.0659 -0.6375  0.1418
15229TIP3    H167102   1.635  -0.054  16.337 -2.9239 -1.4111 -1.5958
15229TIP3    H267103   1.553   0.071  16.313  0.8211  1.4970 -0.3953
15230TIP3   OH267104   6.109   4.691   1.238 -0.2053 -0.3981 -0.2360
15230TIP3    H167105   6.058   4.673   1.159 -1.1291 -1.1269  0.5020
15230TIP3    H267106   6.187   4.736   1.206 -2.2371  2.7315 -1.2590
15231TIP3   OH267107   3.737   2.350   4.829 -0.2843  0.1244 -0.5223
15231TIP3    H167108   3.686   2.429   4.810  1.1517  1.1487 -0.2526
15231TIP3    H267109   3.801   2.344   4.758  1.9435  1.2617  1.2689
15232TIP3   OH267110   4.311   1.713  13.651  0.2261 -0.0422  0.2345
15232TIP3    H167111   4.289   1.620  13.649  2.2366 -0.5896 -2.0679
15232TIP3    H267112   4.231   1.756  13.680 -0.5652 -2.5018  2.0609
15233TIP3   OH267113   0.374   4.058  13.113 -0.0971  0.0831 -0.3509
15233TIP3    H167114   0.329   4.105  13.043 -0.9422  1.2168  0.9175
15233TIP3    H267115   0.467   4.074  13.098 -0.3059  0.8676 -0.8168
15234TIP3   OH267116   0.276   1.787  12.506  0.0751 -0.0593 -0.4933
15234TIP3    H167117   0.294   1.809  12.597 -0.0648  0.4342 -0.5851
15234TIP3    H267118   0.292   1.867  12.458  1.2132 -0.6070 -1.0585
15235TIP3   OH267119   2.855   1.523  14.388  0.2708 -0.0843 -0.0876
15235TIP3    H167120   2.860   1.608  14.432  0.5967 -0.3216  0.3454
15235TIP3    H267121   2.944   1.488  14.395 -0.0729 -0.8503  0.5344
15236TIP3   OH267122   2.257   5.762   2.272 -0.1415 -0.6718 -0.3182
15236TIP3    H167123   2.238   5.785   2.363 -1.0467  1.1260 -0.9113
15236TIP3    H267124   2.198   5.690   2.253 -0.6677 -0.3883  0.2160
15237TIP3   OH267125   6.620   3.213  15.062  0.1186 -0.1010  0.3581
15237TIP3    H167126   6.664   3.154  15.000 -1.3197 -0.0624 -0.7643
15237TIP3    H267127   6.562   3.156  15.112  1.7166 -0.2286  2.1714
15238TIP3   OH267128   0.805   0.628  12.678 -0.3257 -0.2657 -0.2161
15238TIP3    H167129   0.886   0.578  12.676 -1.4505 -2.1664 -0.9333
15238TIP3    H267130   0.811   0.687  12.602  0.4479 -0.2570 -0.1506
15239TIP3   OH267131   6.218   2.483   4.073  0.6152  0.1605  0.8696
15239TIP3    H167132   6.203   2.566   4.117 -0.6672  0.9873 -1.0086
15239TIP3    H267133   6.210   2.417   4.142  0.8055  1.5131  2.2270
15240TIP3   OH267134   4.650   1.216  11.750  0.0835 -0.0712 -0.4593
15240TIP3    H167135   4.689   1.261  11.825 -0.9948 -2.2266  1.5348
15240TIP3    H267136   4.724   1.179  11.702  0.7003 -0.9030  1.0840
15241TIP3   OH267137   3.619   5.121   1.492 -0.0698 -0.0182 -0.3326
15241TIP3    H167138   3.584   5.033   1.502 -2.4868  0.9070  0.0798
15241TIP3    H267139   3.687   5.113   1.425 -0.5411 -2.0936 -0.6254
15242TIP3   OH267140   1.348   2.428  11.756 -0.7215 -0.1574 -0.0217
15242TIP3    H167141   1.288   2.392  11.821 -1.0312  0.5136  0.0767
15242TIP3    H267142   1.318   2.519  11.743  1.0951  0.6506  1.0457
15243TIP3   OH267143   2.165   0.211   0.097 -0.2340  0.0282  0.8455
15243TIP3    H167144   2.132   0.269   0.028 -0.6806 -2.1310 -0.8405
15243TIP3    H267145   2.165   0.266   0.176 -1.0676  2.1675 -0.5489
15244TIP3   OH267146   1.622   2.587  15.730 -0.5643 -0.1146  0.2538
15244TIP3    H167147   1.551   2.652  15.728  0.6515  1.2577  0.1077
15244TIP3    H267148   1.577   2.503  15.737 -2.1897  0.7641  1.0124
15245TIP3   OH267149   1.179   1.780   6.211 -1.0400  0.7466  0.4620
15245TIP3    H167150   1.263   1.736   6.226 -1.4837 -0.4827 -0.4927
15245TIP3    H267151   1.114   1.722   6.249 -1.5679  1.0443  0.0341
15246TIP3   OH267152   6.541   4.794   3.018 -0.6862  0.2424 -0.1518
15246TIP3    H167153   6.523   4.730   2.949 -2.6993 -0.3072  0.7916
15246TIP3    H267154   6.542   4.879   2.972  1.3317 -0.3335 -1.3052
15247TIP3   OH267155   6.650   5.837  10.332 -0.1081  0.4759 -0.2044
15247TIP3    H167156   6.679   5.840  10.423  2.6904  0.5922 -1.0234
15247TIP3    H267157   6.674   5.750  10.301 -0.1091  0.7777 -1.0965
15248TIP3   OH267158   6.161   0.889   2.028  0.0343 -0.4340 -0.4658
15248TIP3    H167159   6.094   0.820   2.022 -0.4634  0.0739 -0.8365
15248TIP3    H267160   6.223   0.856   2.093 -1.2690 -0.3300  0.8925
15249TIP3   OH267161   4.230   5.573  16.706  0.1952 -0.4272 -0.1170
15249TIP3    H167162   4.305   5.615  16.749 -0.1650  0.2070 -0.0918
15249TIP3    H267163   4.232   5.609  16.617  1.5787 -2.5373 -1.0203
15250TIP3   OH267164   6.051   1.008  14.425 -0.2423  0.4827 -0.0739
15250TIP3    H167165   5.990   0.994  14.353  0.4486 -1.9614 -0.2649
15250TIP3    H267166   6.047   0.928  14.477  0.1100  1.7409  2.0072
15251TIP3   OH267167   5.620   1.531  12.681  0.2603  0.0453 -0.1123
15251TIP3    H167168   5.701   1.496  12.645 -0.2130 -0.8753 -0.2957
15251TIP3    H267169   5.561   1.538  12.606 -0.3440 -0.7900  0.2686
15252TIP3   OH267170   1.979   1.566   4.138 -0.4456  0.2475 -0.2699
15252TIP3    H167171   2.065   1.594   4.107 -0.6122  1.8708  0.6009
15252TIP3    H267172   1.971   1.475   4.108  2.3685 -0.6250  1.2200
15253TIP3   OH267173   6.641   5.957   1.314  0.5249  0.2290 -0.5855
15253TIP3    H167174   6.694   5.970   1.393  0.9226  1.0731 -0.9822
15253TIP3    H267175   6.686   5.888   1.266 -0.3348 -1.0968  0.4403
15254TIP3   OH267176   3.458   3.377   1.224 -0.2724 -0.4406  0.2364
15254TIP3    H167177   3.548   3.344   1.226  0.4063  1.2490 -0.6961
15254TIP3    H267178   3.416   3.327   1.154  0.1999 -0.6127  0.0721
15255TIP3   OH267179   0.184   3.658   1.552 -0.0103  0.0484  0.1174
15255TIP3    H167180   0.131   3.580   1.538  0.3261 -0.2061  0.2618
15255TIP3    H267181   0.184   3.671   1.647  2.7533 -1.7832  0.4903
15256TIP3   OH267182   3.812   3.869   3.087 -0.2389  0.3958  0.0091
15256TIP3    H167183   3.757   3.798   3.054 -0.2387 -0.4214  1.6447
15256TIP3    H267184   3.901   3.836   3.076 -0.1801  0.6878 -0.3987
15257TIP3   OH267185   3.696   1.213   0.689 -0.1619 -0.1122 -0.2066
15257TIP3    H167186   3.695   1.118   0.676 -0.2604 -0.3978  1.5896
15257TIP3    H267187   3.615   1.244   0.649 -0.5799 -0.9214 -0.0046
15258TIP3   OH267188   4.734   3.947  13.674 -0.2769 -0.2539  0.1996
15258TIP3    H167189   4.716   3.906  13.758 -0.3096 -0.7554 -0.0469
15258TIP3    H267190   4.784   4.026  13.695  0.7613 -1.0039  0.6142
15259TIP3   OH267191   0.307   1.914  16.640 -0.7082  1.0578  0.1776
15259TIP3    H167192   0.324   1.996  16.594 -1.5484  1.1815  0.0814
15259TIP3    H267193   0.216   1.920  16.668 -0.8991 -0.0053 -0.1744
15260TIP3   OH267194   2.553   5.497   0.021 -0.2675  0.0354 -0.2576
15260TIP3    H167195   2.521   5.587   0.027  1.6037  1.2258 -4.4692
15260TIP3    H267196   2.486   5.451  -0.030 -0.7848 -0.8151  1.1138
15261TIP3   OH267197   0.940   0.817  13.639 -0.0582  0.5557  0.7145
15261TIP3    H167198   0.846   0.823  13.623  0.0920 -0.8341 -1.1268
15261TIP3    H267199   0.968   0.906  13.657 -1.3517  1.4075 -1.2249
15262TIP3   OH267200   5.360   6.365  13.879  0.0248  0.3046 -0.2473
15262TIP3    H167201   5.426   6.297  13.891  1.3783  1.5350 -0.3547
15262TIP3    H267202   5.345   6.400  13.966 -0.9237 -0.3319 -0.1426
15263TIP3   OH267203   5.010   5.291  14.274 -0.2143  0.3222  0.4398
15263TIP3    H167204   4.934   5.272  14.219 -1.7722  1.4296  2.0818
15263TIP3    H267205   5.084   5.293  14.214 -1.5176 -0.5450 -1.2669
15264TIP3   OH267206   5.511   0.696   2.924 -0.1095  0.1748 -0.1054
15264TIP3    H167207   5.441   0.746   2.966 -0.3845 -0.3750  0.0969
15264TIP3    H267208   5.468   0.618   2.890  0.4373 -0.2531  0.1729
15265TIP3   OH267209   5.245   4.237   4.816  0.0689  0.3052  0.1384
15265TIP3    H167210   5.169   4.287   4.786  1.9288  2.6534 -0.9768
15265TIP3    H267211   5.218   4.146   4.808 -2.1797  1.0162 -1.5090
15266TIP3   OH267212   1.664   3.101  11.032  0.0034  0.0680  0.2265
15266TIP3    H167213   1.720   3.095  10.955  0.5649  0.9943  0.5455
15266TIP3    H267214   1.579   3.069  11.002  1.0612 -2.9397  0.1574
15267TIP3   OH267215   1.180   4.277   1.011  0.0123 -0.4384  0.3605
15267TIP3    H167216   1.167   4.249   1.102  2.5465 -0.8244  0.6654
15267TIP3    H267217   1.213   4.367   1.019  0.2277 -0.4673 -0.1858
15268TIP3   OH267218   1.951   0.288   2.107 -0.2372  0.0746  0.0587
15268TIP3    H167219   2.026   0.232   2.125  1.4734  1.9322 -0.9368
15268TIP3    H267220   1.903   0.291   2.190  1.8420  0.3421  1.3161
15269TIP3   OH267221   5.478   5.136   3.434 -0.7539  0.4575 -0.0801
15269TIP3    H167222   5.503   5.048   3.463 -0.8037  0.7549  0.9026
15269TIP3    H267223   5.561   5.184   3.426 -0.8695  1.3029  2.7160
15270TIP3   OH267224   4.824   2.131  15.635 -0.4373  0.0546  0.9026
15270TIP3    H167225   4.806   2.148  15.542 -0.1459  1.2177  1.0413
15270TIP3    H267226   4.747   2.166  15.681 -1.3881 -2.0608  1.0252
15271TIP3   OH267227   3.185   2.502   1.791  0.4975 -0.1103  0.4029
15271TIP3    H167228   3.233   2.585   1.782  2.0874 -0.7738  2.0075
15271TIP3    H267229   3.098   2.528   1.822  0.3214  1.0527 -0.9874
15272TIP3   OH267230   3.898   4.404  13.505  0.0056 -0.2078  0.1202
15272TIP3    H167231   3.925   4.423  13.595 -0.5710  0.4314  0.1657
15272TIP3    H267232   3.838   4.475  13.482 -0.6870 -0.9392 -0.4059
15273TIP3   OH267233   3.844   0.828  14.208 -0.1432 -0.1977  0.0511
15273TIP3    H167234   3.849   0.899  14.272 -1.5273  1.3484 -1.4605
15273TIP3    H267235   3.803   0.755  14.255 -0.6618  0.7159  1.0444
15274TIP3   OH267236   1.961   2.323   3.266  0.1706 -0.2234 -0.6428
15274TIP3    H167237   1.888   2.384   3.280 -0.8967 -1.5460 -0.1579
15274TIP3    H267238   1.953   2.297   3.174 -0.5322 -1.0117 -0.3775
15275TIP3   OH267239   2.454   5.533  12.071 -0.0870 -0.0380  0.0493
15275TIP3    H167240   2.395   5.462  12.097  0.2668 -1.0203 -1.7266
15275TIP3    H267241   2.497   5.502  11.992 -0.1701  2.2858 -0.9982
15276TIP3   OH267242   5.283   4.104  11.613  0.2032 -0.4652  0.4097
15276TIP3    H167243   5.361   4.081  11.664  1.4525 -0.6964 -1.5248
15276TIP3    H267244   5.251   4.020  11.581 -0.3622 -0.2848  0.4964
15277TIP3   OH267245   6.501   4.527   1.926 -0.4288  0.1666 -0.4093
15277TIP3    H167246   6.535   4.486   2.005  0.8835  1.2948 -0.3655
15277TIP3    H267247   6.438   4.464   1.892 -0.3630 -0.7233  1.0485
15278TIP3   OH267248   0.061   0.259  11.575  0.2107  0.0429 -0.3038
15278TIP3    H167249  -0.005   0.202  11.616 -0.6278  1.0165 -0.2388
15278TIP3    H267250   0.128   0.271  11.642 -0.3889  0.3748  0.2506
15279TIP3   OH267251   2.419   3.400  14.784 -0.0567  0.6657  0.0968
15279TIP3    H167252   2.474   3.413  14.706 -0.8401  1.1867 -0.3928
15279TIP3    H267253   2.460   3.455  14.851  1.0887 -0.4103  0.3094
15280TIP3   OH267254   3.320   5.249   0.628 -0.2441 -0.4639 -0.1158
15280TIP3    H167255   3.387   5.181   0.638 -0.5712 -0.5908  1.7218
15280TIP3    H267256   3.271   5.225   0.550 -0.2167 -2.2532  0.3806
15281TIP3   OH267257   0.152   3.537   4.679 -0.3371 -0.0947 -0.5477
15281TIP3    H167258   0.076   3.553   4.736 -0.3456 -1.1730 -0.2415
15281TIP3    H267259   0.154   3.442   4.667  2.6059 -0.4859  1.8304
15282TIP3   OH267260   3.049   0.036  13.824  0.3273  0.1879  0.1366
15282TIP3    H167261   3.129  -0.006  13.793 -0.0211 -1.1537  0.9556
15282TIP3    H267262   2.986   0.023  13.753  0.8445  1.4114 -0.5906
15283TIP3   OH267263   4.558   4.765   0.767 -0.1094  0.2241 -0.2053
15283TIP3    H167264   4.478   4.787   0.814  1.4347  0.4083  2.5910
15283TIP3    H267265   4.589   4.848   0.731 -0.2126  0.5114  0.3551
15284TIP3   OH267266   1.870   2.895   4.188  0.2318 -0.2749  0.0468
15284TIP3    H167267   1.900   2.805   4.195  1.7328  0.2117  0.2145
15284TIP3    H267268   1.926   2.935   4.121  1.2386  1.1539  1.6643
15285TIP3   OH267269   5.574   5.856  13.952 -0.1811 -0.9332  0.7596
15285TIP3    H167270   5.503   5.916  13.976  0.2179 -1.1933  2.7888
15285TIP3    H267271   5.636   5.861  14.025  2.1070 -0.4697 -1.0993
15286TIP3   OH267272   5.729   2.440  14.031  0.3729  0.3140  0.3987
15286TIP3    H167273   5.757   2.502  14.098 -1.7511  1.5513  0.2177
15286TIP3    H267274   5.699   2.364  14.081 -2.5298  1.7593  1.0828
15287TIP3   OH267275   0.847   1.822   2.380  0.0608  0.2587 -0.2306
15287TIP3    H167276   0.894   1.867   2.450  0.3611 -0.2265 -0.1153
15287TIP3    H267277   0.879   1.864   2.300 -0.2184  0.7551 -0.0880
15288TIP3   OH267278   5.749   2.961  13.242 -0.2627 -0.0753 -0.5373
15288TIP3    H167279   5.843   2.950  13.226 -0.1577 -0.1801  0.0971
15288TIP3    H267280   5.732   2.904  13.317 -1.0159 -0.7376 -1.2088
15289TIP3   OH267281   3.319   4.516  13.452 -0.5203  0.4619 -0.2725
15289TIP3    H167282   3.313   4.479  13.540 -0.7475 -0.7515 -0.7673
15289TIP3    H267283   3.411   4.539  13.442 -0.3263 -0.1793 -0.0160
15290TIP3   OH267284   6.500   2.834  11.449  0.3486 -0.1941  0.1469
15290TIP3    H167285   6.563   2.831  11.378  0.3008 -1.7347  0.1438
15290TIP3    H267286   6.467   2.744  11.457 -0.3381  0.1409  1.4894
15291TIP3   OH267287   6.038   0.668   5.354 -0.5010  0.3329  0.0571
15291TIP3    H167288   5.979   0.674   5.278  0.1904 -1.2758 -0.6468
15291TIP3    H267289   5.998   0.602   5.410  1.0048 -1.4527 -0.8509
15292TIP3   OH267290   3.449   2.890  14.320 -0.0537 -0.7200 -0.5846
15292TIP3    H167291   3.355   2.873  14.318  0.0485 -1.3738 -0.0637
15292TIP3    H267292   3.489   2.810  14.287  0.3201 -0.3852 -0.9549
15293TIP3   OH267293   6.748   5.560  13.086 -0.0607  0.3195  0.2059
15293TIP3    H167294   6.775   5.633  13.031 -1.3707 -0.8168 -2.1165
15293TIP3    H267295   6.661   5.585  13.117  0.2007  0.4609  0.8371
15294TIP3   OH267296   6.666   3.928  14.864 -0.4971  0.2711 -0.4689
15294TIP3    H167297   6.603   3.887  14.922 -0.0166  0.6968  0.3710
15294TIP3    H267298   6.668   3.872  14.787 -0.9197 -0.4654  0.0517
15295TIP3   OH267299   3.728   5.861  13.851 -0.5364  0.0536 -0.5336
15295TIP3    H167300   3.641   5.840  13.818 -0.2151  0.3092 -1.5802
15295TIP3    H267301   3.725   5.955  13.869 -0.3623  0.1361 -0.9335
15296TIP3   OH267302   2.306   3.042  15.011 -0.1524 -0.6360  0.0847
15296TIP3    H167303   2.211   3.048  15.003 -0.0664  0.0657 -0.4948
15296TIP3    H267304   2.321   2.967  15.069 -0.9818 -3.1236 -2.6838
15297TIP3   OH267305   0.760   2.746  13.919  0.2608 -0.1421 -0.5789
15297TIP3    H167306   0.772   2.841  13.919 -2.4632  0.2914 -1.0316
15297TIP3    H267307   0.806   2.716  13.998 -0.2704  1.7938  0.5347
15298TIP3   OH267308   3.188   0.865  16.585 -0.3811 -0.6448  0.3408
15298TIP3    H167309   3.276   0.838  16.610  1.1331  1.5127 -2.1664
15298TIP3    H267310   3.163   0.806  16.514  1.4166  1.7757 -2.5965
15299TIP3   OH267311   4.451   4.233   4.997 -0.4800  0.3608 -0.0010
15299TIP3    H167312   4.404   4.152   4.974 -0.9099  0.5942  0.0379
15299TIP3    H267313   4.416   4.298   4.935  0.3777  0.3591 -0.5011
15300TIP3   OH267314   0.403   3.249   2.757  0.0167  0.2683  0.6903
15300TIP3    H167315   0.450   3.186   2.812  0.4885  0.8456  0.9711
15300TIP3    H267316   0.322   3.268   2.804 -0.7526 -1.1005 -0.0303
15301TIP3   OH267317   1.570   2.716  12.928  0.1254  0.2159 -1.0585
15301TIP3    H167318   1.573   2.626  12.896  0.7872 -0.2349  0.1868
15301TIP3    H267319   1.573   2.707  13.024  0.2123  1.5628 -0.9180
15302TIP3   OH267320   5.219   5.374  14.105 -0.2087 -0.2444  0.0698
15302TIP3    H167321   5.258   5.297  14.062 -1.0215 -0.4309 -0.3590
15302TIP3    H267322   5.186   5.427  14.033 -2.1506 -0.8570  0.4574
15303TIP3   OH267323   1.786   3.350  16.086  0.2109 -0.0966 -0.4928
15303TIP3    H167324   1.725   3.297  16.035 -0.7425  1.9530 -1.6161
15303TIP3    H267325   1.814   3.419  16.026  1.7314  0.4375  0.7620
15304TIP3   OH267326   1.387   2.108   1.163 -0.1881 -0.1097 -0.4429
15304TIP3    H167327   1.341   2.065   1.235 -1.2540  0.7863 -0.5617
15304TIP3    H267328   1.362   2.200   1.170 -1.6352 -0.2249 -2.8862
15305TIP3   OH267329   4.539   6.670  16.469 -0.0087  0.0279 -0.0845
15305TIP3    H167330   4.600   6.599  16.452  2.1021  1.5458  0.6766
15305TIP3    H267331   4.523   6.667  16.564 -1.0632 -0.2757 -0.2535
15306TIP3   OH267332   5.937   6.761   2.212  0.2522  0.0013 -0.0659
15306TIP3    H167333   5.913   6.698   2.145 -3.1682  0.6268  0.3886
15306TIP3    H267334   6.014   6.806   2.177  0.9087 -2.3029 -1.7412
15307TIP3   OH267335   5.141   2.551  10.258  0.0175 -0.2309 -0.5283
15307TIP3    H167336   5.145   2.465  10.301 -0.5549  0.4330  0.9294
15307TIP3    H267337   5.174   2.612  10.325 -0.5843  0.8153 -1.1681
15308TIP3   OH267338   0.806   6.306   2.971  0.8560 -0.2620 -0.1664
15308TIP3    H167339   0.854   6.288   2.890  1.4822 -2.6487  0.6548
15308TIP3    H267340   0.724   6.258   2.962  0.7275 -0.1641  0.4297
15309TIP3   OH267341   1.590   3.571   0.141 -0.2316  0.1574  0.2157
15309TIP3    H167342   1.651   3.633   0.181  0.3670 -0.6475  0.5848
15309TIP3    H267343   1.517   3.567   0.202  0.8595 -1.3760  1.5243
15310TIP3   OH267344   4.652   1.990   1.210  0.4963 -0.1050  0.6188
15310TIP3    H167345   4.604   1.940   1.276  0.7892 -0.9307  0.2235
15310TIP3    H267346   4.584   2.035   1.159  0.2391  0.0640  1.1072
15311TIP3   OH267347   1.164   0.307  13.311 -0.1718  0.1035 -0.1782
15311TIP3    H167348   1.188   0.225  13.269 -0.4452  0.5098 -1.1714
15311TIP3    H267349   1.193   0.298  13.402 -0.5198 -1.2131 -0.1897
15312TIP3   OH267350   6.518   4.640  13.315 -0.0233  0.3369  0.7420
15312TIP3    H167351   6.561   4.556  13.304 -0.9953  0.0743 -1.4481
15312TIP3    H267352   6.590   4.703  13.326  0.7556 -0.5542  0.8038
15313TIP3   OH267353   0.386   5.516  13.391  0.7457 -0.4575 -0.0338
15313TIP3    H167354   0.298   5.544  13.367  0.8582  1.0607  1.2193
15313TIP3    H267355   0.390   5.424  13.362 -0.3701  0.1304 -2.3666
15314TIP3   OH267356   6.161   3.592   1.547  0.0756  0.4518 -0.1405
15314TIP3    H167357   6.208   3.511   1.567 -0.8657  0.0147  0.3314
15314TIP3    H267358   6.230   3.659   1.543  0.8078 -0.2897 -0.0822
15315TIP3   OH267359   2.046   6.313   5.207  0.0588 -0.1121 -0.5973
15315TIP3    H167360   1.974   6.352   5.256 -0.4349  2.1839 -2.9022
15315TIP3    H267361   2.003   6.263   5.137  0.6259  1.0396 -1.8189
15316TIP3   OH267362   3.102   0.795  15.698  0.0834 -0.1729 -0.4418
15316TIP3    H167363   3.076   0.881  15.664  0.0324 -0.5963 -1.4961
15316TIP3    H267364   3.029   0.767  15.752  0.0653  0.4060 -0.1560
15317TIP3   OH267365   1.021   2.355   3.873 -0.1869  0.0752  0.3624
15317TIP3    H167366   0.980   2.435   3.842 -2.8619 -0.3366  2.4394
15317TIP3    H267367   0.991   2.287   3.812  2.7854  0.5998 -1.9296
15318TIP3   OH267368   0.798   4.363  13.643 -0.1827 -0.2589 -0.5283
15318TIP3    H167369   0.847   4.432  13.688 -0.3736 -0.2403 -0.3424
15318TIP3    H267370   0.810   4.285  13.698 -0.4173 -0.2359 -0.4400
15319TIP3   OH267371   1.008   1.920  16.305 -0.1216 -0.1669 -0.3658
15319TIP3    H167372   1.044   1.998  16.263 -0.7012  0.0480 -0.4776
15319TIP3    H267373   1.022   1.933  16.399 -0.6928  0.3264 -0.3428
15320TIP3   OH267374   5.038   6.649   1.881 -0.1189 -0.0577  0.9317
15320TIP3    H167375   5.002   6.581   1.824  0.7160  1.1157 -1.0585
15320TIP3    H267376   5.010   6.731   1.842  2.5077  0.8404  0.7426
15321TIP3   OH267377   0.951   1.316  12.441  0.1123 -0.1465  0.4632
15321TIP3    H167378   0.946   1.412  12.437  0.9244 -0.1421 -0.9649
15321TIP3    H267379   0.876   1.291  12.496  0.2896  1.3298  1.4501
15322TIP3   OH267380   5.956   6.137  14.183  0.1072 -0.3926 -0.4999
15322TIP3    H167381   5.901   6.212  14.205  0.4686 -0.4821  0.7602
15322TIP3    H267382   5.894   6.067  14.161 -0.2348  0.2341 -1.6099
15323TIP3   OH267383   4.095   3.747   0.290  0.4923  0.2470  0.1292
15323TIP3    H167384   4.121   3.689   0.219 -0.4463  0.9382 -0.8121
15323TIP3    H267385   4.018   3.704   0.328 -0.3100  0.9223 -0.6814
15324TIP3   OH267386   5.987   6.204  11.730 -0.5478  0.2826 -0.1554
15324TIP3    H167387   5.970   6.123  11.777  1.4908 -0.4615 -0.6151
15324TIP3    H267388   5.989   6.179  11.638 -0.0938  0.8786 -0.3192
15325TIP3   OH267389   5.421   1.707  12.482 -0.3502  0.0373  0.2687
15325TIP3    H167390   5.367   1.630  12.497  0.8806 -0.9230 -0.0461
15325TIP3    H267391   5.388   1.772  12.545  0.8189 -1.9071  3.0907
15326TIP3   OH267392   6.452   3.194   3.084  0.2677  0.0082 -0.5865
15326TIP3    H167393   6.385   3.229   3.144 -0.4004 -2.1872  0.0313
15326TIP3    H267394   6.475   3.109   3.121  1.4760 -0.4401 -2.2725
15327TIP3   OH267395   0.973   0.698   5.420  0.7361 -0.2803 -0.0505
15327TIP3    H167396   0.956   0.775   5.366  2.2516  1.7453  2.1796
15327TIP3    H267397   0.965   0.624   5.359 -2.2060  1.4262 -1.9708
15328TIP3   OH267398   4.499   1.363   4.707  0.1286 -0.4140  0.5657
15328TIP3    H167399   4.549   1.366   4.625 -0.9449 -2.5595 -0.2315
15328TIP3    H267400   4.429   1.428   4.695  1.0982  0.6675  0.6075
15329TIP3   OH267401   6.412   5.979   4.840 -0.2417  0.1275  0.0529
15329TIP3    H167402   6.400   5.886   4.858 -1.0167  0.3830  0.9062
15329TIP3    H267403   6.502   5.998   4.869  1.0700 -0.9595 -2.8720
15330TIP3   OH267404   4.783   0.457   4.295 -0.1422  0.7860  0.1701
15330TIP3    H167405   4.817   0.483   4.209 -0.8869  1.6849  0.1397
15330TIP3    H267406   4.826   0.516   4.357  1.9563 -1.1439  0.6979
15331TIP3   OH267407   0.833   6.525  10.889  0.7965  0.4404 -0.2049
15331TIP3    H167408   0.900   6.499  10.825 -1.7703 -2.5329 -2.0059
15331TIP3    H267409   0.758   6.549  10.835 -0.8633 -0.2767  1.6846
15332TIP3   OH267410   4.775   1.151  15.859 -0.2912  0.5180  0.1751
15332TIP3    H167411   4.715   1.179  15.928 -0.3726  0.1517  0.2545
15332TIP3    H267412   4.838   1.222  15.852 -1.1917  1.2680 -0.4583
15333TIP3   OH267413   0.001   3.300  15.817 -0.0735 -0.2576 -0.2589
15333TIP3    H167414   0.014   3.394  15.806  0.9759 -0.1475  1.5882
15333TIP3    H267415   0.032   3.281  15.905  0.0370 -2.4028 -0.6962
15334TIP3   OH267416   2.319   0.720   6.498 -0.2180 -0.4288 -0.4018
15334TIP3    H167417   2.256   0.665   6.452 -1.7085 -0.6382  1.7157
15334TIP3    H267418   2.330   0.797   6.442 -2.1248 -0.5465 -1.0073
15335TIP3   OH267419   6.620   4.909   3.867  0.4672 -0.3242 -0.8121
15335TIP3    H167420   6.633   4.989   3.815  3.3222  0.5730  1.0285
15335TIP3    H267421   6.687   4.849   3.834 -1.1651 -1.7900 -1.6548
15336TIP3   OH267422   0.643   3.843  11.994 -0.1814  0.1486  0.1412
15336TIP3    H167423   0.718   3.891  12.029 -1.8280  0.5880  3.4006
15336TIP3    H267424   0.576   3.911  11.981 -1.5851 -0.7776  2.0577
15337TIP3   OH267425   3.209   0.127   3.767  0.3959 -0.2533 -0.3480
15337TIP3    H167426   3.187   0.060   3.832 -0.4256 -0.9785 -1.3431
15337TIP3    H267427   3.300   0.149   3.786  0.5559 -1.3542  0.2681
15338TIP3   OH267428   0.691   4.192  14.913 -0.3646  0.2376  0.3061
15338TIP3    H167429   0.780   4.191  14.879 -0.6120  0.7413 -0.3780
15338TIP3    H267430   0.694   4.253  14.987 -0.2068  0.5143  0.0760
15339TIP3   OH267431   4.518   0.560   4.722 -0.0619 -0.0424  0.4680
15339TIP3    H167432   4.491   0.469   4.707 -2.6056  1.0612 -2.7475
15339TIP3    H267433   4.471   0.586   4.801 -0.4796 -1.0603  0.5757
15340TIP3   OH267434   5.736   0.280  15.313  0.6440  0.2218  0.5144
15340TIP3    H167435   5.660   0.336  15.298  0.5795  0.3955  1.4410
15340TIP3    H267436   5.790   0.329  15.375  1.1044 -0.2686  0.5052
15341TIP3   OH267437   5.230   4.066  14.122  0.1330 -0.1907 -0.5441
15341TIP3    H167438   5.317   4.098  14.098  0.7064 -1.5259 -0.3091
15341TIP3    H267439   5.194   4.030  14.041 -0.3699  0.6942 -0.7267
15342TIP3   OH267440   4.894   6.504   5.084 -0.6088  0.0660 -0.1262
15342TIP3    H167441   4.834   6.437   5.050 -0.6167 -1.2308  2.2713
15342TIP3    H267442   4.839   6.561   5.138  0.2551 -1.3441  2.3920
15343TIP3   OH267443   3.350   3.723   6.819  0.4563  0.0143  0.0326
15343TIP3    H167444   3.439   3.721   6.783  0.4077 -0.1655 -0.0781
15343TIP3    H267445   3.338   3.813   6.848  0.4135  0.2169 -0.6053
15344TIP3   OH267446   2.044   0.506  15.929 -1.1613 -0.1005  0.4498
15344TIP3    H167447   2.011   0.470  15.846  0.7830 -1.1115  0.0573
15344TIP3    H267448   2.048   0.431  15.988  0.7643 -0.1346  0.3393
15345TIP3   OH267449   4.322   2.760  12.684  0.4265  0.1723 -0.2139
15345TIP3    H167450   4.301   2.668  12.670  0.8090  0.2853 -1.7284
15345TIP3    H267451   4.246   2.808  12.651 -0.4490  0.4258  1.9461
15346TIP3   OH267452   1.818   6.273   3.767  0.2252  0.6301 -0.3905
15346TIP3    H167453   1.763   6.288   3.690  1.1720 -2.4081 -1.8458
15346TIP3    H267454   1.769   6.311   3.840 -2.3596  0.6687 -2.0204
15347TIP3   OH267455   2.751   0.466   0.866 -0.0546  0.4635  0.4331
15347TIP3    H167456   2.733   0.472   0.960  0.2081  1.1049  0.4458
15347TIP3    H267457   2.673   0.503   0.824 -0.3757 -0.2621  0.3817
15348TIP3   OH267458   6.479   6.137   0.881 -0.0896 -0.8774  0.3993
15348TIP3    H167459   6.420   6.195   0.928  0.5171 -0.9051  1.2220
15348TIP3    H267460   6.566   6.174   0.895  0.0059 -0.2125 -1.7231
15349TIP3   OH267461   3.852   6.043   3.468 -0.3948  0.2321  0.9515
15349TIP3    H167462   3.897   6.031   3.384  1.1564  0.0243  1.7618
15349TIP3    H267463   3.760   6.057   3.445  0.1029  0.8686 -0.8135
15350TIP3   OH267464   1.015   4.571  14.897  0.3587  0.2488 -0.0125
15350TIP3    H167465   1.041   4.495  14.948  3.3370  1.5787  0.7257
15350TIP3    H267466   1.021   4.543  14.806  4.9402  0.2844  0.0344
15351TIP3   OH267467   6.177   2.201  15.971  0.3632 -0.0488  0.4715
15351TIP3    H167468   6.174   2.194  16.066  0.9861 -1.8626  0.3902
15351TIP3    H267469   6.255   2.152  15.945  0.7825  1.2676 -0.9296
15352TIP3   OH267470   0.174   4.401  14.053  0.7952 -0.1049 -0.0465
15352TIP3    H167471   0.226   4.482  14.060  1.1572 -0.3728  0.4033
15352TIP3    H267472   0.180   4.361  14.139  2.4827 -1.7373 -0.8519
15353TIP3   OH267473   4.316   1.280  11.331  0.3779 -0.1526 -0.0024
15353TIP3    H167474   4.379   1.331  11.382 -0.0417 -1.0795  1.5170
15353TIP3    H267475   4.367   1.247  11.257  0.9654  1.3840 -0.3171
15354TIP3   OH267476   1.641   4.022   5.895  0.0769 -0.1345 -0.0734
15354TIP3    H167477   1.549   4.016   5.867  0.0425  0.9145 -0.2462
15354TIP3    H267478   1.635   4.045   5.988  0.0820  2.6824 -0.6745
15355TIP3   OH267479   0.637   4.317  16.985 -0.0205 -0.4384  0.2367
15355TIP3    H167480   0.696   4.392  16.973 -0.1908 -0.5981 -2.0056
15355TIP3    H267481   0.557   4.342  16.941 -0.2852 -1.7206 -0.0486
15356TIP3   OH267482   0.664   0.891  13.082  0.0854  0.2758  0.7365
15356TIP3    H167483   0.641   0.805  13.047 -0.9951  0.7825  0.1674
15356TIP3    H267484   0.717   0.871  13.159  1.3095 -0.8756 -0.3512
15357TIP3   OH267485   1.641   1.616  12.387  0.2285 -0.0221 -0.1587
15357TIP3    H167486   1.573   1.672  12.349  0.8273  0.3346 -0.7256
15357TIP3    H267487   1.645   1.540  12.328 -2.0069 -1.7580  1.6867
15358TIP3   OH267488   5.881   2.469  17.083 -0.2256 -0.0353  0.2994
15358TIP3    H167489   5.831   2.464  17.002 -0.8746 -0.2906  0.7067
15358TIP3    H267490   5.937   2.546  17.073 -0.7523  0.2931 -0.1339
15359TIP3   OH267491   4.219   2.936   3.874 -0.6525  0.0541 -1.2427
15359TIP3    H167492   4.162   2.985   3.933  0.0215  0.8450 -1.2319
15359TIP3    H267493   4.305   2.975   3.886  0.6032 -3.0087  0.9394
15360TIP3   OH267494   6.170   1.417   3.172  0.1167 -0.5661 -0.4447
15360TIP3    H167495   6.090   1.470   3.173 -0.9946 -2.0623  1.8193
15360TIP3    H267496   6.170   1.374   3.087 -0.7048  0.5428 -1.0283
15361TIP3   OH267497   5.340   3.159  10.330  0.2459 -0.1121  0.2996
15361TIP3    H167498   5.264   3.107  10.306  1.6291 -1.4456 -1.4959
15361TIP3    H267499   5.306   3.226  10.389 -2.4402 -0.1136 -1.1122
15362TIP3   OH267500   0.895   1.720  14.102 -0.0197 -0.1473 -0.5364
15362TIP3    H167501   0.862   1.642  14.147 -0.7633  0.7316  0.4909
15362TIP3    H267502   0.843   1.726  14.023 -0.2372 -0.4680 -0.4198
15363TIP3   OH267503   0.333   1.508   4.949 -0.4423 -0.5559 -0.1310
15363TIP3    H167504   0.246   1.513   4.910 -1.8959  0.2414  2.8655
15363TIP3    H267505   0.338   1.420   4.987 -0.0135 -0.5216 -0.0967
15364TIP3   OH267506   3.679   3.734  12.767  0.6437 -0.0226 -0.2546
15364TIP3    H167507   3.654   3.822  12.794 -0.0879 -0.5637  0.9462
15364TIP3    H267508   3.705   3.743  12.676 -0.7972  1.2011 -0.5938
15365TIP3   OH267509   3.915   3.585   6.358 -0.1256  0.8316  0.4413
15365TIP3    H167510   3.869   3.668   6.346 -0.0154  0.7970 -0.2196
15365TIP3    H267511   3.938   3.584   6.451 -0.9138  1.1320  0.6437
15366TIP3   OH267512   5.414   3.115   4.277 -0.0261  0.8269 -0.1326
15366TIP3    H167513   5.494   3.154   4.241  0.3457 -1.4661 -1.9711
15366TIP3    H267514   5.382   3.057   4.208 -0.4020 -2.3180  2.4529
15367TIP3   OH267515   5.576   2.002   0.678 -0.0295 -0.3413  0.2084
15367TIP3    H167516   5.544   1.942   0.745 -0.0553  0.5506  1.0121
15367TIP3    H267517   5.671   2.001   0.689 -0.1183  0.9028  1.2401
15368TIP3   OH267518   0.073   1.118   1.827 -0.8893  0.2038  0.6322
15368TIP3    H167519   0.054   1.060   1.753 -1.0824  0.5363  0.4199
15368TIP3    H267520   0.103   1.059   1.897  0.9721  0.0238 -0.2488
15369TIP3   OH267521   3.923   1.351   4.288  0.1347 -0.0060  0.9738
15369TIP3    H167522   3.969   1.269   4.273 -0.3896 -0.3990  1.4772
15369TIP3    H267523   3.899   1.382   4.201 -1.4003 -1.4045  0.8424
15370TIP3   OH267524   6.399   2.770  17.120  0.3422 -0.4033 -0.0882
15370TIP3    H167525   6.459   2.800  17.051  1.2329 -0.0247  0.8359
15370TIP3    H267526   6.331   2.722  17.072  0.8600 -0.0292 -1.2505
15371TIP3   OH267527   3.003   0.401  12.563  0.5582 -0.6059  0.1537
15371TIP3    H167528   2.986   0.475  12.504  0.0372 -0.6080  0.3027
15371TIP3    H267529   3.098   0.389  12.558  0.7804  0.6714  0.8257
15372TIP3   OH267530   3.950   3.781   4.986 -0.0247  0.4919  0.4201
15372TIP3    H167531   3.937   3.785   5.081  0.6570 -1.6855  0.6507
15372TIP3    H267532   4.039   3.812   4.972 -0.3210  1.3815  0.3871
15373TIP3   OH267533   2.754   6.765   4.993  0.0323 -0.3540  0.1967
15373TIP3    H167534   2.772   6.778   4.900  0.2392 -0.2238  0.2521
15373TIP3    H267535   2.841   6.752   5.032  0.1165  1.2047  0.6173
15374TIP3   OH267536   3.048   4.732  13.694  0.2794 -0.6390  0.3979
15374TIP3    H167537   3.015   4.646  13.719 -0.2257 -0.4580  0.3735
15374TIP3    H267538   3.041   4.784  13.774  1.8104 -0.9697  0.7664
15375TIP3   OH267539   2.553   6.296   4.226 -0.7482 -0.3486 -0.0353
15375TIP3    H167540   2.520   6.378   4.190  1.2435  0.8652  0.6963
15375TIP3    H267541   2.503   6.228   4.181 -0.9494  1.1792 -2.3137
15376TIP3   OH267542   1.886   4.668  13.202 -0.3265 -0.3919  0.2784
15376TIP3    H167543   1.921   4.756  13.217 -0.6170 -0.0607 -0.9101
15376TIP3    H267544   1.803   4.667  13.251 -0.6550  0.2461 -0.2447
15377TIP3   OH267545   4.050   2.703   0.533 -0.4888  0.1616 -0.1161
15377TIP3    H167546   4.014   2.787   0.564 -0.5172 -0.5301  1.8340
15377TIP3    H267547   3.988   2.674   0.466 -1.0744  1.1842 -0.0387
15378TIP3   OH267548   0.637   2.230   5.247  0.4844 -0.2103  0.0767
15378TIP3    H167549   0.611   2.291   5.179  3.3432  0.9701 -0.0709
15378TIP3    H267550   0.586   2.256   5.323 -1.6016 -0.5541 -1.1226
15379TIP3   OH267551   3.216   1.016  15.359  0.1545  0.3030  0.5161
15379TIP3    H167552   3.240   1.092  15.305 -1.5655  0.5605  0.0595
15379TIP3    H267553   3.223   1.047  15.449  2.2416  0.1180  0.4720
15380TIP3   OH267554   3.409   5.352   1.393 -0.2197 -0.3393  0.1265
15380TIP3    H167555   3.481   5.294   1.417  0.9030  1.0955  0.3404
15380TIP3    H267556   3.418   5.364   1.298  0.5994  0.7918  0.3232
15381TIP3   OH267557   0.718   3.926   0.841  0.7591 -0.5659 -1.1229
15381TIP3    H167558   0.654   3.855   0.834  0.6958 -0.5270 -0.9504
15381TIP3    H267559   0.666   4.006   0.839  0.1802 -0.4943  3.6845
15382TIP3   OH267560   1.100   5.848   3.293  0.0414  0.0881  0.4317
15382TIP3    H167561   1.031   5.911   3.313  0.5689  0.3865  1.3552
15382TIP3    H267562   1.140   5.828   3.378  1.2317  0.0933 -0.1133
15383TIP3   OH267563   3.116   0.710  13.771  0.0693 -0.8480  0.1956
15383TIP3    H167564   3.067   0.776  13.722 -0.5571 -0.6093  1.1021
15383TIP3    H267565   3.175   0.761  13.827 -1.9513 -0.8634  2.5398
15384TIP3   OH267566   1.040   1.254   0.499  0.2019 -0.3952  0.0783
15384TIP3    H167567   1.099   1.184   0.470  1.0583  1.1105 -2.1191
15384TIP3    H267568   0.953   1.222   0.478  0.1660 -2.4380  2.8788
15385TIP3   OH267569   4.752   2.476   1.513  0.2479 -0.0292 -0.1843
15385TIP3    H167570   4.744   2.383   1.535  0.9065 -0.3415 -1.2341
15385TIP3    H267571   4.705   2.485   1.430  0.5396  0.5036 -0.2942
15386TIP3   OH267572   2.462   4.539   4.326  0.5657 -0.0190 -0.3306
15386TIP3    H167573   2.486   4.494   4.406  0.3548 -0.4600 -0.5126
15386TIP3    H267574   2.372   4.568   4.339  0.8428  0.7418 -0.0440
15387TIP3   OH267575   2.111   2.728   0.399  0.0208  0.3128  0.0677
15387TIP3    H167576   2.090   2.672   0.474  1.0828  0.5468  0.5679
15387TIP3    H267577   2.192   2.690   0.363 -0.5588  0.1184 -1.0565
15388TIP3   OH267578   6.283   5.650  16.333  0.5699  0.5740 -0.3684
15388TIP3    H167579   6.339   5.579  16.300 -0.9119 -0.6874 -0.2860
15388TIP3    H267580   6.284   5.715  16.262 -1.0907 -1.2665 -2.2126
15389TIP3   OH267581   0.434   0.544   1.791 -0.3735 -0.1780  0.4487
15389TIP3    H167582   0.524   0.576   1.790 -0.3288 -0.3129 -0.0642
15389TIP3    H267583   0.440   0.452   1.765 -0.7694  0.1217 -0.7483
15390TIP3   OH267584   4.563   6.609  15.784  0.2954  0.2716 -0.2510
15390TIP3    H167585   4.483   6.558  15.772 -0.6153  1.4831  0.4816
15390TIP3    H267586   4.617   6.555  15.842 -0.9495  0.3891  1.0868
15391TIP3   OH267587   1.230   4.201  11.021 -0.0301  0.1643  0.9410
15391TIP3    H167588   1.305   4.240  11.066 -0.6118  2.0126  0.3809
15391TIP3    H267589   1.158   4.261  11.038 -0.7194 -0.1130 -0.8546
15392TIP3   OH267590   5.228   0.791  15.435 -0.0593  0.8484 -0.1178
15392TIP3    H167591   5.151   0.841  15.463  0.0632  0.5026  0.8981
15392TIP3    H267592   5.214   0.703  15.471  0.7656  0.7580  0.0049
15393TIP3   OH267593   5.289   2.864   5.462  0.2601  0.3388 -0.1359
15393TIP3    H167594   5.367   2.814   5.489  0.4588  1.2848  1.1530
15393TIP3    H267595   5.324   2.938   5.414  0.1949  0.9341  0.7144
15394TIP3   OH267596   4.630   3.668   4.826 -0.0712  0.0535  0.2523
15394TIP3    H167597   4.723   3.647   4.831  0.0176  0.3272 -0.1923
15394TIP3    H267598   4.586   3.583   4.835  0.1617  0.0887  1.9440
15395TIP3   OH267599   3.203   0.481   4.291  0.5396  0.0380  0.3066
15395TIP3    H167600   3.186   0.569   4.324  0.0949  0.8966 -2.0344
15395TIP3    H267601   3.295   0.465   4.312  1.1107  1.7711 -0.6911
15396TIP3   OH267602   2.200   6.222  14.178  0.2035 -0.5654 -0.3162
15396TIP3    H167603   2.153   6.302  14.153 -0.5512 -1.1154 -0.7028
15396TIP3    H267604   2.204   6.171  14.097  2.0455 -0.2681 -0.4497
15397TIP3   OH267605   0.231   4.984   0.660  0.0213 -0.1060  0.4086
15397TIP3    H167606   0.160   5.014   0.603  0.7514  3.4033  1.1518
15397TIP3    H267607   0.186   4.946   0.735 -0.9743 -1.1549 -0.6664
15398TIP3   OH267608   4.433   3.717   6.116  0.1351 -0.1177  0.5603
15398TIP3    H167609   4.349   3.712   6.070 -0.1578  0.1190  1.0611
15398TIP3    H267610   4.410   3.737   6.207  0.7366 -0.0062  0.6946
15399TIP3   OH267611   1.804   0.685  13.083  0.3112  0.3501 -0.7616
15399TIP3    H167612   1.789   0.663  13.174 -1.0064  0.6746 -0.8905
15399TIP3    H267613   1.826   0.602  13.041 -0.8638 -0.0962 -0.5043
15400TIP3   OH267614   5.782   5.993  15.469  0.5753 -0.3642  0.3143
15400TIP3    H167615   5.703   5.940  15.451  1.0058 -0.9651  0.1501
15400TIP3    H267616   5.768   6.073  15.419 -0.9578  0.5135  2.0404
15401TIP3   OH267617   6.557   1.302  14.926 -0.0615 -0.0159  0.4382
15401TIP3    H167618   6.609   1.301  15.007 -2.3658  0.5559  2.0309
15401TIP3    H267619   6.469   1.279  14.955 -1.2122  1.3960 -1.7345
15402TIP3   OH267620   3.097   3.400   2.104  0.0531  0.1693 -0.2097
15402TIP3    H167621   3.129   3.486   2.131  0.5126 -0.5510  1.7343
15402TIP3    H267622   3.006   3.414   2.079  0.5392  1.4500 -1.3853
15403TIP3   OH267623   3.122   2.831  13.211  0.2363  0.1691  0.4946
15403TIP3    H167624   3.198   2.774  13.198 -0.6468 -0.9196 -0.1782
15403TIP3    H267625   3.062   2.779  13.265  0.7554  1.7819  2.7348
15404TIP3   OH267626   5.088   2.987   2.363  0.0183 -0.0781 -0.0189
15404TIP3    H167627   5.133   3.046   2.424 -1.2619  1.8886 -0.8836
15404TIP3    H267628   4.998   2.984   2.396  0.2195 -2.2143  0.4428
15405TIP3   OH267629   0.062   3.971  11.208 -0.0628  0.2169 -0.0713
15405TIP3    H167630   0.086   3.925  11.128  0.7215  1.1720 -0.4146
15405TIP3    H267631   0.003   3.912  11.254 -1.5635  0.1712 -1.9620
15406TIP3   OH267632   3.474   4.030   0.833  0.1858 -0.1411  0.5093
15406TIP3    H167633   3.510   3.965   0.893 -1.3560  0.1799  1.8609
15406TIP3    H267634   3.512   4.113   0.861  0.9308 -0.2208 -0.2106
15407TIP3   OH267635   4.297   0.779   4.366  0.1898 -0.2161 -0.1749
15407TIP3    H167636   4.390   0.790   4.343 -0.0709  0.3849 -1.0033
15407TIP3    H267637   4.298   0.763   4.460  1.1361 -0.1867 -0.1645
15408TIP3   OH267638   6.558   6.581  11.770  0.7145 -0.1671 -0.3865
15408TIP3    H167639   6.530   6.547  11.685 -0.0443 -1.1408  0.2316
15408TIP3    H267640   6.487   6.638  11.798  0.5190 -0.6017  0.0174
15409TIP3   OH267641   5.901   4.071  13.249  0.3216  0.9242  0.3798
15409TIP3    H167642   5.821   4.019  13.250  1.3213 -0.7137 -0.8096
15409TIP3    H267643   5.946   4.049  13.331  0.4868  0.3190  0.1271
15410TIP3   OH267644   2.011   2.925  10.381  0.6149 -0.3445 -0.0905
15410TIP3    H167645   1.955   2.869  10.327 -0.5085  0.0445  0.6524
15410TIP3    H267646   2.049   2.865  10.446 -2.0210 -0.0490  1.8810
15411TIP3   OH267647   3.584   3.091  12.768 -0.1749 -0.6900 -0.0419
15411TIP3    H167648   3.659   3.100  12.827 -0.1891  0.1739 -0.1493
15411TIP3    H267649   3.577   3.175  12.724 -1.9315 -0.3281  0.8138
15412TIP3   OH267650   1.699   4.474   2.955  0.4587 -0.2912 -0.1021
15412TIP3    H167651   1.633   4.458   2.888  1.0428 -0.8288 -0.5622
15412TIP3    H267652   1.720   4.567   2.946 -1.0747  0.1731  0.8383
15413TIP3   OH267653   1.280   2.240   5.570  0.8982  0.9594  0.1070
15413TIP3    H167654   1.368   2.266   5.542  1.2307 -0.9710 -0.8199
15413TIP3    H267655   1.294   2.159   5.619 -0.3472  0.7239  0.0946
15414TIP3   OH267656   5.018   5.529   5.215  0.0081 -0.0067  0.1223
15414TIP3    H167657   5.001   5.585   5.291 -1.3486 -0.2680  0.0454
15414TIP3    H267658   5.112   5.534   5.201  0.4872 -0.9175  2.5967
15415TIP3   OH267659   6.753   0.558   2.177  0.2646 -0.0114 -0.2820
15415TIP3    H167660   6.710   0.634   2.216 -0.7477 -0.3113 -0.7649
15415TIP3    H267661   6.820   0.596   2.119  1.4856  0.4413  1.3430
15416TIP3   OH267662   4.104   6.266   1.294  0.1191 -0.3428 -0.5747
15416TIP3    H167663   4.070   6.198   1.351 -0.6509  0.2153 -0.3519
15416TIP3    H267664   4.063   6.347   1.325  0.2552  0.0814 -1.4558
15417TIP3   OH267665   2.853   4.519  11.950  0.0123  0.6661 -0.4860
15417TIP3    H167666   2.797   4.450  11.985 -1.3686  1.2991 -1.3622
15417TIP3    H267667   2.889   4.562  12.028 -1.2985  0.6932  0.1407
15418TIP3   OH267668   1.261   4.825  12.454 -0.6530 -0.0121  0.3818
15418TIP3    H167669   1.222   4.904  12.492 -0.1860 -0.8861  2.8538
15418TIP3    H267670   1.196   4.757  12.471 -0.0279 -0.6083  0.3808
15419TIP3   OH267671   0.922   2.500   5.333 -0.0685 -0.0937  0.5327
15419TIP3    H167672   0.837   2.477   5.369  0.7309 -0.5908  2.2040
15419TIP3    H267673   0.961   2.417   5.306  0.4538 -0.0459  1.1161
15420TIP3   OH267674   2.644   6.518   4.448 -0.7396 -0.1738 -0.5856
15420TIP3    H167675   2.644   6.460   4.372  1.3733 -0.7988 -0.1853
15420TIP3    H267676   2.735   6.546   4.457 -1.0627  0.4362  1.3001
15421TIP3   OH267677   0.901   1.279  14.605 -0.2363  0.0598 -0.3703
15421TIP3    H167678   0.853   1.329  14.671  1.2852  3.2559 -1.4688
15421TIP3    H267679   0.978   1.247  14.651 -0.9637 -0.9078  0.2186
15422TIP3   OH267680   6.372   5.677   5.301  0.2047 -0.3234 -0.3341
15422TIP3    H167681   6.381   5.698   5.208  0.8841 -0.9495 -0.4237
15422TIP3    H267682   6.459   5.695   5.337 -0.0700 -0.0399  0.1913
15423TIP3   OH267683   0.161   4.934  14.980 -0.4264  0.5800  0.8520
15423TIP3    H167684   0.159   4.852  15.029  1.2554  0.7701  1.2956
15423TIP3    H267685   0.252   4.964  14.986 -0.4229  1.2307 -1.3624
15424TIP3   OH267686   1.227   0.136   2.381  0.0845  0.4420 -0.3021
15424TIP3    H167687   1.140   0.146   2.344  0.0210 -0.2722 -0.3577
15424TIP3    H267688   1.216   0.154   2.474 -0.4180 -1.0255 -0.0434
15425TIP3   OH267689   3.762   3.370   0.830  0.0374  0.0498  0.1179
15425TIP3    H167690   3.672   3.345   0.850 -0.2486  0.2200 -0.9270
15425TIP3    H267691   3.754   3.435   0.761  0.9815 -0.2219 -0.2598
15426TIP3   OH267692   0.479   0.348   5.895  0.3495  0.4651 -0.3412
15426TIP3    H167693   0.557   0.296   5.873  1.1847  1.7590 -0.5660
15426TIP3    H267694   0.488   0.365   5.989 -0.3307 -0.4412 -0.1079
15427TIP3   OH267695   0.946   1.008  11.571  0.1113  0.0657  0.0472
15427TIP3    H167696   0.891   1.086  11.584  1.3896  1.0309 -0.0659
15427TIP3    H267697   1.031   1.033  11.607  1.1027 -0.5706 -1.6955
15428TIP3   OH267698   4.501   2.795   1.129 -0.2897 -0.1372 -0.2181
15428TIP3    H167699   4.491   2.749   1.046 -0.3276 -0.0100 -0.2849
15428TIP3    H267700   4.501   2.888   1.105 -0.5385 -0.0927 -0.0511
15429TIP3   OH267701   5.418   0.070   1.519 -0.0114  0.0552  0.3813
15429TIP3    H167702   5.346   0.008   1.530  1.3576 -1.3788  1.6827
15429TIP3    H267703   5.447   0.090   1.608  1.2051  0.6084 -0.1074
15430TIP3   OH267704   3.787   5.414  16.435  0.2132  0.3390 -0.6478
15430TIP3    H167705   3.836   5.355  16.493 -1.6997 -0.1314  0.5798
15430TIP3    H267706   3.761   5.359  16.361 -0.0771  0.0840 -0.3603
15431TIP3   OH267707   6.609   3.749  12.147  0.3658 -0.1662 -0.2518
15431TIP3    H167708   6.578   3.659  12.158 -0.0540  0.0650  0.5526
15431TIP3    H267709   6.610   3.763  12.052 -1.3319 -0.4069 -0.3300
15432TIP3   OH267710   4.220   2.824   0.845  0.4715 -0.1508  0.1765
15432TIP3    H167711   4.167   2.885   0.895  3.6744  1.8908  1.4145
15432TIP3    H267712   4.213   2.854   0.754 -1.0184 -0.4104  0.1859
15433TIP3   OH267713   3.674   1.221  14.082  0.0579 -0.4579 -0.1587
15433TIP3    H167714   3.644   1.307  14.113  0.7567 -0.4200  0.4190
15433TIP3    H267715   3.640   1.216  13.992  0.2919  0.5650 -0.3214
15434TIP3   OH267716   1.372   4.131  16.779 -0.4674  0.2346  0.5645
15434TIP3    H167717   1.280   4.145  16.757 -0.6542 -1.8944 -0.1696
15434TIP3    H267718   1.377   4.039  16.804  1.7630 -0.1470 -1.0503
15435TIP3   OH267719   2.177   3.542  12.268 -0.5505 -0.1896 -0.0759
15435TIP3    H167720   2.202   3.595  12.344  1.8197 -0.5022 -0.5573
15435TIP3    H267721   2.097   3.497  12.295 -1.3399  1.8383  1.1859
15436TIP3   OH267722   3.167   4.896   3.915 -0.5636 -0.0694  0.1180
15436TIP3    H167723   3.105   4.848   3.970  0.0920 -1.2778 -0.1764
15436TIP3    H267724   3.235   4.833   3.895 -0.8849  0.2605 -2.2575
15437TIP3   OH267725   2.648   1.889   0.037 -0.2272  0.1282  0.2265
15437TIP3    H167726   2.627   1.802   0.005 -1.4274  0.5329 -0.1548
15437TIP3    H267727   2.634   1.884   0.132  2.3491 -0.7943  0.6313
15438TIP3   OH267728   3.056   1.421  16.789 -0.3404 -0.6701 -0.2564
15438TIP3    H167729   3.060   1.516  16.792 -1.1352 -0.6470  0.3593
15438TIP3    H267730   3.132   1.395  16.736  0.9844  0.2188  1.1381
15439TIP3   OH267731   0.772   0.060   6.073 -0.3855 -0.9415  0.2635
15439TIP3    H167732   0.777  -0.036   6.073 -0.3122 -0.9439  0.9472
15439TIP3    H267733   0.830   0.086   6.145  1.6072 -0.2571 -1.4887
15440TIP3   OH267734   3.579   2.940  12.058 -0.5909  0.6143 -0.3540
15440TIP3    H167735   3.657   2.979  12.095 -1.6394  1.9687  0.5224
15440TIP3    H267736   3.537   2.896  12.132 -0.6035 -0.2278 -0.8445
15441TIP3   OH267737   1.717   2.614   0.405 -0.1506  0.6995  0.0637
15441TIP3    H167738   1.788   2.555   0.431 -1.2572 -1.7928 -2.1799
15441TIP3    H267739   1.648   2.556   0.373 -1.6755  3.2118 -1.4788
15442TIP3   OH267740   0.987   2.482  14.326  0.0905  0.4398 -0.2555
15442TIP3    H167741   0.939   2.533  14.391  0.8296 -1.5881  2.0280
15442TIP3    H267742   1.075   2.476  14.362  0.4551 -0.9454 -1.3322
15443TIP3   OH267743   0.439   5.733  16.329  0.5783  0.1632 -0.2547
15443TIP3    H167744   0.424   5.660  16.269 -0.1397 -0.4148  0.5935
15443TIP3    H267745   0.527   5.719  16.363  0.4050 -0.3745 -0.0217
15444TIP3   OH267746   2.679   3.222  11.674  0.3084  0.1497 -0.0259
15444TIP3    H167747   2.589   3.193  11.688  0.4979 -0.9915 -1.0236
15444TIP3    H267748   2.707   3.256  11.759 -1.0431  0.5027  0.2999
15445TIP3   OH267749   2.858   0.335   0.622 -0.1182 -0.1907  0.3778
15445TIP3    H167750   2.842   0.391   0.698 -0.4222  0.6681 -0.3084
15445TIP3    H267751   2.928   0.379   0.573 -0.0670 -0.6275  0.0476
15446TIP3   OH267752   3.602   4.191   0.463 -0.3222 -0.2723  0.0036
15446TIP3    H167753   3.537   4.262   0.460  0.5653  0.5473 -0.5076
15446TIP3    H267754   3.653   4.202   0.383  1.6082  0.2357  1.2434
15447TIP3   OH267755   1.253   4.948  13.075 -0.5195 -0.5872 -0.2755
15447TIP3    H167756   1.158   4.941  13.071 -0.7261  1.8070 -0.6941
15447TIP3    H267757   1.275   4.929  13.167 -1.4824 -0.2784  0.0246
15448TIP3   OH267758   3.568   2.081   5.296 -0.1197 -0.7614 -0.4007
15448TIP3    H167759   3.496   2.058   5.354 -0.5512  1.6340  0.1202
15448TIP3    H267760   3.554   2.029   5.217 -1.5294 -1.4555  0.2863
15449TIP3   OH267761   6.155   1.124   5.176  0.4215 -0.0546  0.0539
15449TIP3    H167762   6.122   1.075   5.101  2.4184 -0.3582 -0.7021
15449TIP3    H267763   6.195   1.058   5.232  1.4169  0.4635 -0.0192
15450TIP3   OH267764   1.503   3.918  14.749  0.3512  0.5008 -0.1706
15450TIP3    H167765   1.544   3.905  14.835  0.5541  1.3427 -0.1358
15450TIP3    H267766   1.435   3.850  14.745 -0.1930  0.9400  0.9989
15451TIP3   OH267767   4.369   4.708   1.836 -0.3167  0.5202  0.0990
15451TIP3    H167768   4.334   4.621   1.817  0.5073  0.2848 -0.4419
15451TIP3    H267769   4.430   4.693   1.908  1.5921  0.1764 -1.4761
15452TIP3   OH267770   1.185   5.831   0.945 -0.5441  0.4091  0.4611
15452TIP3    H167771   1.175   5.777   1.024 -0.0234 -1.0594 -0.4286
15452TIP3    H267772   1.245   5.901   0.970  1.5418 -1.3963  0.7557
15453TIP3   OH267773   1.069   1.048  13.676 -0.2123 -0.1023 -0.3331
15453TIP3    H167774   1.123   1.043  13.597 -1.8182 -0.0319 -1.4707
15453TIP3    H267775   1.126   1.090  13.741  2.1786 -2.7786 -0.4981
15454TIP3   OH267776   6.146   5.613   1.377  0.4857  0.0820 -0.5185
15454TIP3    H167777   6.085   5.675   1.417  0.3252  1.0153 -2.1216
15454TIP3    H267778   6.232   5.639   1.409  0.3951  1.0260 -1.0047
15455TIP3   OH267779   3.463   6.333   3.669 -0.6972 -0.1575 -0.0104
15455TIP3    H167780   3.431   6.421   3.689 -1.6278 -0.4348 -0.2448
15455TIP3    H267781   3.521   6.345   3.594  0.3157  0.4438  0.8314
15456TIP3   OH267782   3.551   4.775  11.558  0.0907  0.1113  0.1325
15456TIP3    H167783   3.526   4.720  11.484 -0.1558  0.5100 -0.0766
15456TIP3    H267784   3.542   4.865  11.527 -1.5100  0.3279  1.1133
15457TIP3   OH267785   0.989   1.474  15.414 -0.1672  0.4566  0.0032
15457TIP3    H167786   1.062   1.484  15.475 -2.0766  2.2981  2.1665
15457TIP3    H267787   0.947   1.392  15.440  0.0618  0.3299 -0.0254
15458TIP3   OH267788   0.170   6.734   3.859  0.3732  0.6068  0.0591
15458TIP3    H167789   0.232   6.720   3.787 -0.8913  1.6732 -1.3085
15458TIP3    H267790   0.214   6.794   3.918  1.3269 -0.0474  0.0304
15459TIP3   OH267791   6.647   1.871   6.228  0.0190  0.0137  0.2628
15459TIP3    H167792   6.616   1.781   6.242 -0.6636  0.1294 -0.4852
15459TIP3    H267793   6.741   1.861   6.208 -0.3649 -0.6741 -1.3243
15460TIP3   OH267794   6.421   4.758   5.779  0.1335  0.0710 -0.0530
15460TIP3    H167795   6.392   4.760   5.870 -1.5134 -1.4304 -0.4790
15460TIP3    H267796   6.415   4.849   5.750  1.2590  0.6666  1.4675
15461TIP3   OH267797   6.320   6.467  15.535  0.6816  0.2576 -0.6197
15461TIP3    H167798   6.365   6.409  15.473 -0.1059 -1.2115  0.1357
15461TIP3    H267799   6.311   6.414  15.614 -0.9904  1.0416 -0.2481
15462TIP3   OH267800   6.277   2.579  13.017  0.1905  0.4059 -0.1389
15462TIP3    H167801   6.360   2.623  13.037  0.7878 -1.3546  1.6621
15462TIP3    H267802   6.227   2.586  13.099 -2.6925  3.7947 -1.9514
15463TIP3   OH267803   2.942   5.578   4.859 -0.0344  0.4670  0.2373
15463TIP3    H167804   2.971   5.491   4.834 -1.3584 -0.0611  0.4711
15463TIP3    H267805   2.928   5.573   4.954  0.1372  1.0163  0.3009
15464TIP3   OH267806   0.539   4.395  11.041 -0.2305  0.3817  0.0220
15464TIP3    H167807   0.593   4.328  11.082 -0.3550  0.4450  0.2925
15464TIP3    H267808   0.472   4.416  11.106 -0.1447  0.8237 -0.0274
15465TIP3   OH267809   5.821   3.068   1.073 -0.6005  0.5390 -0.1228
15465TIP3    H167810   5.861   3.136   1.127 -1.0730  1.8301 -1.3408
15465TIP3    H267811   5.892   3.007   1.055 -0.5772 -0.2978  2.4466
15466TIP3   OH267812   3.657   2.521  12.070 -0.2389 -0.7044 -0.7598
15466TIP3    H167813   3.748   2.500  12.090 -0.0441  0.0026 -0.8557
15466TIP3    H267814   3.657   2.548  11.978 -0.8795 -2.4822 -1.3291
15467TIP3   OH267815   6.123   6.500   3.610 -0.0719 -0.0322  0.3787
15467TIP3    H167816   6.136   6.590   3.579  0.9609 -0.3374 -0.0971
15467TIP3    H267817   6.117   6.448   3.530  0.6558 -0.5612  0.6653
15468TIP3   OH267818   3.467   2.681  16.929  0.0320  0.4226  0.0501
15468TIP3    H167819   3.419   2.762  16.912  0.7326  0.4753 -1.9694
15468TIP3    H267820   3.554   2.710  16.957  0.1538  0.3636 -0.2657
15469TIP3   OH267821   0.252   5.724  14.984 -0.7256 -0.0562 -0.6127
15469TIP3    H167822   0.254   5.651  15.046 -0.2935 -0.2242 -0.8219
15469TIP3    H267823   0.268   5.683  14.899  2.1528  0.5664 -0.4628
15470TIP3   OH267824   5.692   1.352   4.284  0.0138 -0.0237 -0.1439
15470TIP3    H167825   5.738   1.289   4.340 -1.3603  0.4307  1.6075
15470TIP3    H267826   5.622   1.302   4.244 -0.3575  0.1090  0.3236
15471TIP3   OH267827   4.258   5.447   2.224 -0.5636  0.1662 -0.5766
15471TIP3    H167828   4.220   5.454   2.136 -0.1173 -0.0099 -0.7907
15471TIP3    H267829   4.326   5.380   2.214 -1.1954 -0.6097  0.1422
15472TIP3   OH267830   4.553   4.936   6.565 -0.4287  0.5149  0.2895
15472TIP3    H167831   4.550   4.964   6.474 -0.0095  1.6826  0.6158
15472TIP3    H267832   4.635   4.887   6.573 -0.2784  0.7412  0.1259
15473TIP3   OH267833   6.374   6.425  13.430 -0.4053  0.5760 -0.6332
15473TIP3    H167834   6.409   6.354  13.483  2.2542  0.4072 -2.3750
15473TIP3    H267835   6.417   6.504  13.464  0.3128  0.6417 -1.6318
15474TIP3   OH267836   5.452   0.839  13.328  0.3631 -0.2618  0.5504
15474TIP3    H167837   5.532   0.876  13.363 -0.5875  2.1702  0.3447
15474TIP3    H267838   5.397   0.823  13.405  0.4043 -0.3544  0.5617
15475TIP3   OH267839   4.273   6.115  11.577  0.0369 -0.4513  0.2583
15475TIP3    H167840   4.214   6.154  11.513 -1.4050 -1.7026  0.7637
15475TIP3    H267841   4.351   6.170  11.575 -1.4145  1.7135  0.0903
15476TIP3   OH267842   3.475   4.737   3.119 -0.0310  0.5085  0.4470
15476TIP3    H167843   3.544   4.693   3.169 -0.8086  0.0998  1.1950
15476TIP3    H267844   3.407   4.670   3.107 -0.6618  1.1266  0.4564
15477TIP3   OH267845   6.343   4.648  14.902  0.3187 -0.0990  0.1606
15477TIP3    H167846   6.425   4.630  14.855  2.4666  2.4673  2.5299
15477TIP3    H267847   6.315   4.734  14.870 -0.5522 -0.2459  0.5042
15478TIP3   OH267848   5.180   1.246   5.951  0.2131  0.3457  0.9663
15478TIP3    H167849   5.226   1.284   6.025  1.1488  1.3860 -0.1108
15478TIP3    H267850   5.090   1.277   5.960  0.2528  0.2199  1.8210
15479TIP3   OH267851   0.175   1.484  13.424  0.8128  0.0328  0.0276
15479TIP3    H167852   0.257   1.455  13.384  1.2554  2.9290 -1.4035
15479TIP3    H267853   0.110   1.475  13.354 -0.0119 -1.6271  0.9554
15480TIP3   OH267854   3.625   5.454   3.816  0.1067 -0.1077 -0.4574
15480TIP3    H167855   3.562   5.387   3.792  0.2333 -0.7492  0.8885
15480TIP3    H267856   3.683   5.462   3.740 -0.2206 -1.1476 -0.8269
15481TIP3   OH267857   6.190   5.484  12.105 -0.1375 -0.5640  0.1611
15481TIP3    H167858   6.221   5.523  12.023 -1.1535 -0.9771 -0.4424
15481TIP3    H267859   6.267   5.484  12.162 -0.3425  3.5469  0.7374
15482TIP3   OH267860   0.768   1.613   4.044 -0.0210  0.4900 -0.1024
15482TIP3    H167861   0.807   1.535   4.083  3.8085  1.1062 -2.2344
15482TIP3    H267862   0.761   1.675   4.116 -3.1767 -1.6054  1.6563
15483TIP3   OH267863   4.269   6.400  16.633 -0.1620  0.3716 -0.3663
15483TIP3    H167864   4.285   6.491  16.606 -1.2914  0.7187  0.0766
15483TIP3    H267865   4.329   6.387  16.707  0.7202  0.4239 -1.0629
15484TIP3   OH267866   3.745   2.142  15.341 -0.1087 -0.5352 -0.0282
15484TIP3    H167867   3.789   2.223  15.366 -0.4080 -0.5076  0.4294
15484TIP3    H267868   3.777   2.122  15.253  0.3912 -0.2197  0.0821
15485TIP3   OH267869   3.455   1.520   2.015  0.1929  0.0879  0.8755
15485TIP3    H167870   3.368   1.481   2.002  1.0356 -1.3824 -0.8442
15485TIP3    H267871   3.485   1.541   1.927  1.1202  1.7271  1.5344
15486TIP3   OH267872   2.997   3.844   1.147 -0.2557 -0.5511  0.3517
15486TIP3    H167873   3.036   3.771   1.099 -2.0716 -1.6937  0.5049
15486TIP3    H267874   2.924   3.804   1.195 -1.1954  1.3428  0.5770
15487TIP3   OH267875   5.775   6.062   0.667 -0.0775  0.3685  0.5174
15487TIP3    H167876   5.858   6.095   0.701  0.5458 -1.3139  0.7279
15487TIP3    H267877   5.718   6.056   0.744  0.0246  0.3014  0.5873
15488TIP3   OH267878   0.883   4.916  16.173 -0.1012 -0.2896 -0.0515
15488TIP3    H167879   0.945   4.986  16.194  0.3883 -0.5058 -0.7324
15488TIP3    H267880   0.885   4.859  16.250  0.6067 -0.3335 -0.0914
15489TIP3   OH267881   4.085   1.614  14.740  0.4523 -0.1918 -0.4893
15489TIP3    H167882   4.051   1.575  14.821 -0.3558  0.4476 -0.5153
15489TIP3    H267883   4.163   1.561  14.720 -0.0841 -1.1926 -0.0205
15490TIP3   OH267884   2.047   1.719  12.237 -0.1304 -0.4060 -0.2039
15490TIP3    H167885   2.062   1.669  12.317 -1.1742 -1.1923 -0.4719
15490TIP3    H267886   2.053   1.653  12.167 -0.2793  0.0799 -0.6798
15491TIP3   OH267887   2.686   3.855  15.042  0.7670 -0.2929 -0.3005
15491TIP3    H167888   2.739   3.775  15.047  1.8271  0.2862 -1.5946
15491TIP3    H267889   2.596   3.824  15.050  1.2619 -1.2600  2.4358
15492TIP3   OH267890   0.956   4.654   3.095  0.2502  0.4380 -0.2848
15492TIP3    H167891   1.010   4.578   3.118  0.0177 -0.2316 -1.8474
15492TIP3    H267892   1.005   4.697   3.025 -0.1385  1.1390 -0.1337
15493TIP3   OH267893   1.644   1.610  13.617 -0.0644  0.3792  0.7695
15493TIP3    H167894   1.717   1.596  13.556  0.1027  1.0015  0.8187
15493TIP3    H267895   1.627   1.704  13.613 -0.0809  0.4229  1.6439
15494TIP3   OH267896   0.641   0.456  15.483  0.3096 -0.0612 -0.0069
15494TIP3    H167897   0.672   0.500  15.404 -2.4119 -0.8706 -1.6456
15494TIP3    H267898   0.685   0.371  15.483  2.1620  0.8324  0.7564
15495TIP3   OH267899   2.355   4.852   0.260 -0.3303  0.1731  0.4700
15495TIP3    H167900   2.268   4.868   0.222  0.4665  0.8189 -1.2162
15495TIP3    H267901   2.416   4.888   0.195  1.2083 -0.3672  1.5591
15496TIP3   OH267902   4.863   1.390   1.396  0.1672  0.1153  0.2323
15496TIP3    H167903   4.870   1.472   1.347  0.0803  0.4158  0.7134
15496TIP3    H267904   4.861   1.322   1.329 -1.2487  0.5976 -0.2647
15497TIP3   OH267905   3.805   5.859   5.077 -0.5660  0.0217 -0.2655
15497TIP3    H167906   3.827   5.944   5.040 -0.7023 -0.3481 -1.2245
15497TIP3    H267907   3.889   5.824   5.107 -0.3087 -0.0488 -1.0447
15498TIP3   OH267908   3.992   3.841   1.349  0.7114  0.0530 -0.6139
15498TIP3    H167909   4.071   3.791   1.330  2.2895  2.4881 -0.9688
15498TIP3    H267910   4.012   3.930   1.318 -1.1282  1.4327  1.8108
15499TIP3   OH267911   0.003   2.196  16.772  0.8621 -0.0358 -0.3907
15499TIP3    H167912   0.070   2.258  16.801  0.1208  0.9016 -0.6430
15499TIP3    H267913  -0.023   2.149  16.852 -0.8548  2.2208  0.4832
15500TIP3   OH267914   0.594   3.672  11.515 -0.2769 -0.6690  0.2965
15500TIP3    H167915   0.661   3.623  11.467  0.0011  1.2788 -1.4501
15500TIP3    H267916   0.635   3.691  11.599  0.4636 -1.5089  0.1396
15501TIP3   OH267917   5.927   4.235  11.677 -0.0380 -0.0604  0.1471
15501TIP3    H167918   6.020   4.212  11.674  0.3248  1.4284 -1.9396
15501TIP3    H267919   5.919   4.294  11.752  1.1501  1.3931 -0.8072
15502TIP3   OH267920   1.916   0.842  15.723  0.8298 -0.2135 -0.0583
15502TIP3    H167921   1.936   0.889  15.642 -2.2999 -1.2388 -1.5744
15502TIP3    H267922   1.994   0.790  15.741  1.8924  0.6366 -1.9655
15503TIP3   OH267923   2.386   5.361   3.073 -0.1933  0.0573 -0.5844
15503TIP3    H167924   2.428   5.447   3.065 -0.5771  0.1876 -1.2527
15503TIP3    H267925   2.293   5.378   3.056 -0.5539 -0.2079  0.9717
15504TIP3   OH267926   1.294   0.674  14.904  0.1101  0.0158 -0.0357
15504TIP3    H167927   1.340   0.674  14.820 -0.2084  0.9632 -0.2263
15504TIP3    H267928   1.342   0.612  14.959 -0.8862 -2.2512 -1.5685
15505TIP3   OH267929   0.640   1.338   4.291  0.2745 -0.0751  0.1159
15505TIP3    H167930   0.549   1.361   4.270  0.0587 -1.6463 -0.8764
15505TIP3    H267931   0.675   1.416   4.333 -0.7436  1.5588 -1.8584
15506TIP3   OH267932   1.021   4.672   0.334 -0.0436 -0.1813 -0.3992
15506TIP3    H167933   0.991   4.583   0.346 -0.0496  0.0559  1.7536
15506TIP3    H267934   0.943   4.722   0.313 -0.3314 -0.4174  0.0914
15507TIP3   OH267935   1.907   5.472  13.141 -0.1875  0.6181 -0.3687
15507TIP3    H167936   1.953   5.496  13.221  0.0396 -0.2331 -0.2444
15507TIP3    H267937   1.976   5.449  13.079 -0.4014  0.4604 -0.5490
15508TIP3   OH267938   5.427   1.125  16.987 -0.6512  0.3585 -0.1359
15508TIP3    H167939   5.401   1.080  16.907  0.1821 -1.1338  0.3975
15508TIP3    H267940   5.365   1.093  17.053 -1.1140  1.3117 -0.0912
15509TIP3   OH267941   5.240   0.556   3.327  0.1072 -0.1288 -0.1676
15509TIP3    H167942   5.300   0.496   3.284 -0.7248 -0.7824 -0.4495
15509TIP3    H267943   5.153   0.528   3.298 -0.4949 -0.5754  1.8629
15510TIP3   OH267944   2.227   4.749  12.693 -0.3958 -0.0778  0.2286
15510TIP3    H167945   2.317   4.781  12.688  0.2774 -2.0422 -2.1508
15510TIP3    H267946   2.174   4.821  12.659  0.5539  0.2437 -0.6218
15511TIP3   OH267947   2.820   3.646   6.843 -0.4786 -0.6138 -0.1266
15511TIP3    H167948   2.838   3.552   6.833  2.1107 -0.5157  2.1932
15511TIP3    H267949   2.905   3.688   6.829 -1.5326  1.3949 -0.8824
15512TIP3   OH267950   6.017   5.712  15.597  0.0010 -0.1056  0.4043
15512TIP3    H167951   6.032   5.740  15.687  2.7699  1.4735 -0.4285
15512TIP3    H267952   6.068   5.631  15.589  1.4640  0.8431 -0.2312
15513TIP3   OH267953   1.025   6.148   5.275 -0.0011  0.3815 -0.1870
15513TIP3    H167954   1.082   6.217   5.240 -0.1297  0.2898 -0.5796
15513TIP3    H267955   0.943   6.158   5.227 -0.4298  0.7130  0.6005
15514TIP3   OH267956   6.346   2.333   4.326 -0.0071  0.6110 -0.3144
15514TIP3    H167957   6.307   2.266   4.269 -1.4168  0.9951  0.1585
15514TIP3    H267958   6.411   2.376   4.271  2.1574 -2.1862 -0.1713
15515TIP3   OH267959   2.003   3.866   4.120 -0.2574 -0.0556 -0.0374
15515TIP3    H167960   1.976   3.939   4.176 -1.2600 -0.7987  0.4953
15515TIP3    H267961   1.962   3.789   4.160 -2.3632 -0.4317 -2.6102
15516TIP3   OH267962   1.288   0.405  16.644 -0.0726 -0.0597  0.1288
15516TIP3    H167963   1.252   0.330  16.691 -0.3775 -0.7613 -1.1794
15516TIP3    H267964   1.259   0.393  16.554  0.7564  1.0882 -0.3118
15517TIP3   OH267965   0.571   4.135  11.185  0.4796 -0.3018  0.3068
15517TIP3    H167966   0.484   4.107  11.157 -0.1755 -0.4162  2.3543
15517TIP3    H267967   0.623   4.054  11.184 -0.0626 -0.6769  1.2947
15518TIP3   OH267968   3.725   4.072   5.575  0.1163  0.3991  0.0768
15518TIP3    H167969   3.637   4.041   5.554  0.3523 -0.3181  0.1324
15518TIP3    H267970   3.750   4.023   5.653  0.0097  1.6482  0.9240
15519TIP3   OH267971   3.004   0.605  15.293  0.2422 -0.1552  0.0400
15519TIP3    H167972   3.019   0.618  15.387  2.0209 -0.4969 -0.1620
15519TIP3    H267973   2.930   0.545  15.289 -0.3463  0.4519  1.2033
15520TIP3   OH267974   2.945   2.731   5.590 -0.3272 -0.0804 -0.4621
15520TIP3    H167975   2.947   2.820   5.554 -1.2600  1.3997  2.7625
15520TIP3    H267976   3.029   2.720   5.634 -0.1059 -0.9507 -1.0678
15521TIP3   OH267977   2.809   4.938   3.794  0.1854  0.4587  0.0125
15521TIP3    H167978   2.827   4.946   3.888  2.0469  0.2565 -0.2821
15521TIP3    H267979   2.820   4.844   3.777  1.4989  0.7107 -0.6694
15522TIP3   OH267980   4.529   5.384  16.730 -0.5638 -0.2912  0.1791
15522TIP3    H167981   4.554   5.340  16.811 -0.8914  1.8132  1.5133
15522TIP3    H267982   4.513   5.313  16.668  1.2905 -1.9323  1.4439
15523TIP3   OH267983   6.261   5.005   5.688  0.0105 -0.2550 -1.0329
15523TIP3    H167984   6.342   5.015   5.638  0.8938  1.8356  0.6690
15523TIP3    H267985   6.215   5.088   5.676 -0.8591 -0.6032 -0.2312
15524TIP3   OH267986   6.446   0.241  12.767 -0.3716 -0.0584 -0.6394
15524TIP3    H167987   6.502   0.300  12.818 -0.9165 -1.3129  1.5203
15524TIP3    H267988   6.477   0.153  12.787 -1.6772 -0.6802 -1.1868
15525TIP3   OH267989   4.924   3.398   6.104  0.1161 -0.1164  0.1150
15525TIP3    H167990   5.010   3.431   6.078  1.7241 -2.5600  1.8524
15525TIP3    H267991   4.882   3.372   6.021  2.2655 -1.4656 -0.6507
15526TIP3   OH267992   5.999   4.357  15.785  0.5641  0.0356  0.5388
15526TIP3    H167993   5.969   4.266  15.787  0.7665 -0.0300  0.6767
15526TIP3    H267994   5.968   4.395  15.867  0.0684  0.2254  0.2634
15527TIP3   OH267995   3.647   2.885   3.621 -0.1603  0.2809  0.0391
15527TIP3    H167996   3.584   2.951   3.652 -1.7243 -0.9443 -0.3924
15527TIP3    H267997   3.652   2.821   3.692 -0.2655 -0.1904 -0.3683
15528TIP3   OH267998   1.296   6.772   2.120 -0.3101  0.0222  0.3889
15528TIP3    H167999   1.326   6.717   2.192 -0.7513  1.4201  1.6814
15528TIP3    H268000   1.306   6.861   2.152  0.8070  0.7654 -1.8179
15529TIP3   OH268001   0.240   5.319   5.574 -0.6241 -0.1516 -0.2883
15529TIP3    H168002   0.186   5.245   5.603 -0.3347 -0.2688 -0.0451
15529TIP3    H268003   0.204   5.395   5.621  0.2502 -0.4424  0.9012
15530TIP3   OH268004   5.323   1.744  15.854  0.0197  0.1823 -0.2002
15530TIP3    H168005   5.402   1.719  15.807  0.5863  0.4335  0.6017
15530TIP3    H268006   5.297   1.828  15.815  1.4735  1.2821  1.0416
15531TIP3   OH268007   0.075   1.789   2.604 -0.1240  0.7143  0.7055
15531TIP3    H168008   0.146   1.851   2.592  0.0191  0.8196  1.9710
15531TIP3    H268009   0.110   1.723   2.663 -0.4975 -0.2274 -0.0847
15532TIP3   OH268010   3.998   5.529  13.429 -0.2385 -0.2299 -0.0343
15532TIP3    H168011   3.934   5.597  13.450 -0.2966 -0.9452  2.5117
15532TIP3    H268012   3.950   5.447  13.445  0.5503 -0.8241 -0.6672
15533TIP3   OH268013   1.329   0.371   5.176  1.3149  0.6787  1.2338
15533TIP3    H168014   1.280   0.453   5.168  0.0226 -0.2712 -2.0377
15533TIP3    H268015   1.276   0.318   5.236 -0.9540  0.3206 -0.8950
15534TIP3   OH268016   6.285   2.315   3.810  0.4595  0.1314 -0.5546
15534TIP3    H168017   6.261   2.343   3.898 -1.0614 -1.2766 -0.4868
15534TIP3    H268018   6.321   2.227   3.821  2.0670  0.6694 -1.1457
15535TIP3   OH268019   1.758   1.542  12.862 -0.0994 -0.4151  0.7628
15535TIP3    H168020   1.725   1.576  12.779  2.0180  0.7716  0.3488
15535TIP3    H268021   1.688   1.484  12.893 -1.8687  0.7897 -0.7581
15536TIP3   OH268022   5.187   3.391   3.809  0.0587 -0.1838 -0.4251
15536TIP3    H168023   5.174   3.482   3.782  0.6300 -0.2505 -0.9721
15536TIP3    H268024   5.185   3.341   3.727 -0.2723 -0.6639 -0.1264
15537TIP3   OH268025   4.742   2.741  16.168  0.5745  0.0547  0.1529
15537TIP3    H168026   4.708   2.826  16.142 -1.8338 -0.4280  1.4062
15537TIP3    H268027   4.784   2.756  16.253 -1.6095 -0.2518  1.3651
15538TIP3   OH268028   3.949   5.281   4.237 -0.2633  0.2743  0.6058
15538TIP3    H168029   3.887   5.210   4.223 -0.6119  0.6331  0.2826
15538TIP3    H268030   4.025   5.258   4.183 -0.8013  0.6630 -0.3452
15539TIP3   OH268031   5.390   1.555  17.023 -0.5692 -0.2480  0.1447
15539TIP3    H168032   5.428   1.591  17.102 -0.3531  1.1582 -0.5725
15539TIP3    H268033   5.334   1.625  16.989 -1.2856 -1.1187 -0.5223
15540TIP3   OH268034   3.889   6.648  11.998 -0.1920  0.2175 -0.2631
15540TIP3    H168035   3.876   6.742  12.008 -1.2317  0.1294 -0.6466
15540TIP3    H268036   3.895   6.635  11.903  0.0121 -0.0934 -0.2090
15541TIP3   OH268037   5.647   2.928   0.146 -0.2033 -0.2739  0.4096
15541TIP3    H168038   5.630   3.014   0.186 -1.3909 -0.6960  0.8614
15541TIP3    H268039   5.622   2.865   0.213 -1.6559 -0.9932 -0.7612
15542TIP3   OH268040   1.789   0.574   5.839  0.0097  0.0238  0.3969
15542TIP3    H168041   1.767   0.666   5.853 -2.2889 -0.2406 -0.9597
15542TIP3    H268042   1.731   0.526   5.898  0.3676 -0.5774  0.2687
15543TIP3   OH268043   3.825   5.622  11.798 -0.7307 -0.1845 -0.3463
15543TIP3    H168044   3.874   5.556  11.750 -1.0575  1.3959 -3.0478
15543TIP3    H268045   3.881   5.700  11.794 -1.1590  0.2277  1.1791
15544TIP3   OH268046   2.923   5.484  13.618  0.1563 -0.7025 -0.5456
15544TIP3    H168047   2.883   5.398  13.633 -0.9881 -0.0591  0.2185
15544TIP3    H268048   2.877   5.543  13.677  2.6915 -0.0049  0.8986
15545TIP3   OH268049   0.206   6.187   0.287 -0.0132 -0.5082  0.0845
15545TIP3    H168050   0.180   6.277   0.308 -0.1953  0.3975 -3.3613
15545TIP3    H268051   0.139   6.157   0.226 -0.1661 -3.2139  1.4332
15546TIP3   OH268052   5.884   2.956   5.484 -0.5306  0.2715 -0.3183
15546TIP3    H168053   5.916   3.046   5.491 -2.9763  1.3375 -1.6324
15546TIP3    H268054   5.923   2.911   5.559  1.4727  2.1680 -0.1244
15547TIP3   OH268055   3.316   6.204   1.191  0.2831 -1.2026  0.1635
15547TIP3    H168056   3.266   6.285   1.187 -0.6261 -1.7806 -0.8050
15547TIP3    H268057   3.396   6.227   1.239 -0.8853 -0.2413  1.7412
15548TIP3   OH268058   2.104   3.753   1.051  0.3986 -0.3079 -0.2241
15548TIP3    H168059   2.068   3.730   0.965  0.5278 -0.5640 -0.2119
15548TIP3    H268060   2.193   3.716   1.050  1.3069  1.7765 -0.9061
15549TIP3   OH268061   1.390   0.804   2.519  0.3695  0.2697  0.0034
15549TIP3    H168062   1.370   0.715   2.548  0.1147  0.3798  0.1657
15549TIP3    H268063   1.467   0.794   2.462  0.2119 -0.0774 -0.1484
15550TIP3   OH268064   2.804   1.884  15.031 -0.0014 -0.1168 -0.1679
15550TIP3    H168065   2.741   1.816  15.055 -0.5444  0.2323 -0.5762
15550TIP3    H268066   2.752   1.964  15.022  0.4395  0.0999 -0.8931
15551TIP3   OH268067   4.184   3.431  11.946 -0.2762 -0.1242  0.0660
15551TIP3    H168068   4.239   3.380  12.006  1.3611  0.4652 -0.8485
15551TIP3    H268069   4.189   3.384  11.863  1.3848  1.4707 -0.8394
15552TIP3   OH268070   6.012   5.069   4.785  0.3818  0.7136 -0.4649
15552TIP3    H168071   5.938   5.115   4.744 -1.9390 -2.1173  0.2547
15552TIP3    H268072   6.021   5.111   4.871  0.0182  1.4348 -0.7664
15553TIP3   OH268073   5.396   6.370   2.151  0.1595  0.3942 -0.2800
15553TIP3    H168074   5.485   6.359   2.186 -0.7101 -0.4523  1.8476
15553TIP3    H268075   5.382   6.293   2.096  0.5357  0.2279 -0.1451
15554TIP3   OH268076   3.658   5.442   2.508  0.3847 -0.2521 -0.1905
15554TIP3    H168077   3.703   5.431   2.593  0.4917 -0.9764 -0.3325
15554TIP3    H268078   3.609   5.523   2.517 -1.6370 -1.5597  1.4982
15555TIP3   OH268079   0.395   4.564  14.004 -0.0139  0.0806 -0.4380
15555TIP3    H168080   0.411   4.655  13.982  0.7589  0.0196 -0.1448
15555TIP3    H268081   0.447   4.514  13.941 -0.4474 -0.1655 -0.6105
15556TIP3   OH268082   2.044   3.094  16.547  0.0585 -0.1415  0.3767
15556TIP3    H168083   2.007   3.132  16.626  2.3208  1.6545  0.6672
15556TIP3    H268084   2.139   3.098  16.559  0.4785 -0.5680 -2.0800
15557TIP3   OH268085   6.738   3.908   2.629 -0.5957  0.1333 -0.3082
15557TIP3    H168086   6.804   3.942   2.689 -0.0483  0.0398 -0.8368
15557TIP3    H268087   6.659   3.959   2.648 -0.2886  0.4512  0.1348
15558TIP3   OH268088   0.526   6.688  11.048  0.6100  0.2609  0.3615
15558TIP3    H168089   0.570   6.623  11.103 -0.9517  0.3072  1.7293
15558TIP3    H268090   0.434   6.663  11.048  0.5115  0.3573 -2.1688
15559TIP3   OH268091   4.973   3.938   2.301 -0.2610 -0.6278  0.5707
15559TIP3    H168092   5.013   3.887   2.231  0.3365 -0.6489  0.9180
15559TIP3    H268093   5.044   3.950   2.365 -0.4136  0.5515  0.5414
15560TIP3   OH268094   1.136   5.474  12.916  0.1816 -0.0996 -0.0317
15560TIP3    H168095   1.051   5.436  12.939  0.0245  1.7768  2.9531
15560TIP3    H268096   1.118   5.567  12.901  1.5963  0.1874 -0.0862
15561TIP3   OH268097   5.806   4.961  12.629  0.0951  0.4621  0.2267
15561TIP3    H168098   5.744   4.897  12.592 -1.3342  0.2377  2.7830
15561TIP3    H268099   5.831   5.015  12.554 -3.7845  1.0142 -0.8992
15562TIP3   OH268100   2.470   5.934   1.304  0.5448  0.5269 -0.1002
15562TIP3    H168101   2.438   5.917   1.393 -2.3898  0.3915 -1.0818
15562TIP3    H268102   2.564   5.913   1.308  0.1079 -1.4428  2.4596
15563TIP3   OH268103   4.849   5.768  16.236  0.1277  0.2670  0.0324
15563TIP3    H168104   4.831   5.679  16.266  0.3058  0.2664  0.1391
15563TIP3    H268105   4.940   5.767  16.209 -0.1466  0.1660 -0.9040
15564TIP3   OH268106   3.802   0.573  13.573 -0.1601  0.1372  0.1699
15564TIP3    H168107   3.887   0.530  13.562 -1.2909 -2.3642  0.5960
15564TIP3    H268108   3.816   0.632  13.648  1.2537  0.0007  0.0537
15565TIP3   OH268109   2.425   6.636  15.103 -0.6792  0.1209  0.1811
15565TIP3    H168110   2.372   6.556  15.094  0.8869 -0.9337 -0.1358
15565TIP3    H268111   2.408   6.666  15.192 -0.6637 -1.0773  0.6128
15566TIP3   OH268112   4.147   1.760   0.976  0.2132  0.1910  0.0446
15566TIP3    H168113   4.106   1.675   0.959 -2.3875  0.3700  4.0574
15566TIP3    H268114   4.226   1.739   1.026  1.7704  0.1452 -2.2477
15567TIP3   OH268115   3.562   0.420  11.474  0.2494  0.1808  0.1984
15567TIP3    H168116   3.548   0.451  11.385  0.5493  0.9340  0.4060
15567TIP3    H268117   3.630   0.353  11.466  0.3433  0.3159 -0.1209
15568TIP3   OH268118   2.296   3.128  12.518  0.4243 -0.1996 -0.5622
15568TIP3    H168119   2.345   3.150  12.597  1.2377 -0.1978 -1.0589
15568TIP3    H268120   2.205   3.129  12.546  0.6732  0.2242  0.2772
15569TIP3   OH268121   1.024   5.323   1.733  0.0464 -0.3987 -0.0216
15569TIP3    H168122   1.087   5.342   1.803 -0.3985  0.4687  0.1610
15569TIP3    H268123   1.004   5.408   1.695  0.8490 -0.9306 -1.7291
15570TIP3   OH268124   3.364   5.566   5.406  0.3035 -0.1180  0.2508
15570TIP3    H168125   3.354   5.482   5.363  0.4452  0.6580 -1.3580
15570TIP3    H268126   3.439   5.556   5.464  0.3065 -1.0826  0.0845
15571TIP3   OH268127   5.473   6.775   4.616  0.6246  0.0993 -0.5513
15571TIP3    H168128   5.530   6.701   4.637 -0.1666 -0.1762  0.8055
15571TIP3    H268129   5.513   6.850   4.661  0.6519  0.1969 -0.7362
15572TIP3   OH268130   3.516   4.925  15.086 -0.1817  0.5940 -0.1831
15572TIP3    H168131   3.468   4.990  15.137 -2.3716 -0.6212 -0.5587
15572TIP3    H268132   3.572   4.880  15.149 -0.3964  1.2780  0.5013
15573TIP3   OH268133   3.904   6.054   4.861 -0.1023 -0.4544  0.1333
15573TIP3    H168134   3.945   6.132   4.899 -0.1616  1.0172 -2.5824
15573TIP3    H268135   3.977   5.995   4.841  0.1285 -0.2970  0.5159
15574TIP3   OH268136   6.334   4.036   6.435  1.1264 -0.0311  0.1894
15574TIP3    H168137   6.391   3.969   6.473  1.7339 -0.9545 -2.1659
15574TIP3    H268138   6.257   3.988   6.406  2.4924 -0.3045 -3.5370
15575TIP3   OH268139   5.289   3.633  13.874 -0.4333 -0.7538 -0.4234
15575TIP3    H168140   5.383   3.650  13.883 -0.2842 -0.2725 -2.5280
15575TIP3    H268141   5.282   3.537  13.877  0.0715 -0.7833  0.0488
15576TIP3   OH268142   5.486   6.684  15.282  0.6996  0.5201  0.7356
15576TIP3    H168143   5.419   6.639  15.333  0.3328  0.8704  0.5734
15576TIP3    H268144   5.553   6.709  15.346 -0.4128  2.1934  1.3113
15577TIP3   OH268145   3.470   3.294   3.249 -0.3270  0.0388  0.1456
15577TIP3    H168146   3.550   3.260   3.288 -0.8787 -1.3831  0.1062
15577TIP3    H268147   3.485   3.388   3.240  1.6178 -0.3115 -0.5739
15578TIP3   OH268148   3.250   4.332   2.037 -0.1460  0.3569  0.2054
15578TIP3    H168149   3.257   4.279   2.116  1.9541 -1.1231 -0.8756
15578TIP3    H268150   3.243   4.422   2.069  1.3586 -0.1292  2.0833
15579TIP3   OH268151   3.913   5.312  12.451  0.1485  0.1391  0.3950
15579TIP3    H168152   3.852   5.335  12.521  2.4328  2.4573  1.8111
15579TIP3    H268153   3.865   5.332  12.370 -1.5131  0.2665  1.3591
15580TIP3   OH268154   4.490   0.217   5.126  0.1151 -0.1800  0.1394
15580TIP3    H168155   4.475   0.303   5.086 -1.4733 -0.5655 -0.1876
15580TIP3    H268156   4.585   0.209   5.134  0.2821  1.5893  0.1530
15581TIP3   OH268157   0.616   2.498   2.833  0.1524 -0.1348  0.3105
15581TIP3    H168158   0.651   2.460   2.752 -1.0367 -0.7876  0.0723
15581TIP3    H268159   0.600   2.590   2.811 -0.6290 -0.4199 -0.3744
15582TIP3   OH268160   3.324   6.418   0.789 -0.3593  0.1249  0.6873
15582TIP3    H168161   3.348   6.332   0.826  0.3357 -0.6575 -1.4265
15582TIP3    H268162   3.379   6.426   0.711 -1.4861  1.8535  0.0309
15583TIP3   OH268163   0.533   0.610  12.289 -0.5153 -0.7347  0.6676
15583TIP3    H168164   0.460   0.571  12.337 -0.3880 -0.2362  1.2841
15583TIP3    H268165   0.568   0.539  12.236 -0.3566 -1.4240  1.6808
15584TIP3   OH268166   5.105   6.454   1.340 -0.3762 -0.7841  0.2978
15584TIP3    H168167   5.094   6.363   1.313  0.5911 -0.8335  0.0613
15584TIP3    H268168   5.080   6.506   1.264  2.5489 -0.9240 -0.8600
15585TIP3   OH268169   4.513   0.719   2.402 -0.0703  0.2787  0.3338
15585TIP3    H168170   4.515   0.624   2.391  0.0795  0.3682 -0.5242
15585TIP3    H268171   4.439   0.736   2.461 -0.9946 -0.2805 -0.6250
15586TIP3   OH268172   0.018   4.712  12.291  0.1360 -0.1342 -0.1173
15586TIP3    H168173  -0.068   4.684  12.261  0.1896 -0.6350  0.1858
15586TIP3    H268174   0.070   4.631  12.295  0.6362  0.1670 -0.3511
15587TIP3   OH268175   4.594   4.929  11.758 -0.0116  0.1148  0.1277
15587TIP3    H168176   4.637   4.971  11.684  2.2935  1.5112  2.1134
15587TIP3    H268177   4.500   4.934  11.737  0.2450  4.1638 -0.9420
15588TIP3   OH268178   6.175   1.836   1.768  0.0748  0.4334  0.6135
15588TIP3    H168179   6.231   1.876   1.702  1.7520 -0.4686  1.4341
15588TIP3    H268180   6.188   1.742   1.756 -0.2470  0.2488  1.6746
15589TIP3   OH268181   0.535   4.005   0.215  0.2197 -0.0248  0.4191
15589TIP3    H168182   0.442   4.023   0.201  0.7459  1.8773 -1.1179
15589TIP3    H268183   0.538   3.915   0.246 -2.1611  0.0480  1.0523
15590TIP3   OH268184   1.613   4.416  14.911  0.0772 -0.0496  0.3184
15590TIP3    H168185   1.628   4.353  14.840 -1.2754 -0.4526  0.3719
15590TIP3    H268186   1.693   4.410  14.964  0.0714 -1.5981  0.2159
15591TIP3   OH268187   5.049   6.085   0.434  0.5650  0.2138 -0.0377
15591TIP3    H168188   4.988   6.131   0.491 -0.1529  0.6145 -1.0959
15591TIP3    H268189   5.099   6.155   0.392  0.0156  0.0135 -1.0524
15592TIP3   OH268190   5.027   2.782   3.055  0.0790  0.2215  0.4648
15592TIP3    H168191   5.036   2.874   3.081 -0.1290  0.4209 -0.1415
15592TIP3    H268192   4.990   2.739   3.132  3.0194 -0.0005  1.8760
15593TIP3   OH268193   1.840   0.207   5.364  0.4404  0.3941 -0.4230
15593TIP3    H168194   1.824   0.179   5.454 -0.3835 -0.7799 -0.9062
15593TIP3    H268195   1.754   0.233   5.332  0.5825  0.0253 -1.1171
15594TIP3   OH268196   0.480   2.598   0.109 -0.1976 -0.2373 -0.6007
15594TIP3    H168197   0.439   2.680   0.137 -1.5484 -1.0779 -0.0116
15594TIP3    H268198   0.468   2.539   0.183  0.6542 -1.0118 -1.0678
15595TIP3   OH268199   2.448   5.182  11.347  0.0928  0.1901  0.3749
15595TIP3    H168200   2.482   5.124  11.415 -1.1794 -0.9827  0.0543
15595TIP3    H268201   2.524   5.201  11.291  0.3944 -1.8789  0.0040
15596TIP3   OH268202   3.442   6.055  12.762 -0.3083  0.0555  0.0847
15596TIP3    H168203   3.360   6.099  12.785  0.2685 -0.5845  4.0871
15596TIP3    H268204   3.418   5.963  12.756  0.0423 -0.0910  0.9010
15597TIP3   OH268205   1.362   5.544   0.503 -0.6919 -0.5245 -0.2075
15597TIP3    H168206   1.326   5.471   0.553 -1.4058  0.1560  0.3017
15597TIP3    H268207   1.368   5.616   0.566  2.1008 -0.7271 -0.1192
15598TIP3   OH268208   2.086   4.414  16.743 -0.2518 -0.8804 -0.2414
15598TIP3    H168209   2.052   4.475  16.678  0.0087 -1.8105 -1.2729
15598TIP3    H268210   2.011   4.358  16.766 -1.1422  1.2034  2.4438
15599TIP3   OH268211   4.636   6.221   1.724  0.1002  0.5764  0.0482
15599TIP3    H168212   4.588   6.156   1.775  0.7300  1.7495  2.2248
15599TIP3    H268213   4.708   6.171   1.685 -0.9418 -0.5212 -0.5500
15600TIP3   OH268214   0.540   2.062  11.714 -0.4897 -0.4679 -0.2152
15600TIP3    H168215   0.611   2.000  11.729 -0.1850 -0.1643 -0.3785
15600TIP3    H268216   0.565   2.108  11.634 -0.6312 -0.0244 -0.0065
15601TIP3   OH268217   5.863   0.121  10.633  0.4309 -0.3155  0.6666
15601TIP3    H168218   5.794   0.186  10.619 -0.1417 -1.0021  0.1978
15601TIP3    H268219   5.822   0.055  10.690  0.6473 -0.7990  0.2701
15602TIP3   OH268220   1.965   0.888  10.974 -0.5081 -0.2843  0.3920
15602TIP3    H168221   2.050   0.850  10.952 -0.0580  0.1124  1.3784
15602TIP3    H268222   1.902   0.825  10.941  0.1768 -0.8576  0.1381
15603TIP3   OH268223   0.659   5.659   0.190  0.2058  0.0830 -0.4169
15603TIP3    H168224   0.621   5.702   0.113 -0.5633  2.2285  1.0789
15603TIP3    H268225   0.584   5.624   0.237  0.4163  0.9391  0.5843
15604TIP3   OH268226   4.613   3.933   4.869 -0.5840  0.4018 -0.6019
15604TIP3    H168227   4.573   3.922   4.956 -0.4913  1.0828 -0.4695
15604TIP3    H268228   4.632   3.843   4.840  2.1126  0.1914  1.3715
15605TIP3   OH268229   3.419   4.044   5.652 -0.2200 -0.1308  0.0552
15605TIP3    H168230   3.333   4.084   5.638  0.7667  2.4957  1.0452
15605TIP3    H268231   3.418   4.016   5.744  0.2535  0.6602  0.3079
15606TIP3   OH268232   6.560   1.402   2.023  0.0417 -1.0027 -0.3238
15606TIP3    H168233   6.552   1.490   2.060  1.9297 -0.3573 -1.3137
15606TIP3    H268234   6.534   1.343   2.094 -0.4369  0.3112  0.6299
15607TIP3   OH268235   5.835   6.443   6.566 -0.0302  0.7519  0.0541
15607TIP3    H168236   5.878   6.481   6.642  0.9479  0.0767 -0.1508
15607TIP3    H268237   5.858   6.501   6.494 -0.6156  1.1604  0.1910
15608TIP3   OH268238   1.025   1.150   2.410 -0.3461 -0.5637 -0.5059
15608TIP3    H168239   1.051   1.070   2.457  0.5117 -0.2269 -0.4009
15608TIP3    H268240   1.044   1.221   2.471  0.8907 -0.1105 -1.3965
15609TIP3   OH268241   2.712   2.501   3.156  0.8138  0.0228  0.5692
15609TIP3    H168242   2.653   2.437   3.196  1.1070  0.5882  1.9709
15609TIP3    H268243   2.696   2.493   3.062 -1.9919  0.6427  0.9135
15610TIP3   OH268244   6.596   3.370  11.659  0.1045  0.1050  0.4071
15610TIP3    H168245   6.591   3.276  11.638 -0.7591  0.4080 -0.9212
15610TIP3    H268246   6.515   3.406  11.623  1.4454  1.7195 -1.1523
15611TIP3   OH268247   4.399   0.639   0.543 -0.1543 -0.0439 -0.4211
15611TIP3    H168248   4.308   0.614   0.561  0.3006 -1.4752  0.0503
15611TIP3    H268249   4.430   0.572   0.483  0.2787  1.0668 -1.4676
15612TIP3   OH268250   3.683   0.370  17.005 -0.0748  0.4609  0.2551
15612TIP3    H168251   3.634   0.383  16.923  0.5277 -0.5710 -0.2964
15612TIP3    H268252   3.616   0.353  17.071 -0.5097 -1.7886 -0.6498
15613TIP3   OH268253   2.947   3.372   3.390  0.6872  0.1441  0.3337
15613TIP3    H168254   2.981   3.437   3.452 -0.5813  0.3776  0.8228
15613TIP3    H268255   2.985   3.398   3.306 -1.1248  2.6696  0.1545
15614TIP3   OH268256   0.855   6.324  13.032  0.2374 -0.2606 -0.8854
15614TIP3    H168257   0.920   6.282  13.088 -0.7267 -0.8900 -0.2112
15614TIP3    H268258   0.885   6.415  13.023  1.5227 -0.6949 -1.1079
15615TIP3   OH268259   0.479   1.575  15.301  0.2191 -0.5272 -0.4212
15615TIP3    H168260   0.389   1.546  15.287  1.0267 -3.2194 -0.5073
15615TIP3    H268261   0.522   1.501  15.344  2.1013  1.1635  0.8053
15616TIP3   OH268262   1.230   4.436   4.375 -0.1029 -0.3096  0.0374
15616TIP3    H168263   1.201   4.442   4.465 -1.8099  0.8611 -0.5348
15616TIP3    H268264   1.159   4.476   4.324  0.6888 -1.1600 -1.8448
15617TIP3   OH268265   6.155   1.226  16.570  0.3134 -0.0702 -0.0850
15617TIP3    H168266   6.067   1.263  16.567  0.0889 -0.6449 -0.8895
15617TIP3    H268267   6.146   1.144  16.618  0.3041 -0.3894 -0.6244
15618TIP3   OH268268   1.132   1.185   0.060  0.6011  0.6822  0.6408
15618TIP3    H168269   1.150   1.163   0.151 -1.7399 -0.0584  1.0027
15618TIP3    H268270   1.202   1.142   0.011  1.9199  1.1192  2.0613
15619TIP3   OH268271   1.151   0.463  13.663 -0.0742  0.2320 -0.6422
15619TIP3    H168272   1.174   0.380  13.622 -1.5063 -0.0129 -0.9822
15619TIP3    H268273   1.140   0.442  13.756 -0.9233 -0.0655 -0.8070
15620TIP3   OH268274   0.205   5.342   0.718  0.4235  0.1983 -0.0242
15620TIP3    H168275   0.190   5.323   0.625 -2.3964 -0.3538  0.4625
15620TIP3    H268276   0.283   5.292   0.740  0.4861 -0.5825 -1.8197
15621TIP3   OH268277   2.833   6.010  11.322  0.4683 -0.6868  0.2903
15621TIP3    H168278   2.860   6.097  11.294  3.3055 -1.1081  1.4445
15621TIP3    H268279   2.854   5.953  11.248 -1.4398 -0.4569 -0.4870
15622TIP3   OH268280   4.466   0.964   2.258  0.0530 -0.0419 -0.2105
15622TIP3    H168281   4.489   0.882   2.301 -0.4138  0.0200  0.1598
15622TIP3    H268282   4.493   1.032   2.320  0.6291  0.0973 -0.6030
15623TIP3   OH268283   1.565   3.342   5.569  0.0164  0.2450 -0.1337
15623TIP3    H168284   1.609   3.261   5.543 -0.2885  0.1848 -0.4800
15623TIP3    H268285   1.575   3.400   5.493  2.7612  1.6255  1.1509
15624TIP3   OH268286   3.159   3.765   0.251  0.1413 -0.2004  0.4764
15624TIP3    H168287   3.231   3.728   0.201  2.0325  1.8782  1.5144
15624TIP3    H268288   3.195   3.844   0.291 -3.0184  1.5817  0.1251
15625TIP3   OH268289   3.059   4.354   1.212  0.0159  0.0349 -0.1200
15625TIP3    H168290   3.112   4.404   1.275  0.1432  1.0220 -0.9845
15625TIP3    H268291   3.055   4.266   1.249 -1.7501  1.0693  2.4378
15626TIP3   OH268292   3.086   0.208  14.431 -0.0037 -0.1277  0.0866
15626TIP3    H168293   3.059   0.117  14.430 -1.3929  0.2669 -0.9233
15626TIP3    H268294   3.045   0.245  14.510 -1.8340  0.2564 -0.9774
15627TIP3   OH268295   6.660   1.194   5.803 -0.2509 -0.1020 -0.0443
15627TIP3    H168296   6.693   1.104   5.806  0.7287  0.2764  1.2895
15627TIP3    H268297   6.579   1.191   5.853 -0.7669 -0.4357 -0.8739
15628TIP3   OH268298   4.060   3.998  14.587 -0.1425 -0.8566 -0.0757
15628TIP3    H168299   4.128   4.057  14.619  0.2980 -1.0491 -0.6357
15628TIP3    H268300   3.984   4.016  14.643  0.8068 -1.6907  1.5646
15629TIP3   OH268301   5.558   6.426   3.744 -0.2339  0.5599 -0.2438
15629TIP3    H168302   5.651   6.403   3.753  0.1374  0.6703 -2.9421
15629TIP3    H268303   5.535   6.466   3.827  1.9620 -0.0505  0.7269
15630TIP3   OH268304   1.519   4.738  12.568 -0.0743  0.3882 -1.1377
15630TIP3    H168305   1.501   4.678  12.495 -1.4673  0.7856 -1.1387
15630TIP3    H268306   1.433   4.764  12.600  0.4552 -0.7651  1.5029
15631TIP3   OH268307   5.972   5.602  16.111  0.4194  0.4909  0.2577
15631TIP3    H168308   5.885   5.569  16.091  1.1801 -1.4401 -0.0516
15631TIP3    H268309   6.000   5.647  16.031 -0.5192  1.7225  0.5897
15632TIP3   OH268310   5.546   5.254  14.161 -0.2392 -0.4297  0.2602
15632TIP3    H168311   5.472   5.207  14.124  1.0883 -1.0528 -1.7142
15632TIP3    H268312   5.549   5.336  14.112  0.7210 -0.6669 -0.0890
15633TIP3   OH268313   0.362   1.252  10.841  0.5107  0.0567  0.0231
15633TIP3    H168314   0.290   1.284  10.895 -0.9694 -2.6204 -0.1815
15633TIP3    H268315   0.340   1.283  10.753  1.3957  1.9665  0.4204
15634TIP3   OH268316   4.189   0.692  12.267 -0.0860 -0.5271  0.2465
15634TIP3    H168317   4.182   0.632  12.193  0.9810 -1.1029  0.5910
15634TIP3    H268318   4.256   0.756  12.240 -0.7189  0.1130  0.1569
15635TIP3   OH268319   2.512   5.861  10.881  0.0495  0.1742 -0.1081
15635TIP3    H168320   2.554   5.786  10.839 -0.8761 -0.3391 -0.1466
15635TIP3    H268321   2.430   5.873  10.833  0.8069  2.1257 -1.0490
15636TIP3   OH268322   4.159   6.221   4.963 -0.3483 -0.1166 -0.3323
15636TIP3    H168323   4.178   6.310   4.994  1.2330 -1.1332  1.8805
15636TIP3    H268324   4.245   6.182   4.946 -0.6721 -2.3693  2.4085
15637TIP3   OH268325   2.248   6.197   2.924 -0.3011  1.3922 -0.6268
15637TIP3    H168326   2.163   6.153   2.927  0.8630 -1.1742 -2.1362
15637TIP3    H268327   2.311   6.131   2.955  1.4462  2.1840 -2.2189
15638TIP3   OH268328   2.575   2.938   2.044  0.0164  0.3096 -0.3114
15638TIP3    H168329   2.616   2.864   2.000  0.0963  0.3485 -0.3036
15638TIP3    H268330   2.515   2.898   2.107 -0.2364  0.2567 -0.5840
15639TIP3   OH268331   5.422   4.343  13.763  0.1717 -0.2663 -0.2444
15639TIP3    H168332   5.442   4.280  13.832 -0.3798 -0.6583 -0.4374
15639TIP3    H268333   5.506   4.381  13.740  0.4212 -0.4470  0.3400
15640TIP3   OH268334   1.964   2.275  11.804  0.0473 -0.0073 -0.1672
15640TIP3    H168335   2.005   2.200  11.760  2.6636  0.6032  1.0508
15640TIP3    H268336   2.027   2.301  11.871 -1.0475  2.9225 -0.1474
15641TIP3   OH268337   1.762   5.601  16.830  0.4900 -0.1518 -0.1505
15641TIP3    H168338   1.713   5.648  16.762  1.0253 -0.5871 -0.8458
15641TIP3    H268339   1.711   5.615  16.909 -0.5741 -0.2986 -0.7875
15642TIP3   OH268340   3.730   6.716  15.999 -0.2318 -0.0747  0.3840
15642TIP3    H168341   3.771   6.694  15.915 -1.1267  1.0074 -0.3580
15642TIP3    H268342   3.777   6.793  16.029 -0.7245  0.2806  0.2576
15643TIP3   OH268343   2.124   1.688  15.034 -0.1754  0.0847 -0.5409
15643TIP3    H168344   2.031   1.687  15.009 -0.4476  0.8606  0.3796
15643TIP3    H268345   2.125   1.647  15.120  0.0029  2.0275  0.4345
15644TIP3   OH268346   0.923   4.391   2.560  0.8846  1.0292  0.2065
15644TIP3    H168347   0.959   4.418   2.645 -0.0462  0.5189  0.7923
15644TIP3    H268348   0.881   4.306   2.579  0.9101  0.7784 -0.8311
15645TIP3   OH268349   6.504   2.338  10.631 -0.5063  0.4611  0.2027
15645TIP3    H168350   6.420   2.312  10.593 -0.5678  2.6076 -1.3527
15645TIP3    H268351   6.569   2.308  10.568 -0.1054 -0.8269  1.1987
15646TIP3   OH268352   5.024   6.681  14.085  0.2501  0.0076  0.2361
15646TIP3    H168353   4.945   6.629  14.103  1.3044 -1.7957 -0.0224
15646TIP3    H268354   5.057   6.645  14.002  1.1613  0.9678  0.1661
15647TIP3   OH268355   2.846   4.652   3.074  0.3269  0.1569 -1.0215
15647TIP3    H168356   2.794   4.733   3.069  0.7512  0.6077  0.8873
15647TIP3    H268357   2.905   4.667   3.148  0.1664 -2.0396 -0.3845
15648TIP3   OH268358   2.142   6.305  15.382 -0.2910 -0.3447 -0.7244
15648TIP3    H168359   2.095   6.229  15.350  1.2840 -0.7132 -2.3316
15648TIP3    H268360   2.180   6.277  15.466 -3.8103  0.3768  1.2940
15649TIP3   OH268361   6.281   2.875  11.907  0.1709  0.2696  0.2028
15649TIP3    H168362   6.278   2.836  11.994 -0.4984  2.4861  1.2684
15649TIP3    H268363   6.371   2.862  11.878  0.3225 -0.7724  1.0847
15650TIP3   OH268364   6.055   0.541   6.231  0.0740 -0.7781  0.0086
15650TIP3    H168365   6.117   0.603   6.270  0.8850 -0.6716 -1.3753
15650TIP3    H268366   6.099   0.511   6.151 -0.8972 -2.1010 -0.0495
15651TIP3   OH268367   5.970   6.515   2.046 -0.2623  0.2611  0.1265
15651TIP3    H168368   5.899   6.453   2.057  0.7955 -0.9383  0.4188
15651TIP3    H268369   6.040   6.482   2.102  0.3099  1.7557  0.3381
15652TIP3   OH268370   3.146   4.830   2.268 -0.1546 -0.4617 -0.4727
15652TIP3    H168371   3.180   4.909   2.310  0.8296 -1.3419  0.4642
15652TIP3    H268372   3.061   4.815   2.308 -0.4441  0.2323 -0.8173
15653TIP3   OH268373   1.954   2.715  15.518 -0.0233 -0.1572 -0.0250
15653TIP3    H168374   2.034   2.730  15.568 -0.1125 -0.1279  0.1130
15653TIP3    H268375   1.895   2.784  15.548  0.3573  0.6638 -1.1242
15654TIP3   OH268376   4.604   5.634  12.358  0.0614  0.6696 -0.1245
15654TIP3    H168377   4.586   5.728  12.363  0.7315  0.9015 -1.5758
15654TIP3    H268378   4.538   5.595  12.416 -3.0288  1.7094 -2.6121
15655TIP3   OH268379   1.871   6.751   0.876  0.1325  0.5228 -0.2112
15655TIP3    H168380   1.848   6.839   0.847  2.2043  0.8860 -0.9567
15655TIP3    H268381   1.881   6.758   0.971 -0.9698  0.7660 -0.1094
15656TIP3   OH268382   3.873   2.798  10.610 -0.3683  0.6409  0.1658
15656TIP3    H168383   3.797   2.845  10.576 -1.2484 -1.2137 -0.5990
15656TIP3    H268384   3.857   2.706  10.587  0.3031 -0.3753  3.2305
15657TIP3   OH268385   3.792   0.067  15.194 -0.3541  0.3971  0.1096
15657TIP3    H168386   3.812   0.108  15.277 -0.1075  0.1207  0.1894
15657TIP3    H268387   3.699   0.086  15.179 -0.4524  0.2734  0.5473
15658TIP3   OH268388   3.874   6.504  16.305  0.4690  0.2006 -0.4620
15658TIP3    H168389   3.869   6.562  16.380  0.0544 -0.1872 -0.1864
15658TIP3    H268390   3.919   6.556  16.238 -0.0173  0.8937 -0.2714
15659TIP3   OH268391   2.754   4.106   3.129  0.5880 -0.0660 -0.5941
15659TIP3    H168392   2.772   4.126   3.221 -0.7040  3.5527 -0.9616
15659TIP3    H268393   2.837   4.124   3.085  0.6122  0.4160 -0.3652
15660TIP3   OH268394   6.506   6.292   5.388  0.2100  0.8128 -0.3297
15660TIP3    H168395   6.583   6.235   5.380  0.2799  0.8266  0.2316
15660TIP3    H268396   6.445   6.259   5.322 -0.2351 -0.7057  0.7709
15661TIP3   OH268397   5.798   4.074  16.912 -0.0061 -0.0498 -0.8487
15661TIP3    H168398   5.785   4.039  17.000  0.5936 -0.3185 -0.8582
15661TIP3    H268399   5.890   4.055  16.893 -0.2203 -0.3055 -1.6706
15662TIP3   OH268400   5.722   0.600   3.444 -0.0526  0.0917  0.0083
15662TIP3    H168401   5.699   0.632   3.531 -0.9910 -3.6994  1.3696
15662TIP3    H268402   5.650   0.628   3.388 -0.0156  1.6129  0.6872
15663TIP3   OH268403   5.821   3.229  16.832  0.0209 -0.1849 -0.3178
15663TIP3    H168404   5.735   3.266  16.850  0.2813  0.6694 -0.7990
15663TIP3    H268405   5.803   3.142  16.797 -0.6633  0.1728 -0.8784
15664TIP3   OH268406   0.268   0.427  17.068  0.1635  0.3967  0.0034
15664TIP3    H168407   0.334   0.493  17.088 -1.3234  2.2711 -0.9049
15664TIP3    H268408   0.317   0.356  17.025  1.3456  2.9744 -3.3471
15665TIP3   OH268409   1.013   1.072   1.070  0.1240  0.2767  0.0596
15665TIP3    H168410   0.961   1.153   1.067 -0.7779 -0.2654 -2.9629
15665TIP3    H268411   1.104   1.102   1.073 -0.2218  1.3912  0.0039
15666TIP3   OH268412   0.139   0.972   0.601  0.0581  0.2621  0.1401
15666TIP3    H168413   0.222   0.931   0.626 -0.0488 -0.1977 -0.2522
15666TIP3    H268414   0.110   0.922   0.525 -1.0462 -0.1737  0.8276
15667TIP3   OH268415   6.360   5.377   4.356  0.2563  0.0272 -0.1077
15667TIP3    H168416   6.405   5.452   4.396  2.5637 -0.1680 -2.1163
15667TIP3    H268417   6.331   5.410   4.271 -2.6975 -0.1660  0.6969
15668TIP3   OH268418   4.978   0.771  11.140 -0.4607  0.7540  0.1208
15668TIP3    H168419   4.983   0.675  11.143  1.0812  0.8064  0.1520
15668TIP3    H268420   4.885   0.791  11.146 -0.8641 -0.7708 -0.6551
15669TIP3   OH268421   3.895   2.058  11.095  0.0378  0.7502  0.0208
15669TIP3    H168422   3.884   2.030  11.004 -1.2088  3.1274 -0.6307
15669TIP3    H268423   3.862   1.984  11.147 -0.5643 -0.0852 -1.4938
15670TIP3   OH268424   1.402   4.817   4.540  0.3588  0.0679 -0.3691
15670TIP3    H168425   1.339   4.745   4.546  0.0319  0.4823  3.3904
15670TIP3    H268426   1.478   4.780   4.496 -1.0410 -1.5726 -1.5081
15671TIP3   OH268427   0.916   1.307  10.948 -0.0519 -0.2289  0.2856
15671TIP3    H168428   0.963   1.249  11.007  0.7516  1.7328  1.7050
15671TIP3    H268429   0.978   1.325  10.877 -0.2754 -1.0193 -0.1155
15672TIP3   OH268430   4.568   3.461   0.888  0.1965  0.5482  0.0305
15672TIP3    H168431   4.514   3.538   0.907 -1.4693 -0.8517  1.2804
15672TIP3    H268432   4.530   3.423   0.809 -1.3039 -0.9086  1.3744
15673TIP3   OH268433   3.463   1.795  11.979  0.4566  0.5555  0.5246
15673TIP3    H168434   3.515   1.793  12.059  0.0302 -1.0605  0.7909
15673TIP3    H268435   3.522   1.759  11.912 -0.2993 -1.4578  0.8628
15674TIP3   OH268436   4.522   6.776  15.524 -0.0508 -0.2769 -0.5028
15674TIP3    H168437   4.605   6.821  15.505 -0.6697  0.8891 -0.5840
15674TIP3    H268438   4.535   6.737  15.610 -0.1751  1.9159  0.6013
15675TIP3   OH268439   5.096   4.614  12.529  0.4647 -0.1622  0.5769
15675TIP3    H168440   5.108   4.544  12.592  3.0975 -0.7845 -0.4890
15675TIP3    H268441   5.008   4.646  12.546 -0.1796 -2.5315  2.2775
15676TIP3   OH268442   3.494   2.094  15.675 -0.1904  0.3400  0.1077
15676TIP3    H168443   3.571   2.127  15.723 -1.7072  0.9082  2.3126
15676TIP3    H268444   3.484   2.004  15.706  1.2441 -0.8170 -2.4488
15677TIP3   OH268445   4.812   1.747   0.315  0.5102 -0.2340  0.0750
15677TIP3    H168446   4.731   1.696   0.308  0.3609  0.1249 -1.1813
15677TIP3    H268447   4.794   1.826   0.263  1.5718 -0.0311  0.0003
15678TIP3   OH268448   3.844   3.698  12.473  0.4163 -0.0881  0.0271
15678TIP3    H168449   3.862   3.697  12.379  2.9245  0.2511  0.4490
15678TIP3    H268450   3.884   3.619  12.506  0.9914  0.6077  1.0373
15679TIP3   OH268451   4.172   1.458   5.497 -0.5271  0.3873  0.3907
15679TIP3    H168452   4.099   1.431   5.441  0.0250  0.4083 -0.3572
15679TIP3    H268453   4.246   1.466   5.437  0.4495 -1.0312  1.3320
15680TIP3   OH268454   4.627   5.877   3.470  0.2561 -0.1671 -0.2598
15680TIP3    H168455   4.551   5.915   3.515 -0.5684 -1.1176 -0.8276
15680TIP3    H268456   4.698   5.884   3.533  0.1153  2.1784 -0.2733
15681TIP3   OH268457   5.253   6.046  12.837  0.3489 -0.2018  0.3080
15681TIP3    H168458   5.301   5.984  12.892 -0.5148  1.0512  2.6016
15681TIP3    H268459   5.173   5.999  12.812  0.7389 -0.7717  0.1166
15682TIP3   OH268460   5.108   0.025   4.209  0.1307  0.1525  0.0051
15682TIP3    H168461   5.043   0.016   4.139  1.9654  0.2682 -1.8505
15682TIP3    H268462   5.058   0.022   4.290 -2.3623  2.1120 -1.3303
15683TIP3   OH268463   4.470   2.662  11.833 -0.6454  0.9826  0.1299
15683TIP3    H168464   4.562   2.658  11.807 -0.4341 -0.4222  0.9659
15683TIP3    H268465   4.455   2.753  11.859  0.9256  0.9176  1.3900
15684TIP3   OH268466   3.088   0.422  13.276  0.3919 -0.1408  0.1793
15684TIP3    H168467   3.077   0.459  13.363  1.4551 -0.7356  0.5759
15684TIP3    H268468   3.070   0.329  13.286  1.0347 -0.3052 -0.1229
15685TIP3   OH268469   2.764   4.403  13.981 -0.1499  0.1623  0.0489
15685TIP3    H168470   2.773   4.498  13.990  1.7365 -0.0734  1.2721
15685TIP3    H268471   2.815   4.382  13.902 -0.6207  0.1552 -0.2588
15686TIP3   OH268472   6.355   3.580   3.728  0.7271 -0.1221 -0.0950
15686TIP3    H168473   6.300   3.640   3.779 -0.3925  0.0221 -1.4337
15686TIP3    H268474   6.440   3.624   3.723  0.0456  1.1682 -0.6958
15687TIP3   OH268475   4.615   0.550   3.950  0.5991  0.4999  0.2049
15687TIP3    H168476   4.561   0.537   3.872  1.5124  0.0707 -0.3623
15687TIP3    H268477   4.577   0.627   3.992 -0.2627  0.3938 -0.3442
15688TIP3   OH268478   5.171   6.124  15.443 -0.2392  0.4529 -0.0783
15688TIP3    H168479   5.162   6.158  15.353  1.8498 -0.4634 -0.6867
15688TIP3    H268480   5.152   6.031  15.435  0.0570  0.3472  0.4352
15689TIP3   OH268481   1.267   0.356   4.915  0.0298  0.1789  0.0581
15689TIP3    H168482   1.291   0.378   5.005 -1.4190 -0.0076  0.5045
15689TIP3    H268483   1.189   0.408   4.897 -0.0394 -0.2318 -0.8902
15690TIP3   OH268484   3.008   4.742   2.850  0.2466  0.4632 -0.1574
15690TIP3    H168485   3.050   4.820   2.887  0.1977 -0.0391  1.0204
15690TIP3    H268486   2.940   4.719   2.914 -0.4026  0.0314 -0.9854
15691TIP3   OH268487   6.014   2.770   3.114  0.1144  0.0520 -0.1280
15691TIP3    H168488   6.067   2.846   3.138  1.0349 -0.2031 -1.2198
15691TIP3    H268489   6.044   2.700   3.172  0.0231  0.2412  0.1511
15692TIP3   OH268490   3.251   5.953   5.030  0.0240  0.1596 -0.0489
15692TIP3    H168491   3.337   5.969   4.992  0.0074  0.8757  0.1989
15692TIP3    H268492   3.265   5.883   5.093  0.1067 -0.8506 -1.1540
15693TIP3   OH268493   2.275   3.798  11.631 -0.2480  0.0568  0.0922
15693TIP3    H168494   2.246   3.889  11.620  0.7085  0.2907 -0.7239
15693TIP3    H268495   2.274   3.762  11.543 -0.3990 -0.6634  0.3850
15694TIP3   OH268496   4.905   3.417   6.516  0.3597 -0.1059 -0.0842
15694TIP3    H168497   4.837   3.350   6.522  1.4913 -1.2174  1.0712
15694TIP3    H268498   4.862   3.498   6.541 -0.8765 -0.5056 -0.8437
15695TIP3   OH268499   2.101   2.484  17.128  0.2676  0.3599 -0.0514
15695TIP3    H168500   2.162   2.410  17.128  2.2244  1.8716 -0.0014
15695TIP3    H268501   2.118   2.528  17.211 -3.6890 -1.2206  1.8151
15696TIP3   OH268502   2.755   0.729  12.873  0.4730 -0.1777 -0.1639
15696TIP3    H168503   2.725   0.665  12.809 -0.3083  0.8536 -0.8561
15696TIP3    H268504   2.742   0.814  12.831  0.1473  0.5173  1.2716
15697TIP3   OH268505   2.204   6.408  11.240 -0.6985  0.1133  0.2700
15697TIP3    H168506   2.180   6.467  11.312 -0.8335  1.4478 -0.8429
15697TIP3    H268507   2.133   6.345  11.236 -1.6104  1.1378  0.1222
15698TIP3   OH268508   1.846   6.695  17.094  0.3620 -0.6043  0.5450
15698TIP3    H168509   1.867   6.713  17.185  1.0104 -1.5173  0.5948
15698TIP3    H268510   1.815   6.778  17.058 -0.9450 -0.4744  1.8703
15699TIP3   OH268511   2.917   5.301  14.049  0.4988  0.4784 -0.0326
15699TIP3    H168512   2.945   5.250  13.973 -1.5562 -2.3013  0.9200
15699TIP3    H268513   2.824   5.317  14.035 -0.1118 -0.7419  2.1616
15700TIP3   OH268514   3.077   2.777   1.992 -0.2322 -0.3308  0.0704
15700TIP3    H168515   3.017   2.705   1.971  0.9094 -0.5072 -3.0970
15700TIP3    H268516   3.125   2.746   2.069 -0.8034 -2.3082 -0.3022
15701TIP3   OH268517   5.838   4.559   0.084 -0.1368 -0.1878  0.1099
15701TIP3    H168518   5.848   4.654   0.082  0.3283 -0.2409 -1.4207
15701TIP3    H268519   5.917   4.527   0.129 -0.4399  0.1571  0.8938
15702TIP3   OH268520   0.822   1.659  15.122 -0.0220 -0.4035 -0.2872
15702TIP3    H168521   0.770   1.584  15.148  1.4160 -1.0397  0.8368
15702TIP3    H268522   0.911   1.625  15.111  0.5999  1.0628 -0.0555
15703TIP3   OH268523   1.675   2.089  14.899  0.1284  0.4359 -0.8782
15703TIP3    H168524   1.666   1.998  14.872  3.1115 -0.5963  1.1486
15703TIP3    H268525   1.590   2.111  14.936  0.3911 -2.9681  2.3155
15704TIP3   OH268526   1.905   4.235  16.801  0.0994  0.1480  0.1693
15704TIP3    H168527   1.957   4.207  16.876 -0.9308 -0.5468  0.6428
15704TIP3    H268528   1.888   4.155  16.752  1.7810  0.7344 -1.5318
15705TIP3   OH268529   1.327   5.875   4.216  0.4278 -0.2368  0.0841
15705TIP3    H168530   1.402   5.903   4.268 -0.1144 -0.5196  1.0379
15705TIP3    H268531   1.252   5.921   4.255  0.0675 -0.1477 -0.6978
15706TIP3   OH268532   4.311   6.243  16.144 -0.1803  0.1182 -0.1751
15706TIP3    H168533   4.258   6.317  16.171  0.3275  0.5065 -0.2278
15706TIP3    H268534   4.350   6.270  16.061  2.5373  1.0999  1.2835
15707TIP3   OH268535   6.703   3.018  14.893  0.0714  0.1003 -0.1499
15707TIP3    H168536   6.778   3.070  14.862 -0.6043 -0.1823 -2.4445
15707TIP3    H268537   6.696   2.946  14.831 -2.5456  0.5356 -0.4751
15708TIP3   OH268538   5.119   0.163  13.675 -0.2519  0.1238 -0.0708
15708TIP3    H168539   5.208   0.167  13.642  0.2082 -0.8050  0.9982
15708TIP3    H268540   5.121   0.213  13.756 -0.9457  0.8812 -0.5000
15709TIP3   OH268541   0.524   0.447   3.768  0.0269  0.1619  0.2663
15709TIP3    H168542   0.462   0.519   3.761  1.1272  1.2081  0.9255
15709TIP3    H268543   0.608   0.486   3.745  0.7843 -0.7015  1.4828
15710TIP3   OH268544   3.881   3.625   5.976 -0.6024  0.0262 -0.0924
15710TIP3    H168545   3.831   3.571   6.037  1.3694 -0.2260  1.4363
15710TIP3    H268546   3.905   3.566   5.905  1.1349 -1.0942  1.3312
15711TIP3   OH268547   0.984   4.137   5.225 -0.3369 -0.7804 -0.0762
15711TIP3    H168548   0.916   4.145   5.157 -1.1742 -1.4840  0.6570
15711TIP3    H268549   0.935   4.130   5.307  0.6606 -0.0100  0.6093
15712TIP3   OH268550   4.059   2.064  14.212 -0.0446 -0.2068  0.9352
15712TIP3    H168551   4.108   2.093  14.289  1.0902 -3.0866  1.3966
15712TIP3    H268552   4.008   1.989  14.242 -1.6653  0.2377 -0.5398
15713TIP3   OH268553   6.670   2.436   2.802  0.6674 -0.4025  0.0397
15713TIP3    H168554   6.733   2.364   2.810  1.3420  0.2970  1.3337
15713TIP3    H268555   6.630   2.442   2.888  0.4622  0.6281 -0.1173
15714TIP3   OH268556   4.191   4.001   2.508  0.0201 -0.4622 -0.1367
15714TIP3    H168557   4.153   4.014   2.422  0.2017 -0.3182 -0.1965
15714TIP3    H268558   4.237   4.083   2.527 -0.2177 -0.4011  0.1969
15715TIP3   OH268559   6.065   1.348  16.951  0.1550  0.3114  0.3185
15715TIP3    H168560   6.120   1.427  16.948  0.6932 -0.0451  0.6426
15715TIP3    H268561   6.114   1.287  17.005 -0.4914 -0.0769  0.4740
15716TIP3   OH268562   2.263   6.412  15.124  0.3090  0.4501  0.4528
15716TIP3    H168563   2.209   6.376  15.194 -0.0311 -0.4616 -0.2580
15716TIP3    H268564   2.219   6.386  15.043  1.2964  0.4976 -0.1235
15717TIP3   OH268565   1.863   1.225   6.197  0.1315 -0.1977  0.1111
15717TIP3    H168566   1.808   1.165   6.247  1.1639 -2.0172 -0.8446
15717TIP3    H268567   1.910   1.169   6.135  2.2779  1.4077  0.1807
15718TIP3   OH268568   6.014   4.047  17.093  0.4034  0.4194  0.1804
15718TIP3    H168569   6.086   4.005  17.141 -1.0305 -0.5762  1.5572
15718TIP3    H268570   6.053   4.126  17.056  2.0798  0.1857  1.3265
15719TIP3   OH268571   5.305   1.161  14.025 -0.0581 -0.6455  0.1044
15719TIP3    H168572   5.379   1.109  13.993 -1.5943 -2.4056 -0.8127
15719TIP3    H268573   5.343   1.244  14.050  2.4260 -1.9053  0.8418
15720TIP3   OH268574   1.398   1.198  11.046 -0.0394 -0.2258 -0.7712
15720TIP3    H168575   1.444   1.168  11.124  2.8420  2.4284 -1.2932
15720TIP3    H268576   1.465   1.202  10.978 -1.2037  2.8339 -1.8804
15721TIP3   OH268577   4.015   1.106   2.944 -0.3919 -0.3555 -0.1547
15721TIP3    H168578   4.040   1.197   2.929 -2.4635  0.1560 -0.7456
15721TIP3    H268579   3.961   1.107   3.023 -0.6481 -1.0298 -0.3080
15722TIP3   OH268580   0.357   2.799   3.713  0.9500  0.0696 -0.2416
15722TIP3    H168581   0.316   2.736   3.771 -1.0686  0.3235 -1.2967
15722TIP3    H268582   0.353   2.759   3.626  2.7465  0.2323 -0.4452
15723TIP3   OH268583   4.017   3.550   6.639  0.1917  0.2361  0.0032
15723TIP3    H168584   4.037   3.550   6.732  0.6512  1.8894 -0.0556
15723TIP3    H268585   4.102   3.546   6.595  0.0240  0.2905 -0.3350
15724TIP3   OH268586   4.411   2.981  12.829  0.2402  0.1457 -0.1321
15724TIP3    H168587   4.367   2.904  12.794 -0.1375 -0.5202  1.6770
15724TIP3    H268588   4.460   3.017  12.755  1.7627 -2.7718 -0.6968
15725TIP3   OH268589   4.876   5.935  13.421 -0.4467  0.2804  0.5179
15725TIP3    H168590   4.783   5.915  13.408 -0.1805 -0.6543 -0.0044
15725TIP3    H268591   4.887   6.022  13.382 -0.4643 -0.8823 -2.2649
15726TIP3   OH268592   0.273   3.890  11.989 -0.0272  0.1249 -0.4255
15726TIP3    H168593   0.341   3.957  11.975  0.1564  0.1355  0.4438
15726TIP3    H268594   0.205   3.912  11.926  0.7087  0.2137 -1.2067
15727TIP3   OH268595   4.727   3.219  13.559 -0.2868 -0.9374 -0.5550
15727TIP3    H168596   4.644   3.195  13.520 -1.1156  0.7718  0.0385
15727TIP3    H268597   4.726   3.315  13.561  0.2894 -0.8993  2.3499
15728TIP3   OH268598   2.472   5.195  11.736 -0.0995  0.1132  0.0290
15728TIP3    H168599   2.393   5.243  11.761 -0.5062 -1.1050  1.2521
15728TIP3    H268600   2.543   5.257  11.750 -0.7251  0.7659  0.3724
15729TIP3   OH268601   5.364   3.199  14.045  0.1839 -0.0765  0.0057
15729TIP3    H168602   5.285   3.233  14.087  0.5074  0.0700  0.5071
15729TIP3    H268603   5.350   3.105  14.039  0.5956 -0.2687  1.4996
15730TIP3   OH268604   5.724   2.100  15.333  0.0378  0.4657  0.3194
15730TIP3    H168605   5.782   2.166  15.369 -2.4309  2.7701  0.3602
15730TIP3    H268606   5.646   2.148  15.305 -0.6854 -2.0177 -2.5197
15731TIP3   OH268607   4.490   4.973   6.029 -0.5338  0.0654  0.1656
15731TIP3    H168608   4.518   4.953   6.119 -0.1203  0.5272  0.1419
15731TIP3    H268609   4.463   5.065   6.033 -1.5830 -0.2255  0.0697
15732TIP3   OH268610   5.963   0.349  13.664 -0.1810  0.3755  0.3235
15732TIP3    H168611   5.983   0.302  13.584  2.0898  0.7085  0.6476
15732TIP3    H268612   5.973   0.442  13.642  0.7058  0.4642  1.0125
15733TIP3   OH268613   1.142   3.631   2.034 -0.2651  0.0278 -0.3432
15733TIP3    H168614   1.119   3.547   1.995 -1.8184  0.6835 -0.9326
15733TIP3    H268615   1.066   3.687   2.016  0.7794  1.5937 -0.0818
15734TIP3   OH268616   6.160   0.277   1.642  0.4814  0.3763  0.1480
15734TIP3    H168617   6.252   0.259   1.662  0.3997  0.0990  0.2775
15734TIP3    H268618   6.131   0.201   1.591  0.5583  0.8589 -0.6308
15735TIP3   OH268619   5.136   2.920  16.980 -0.0725 -0.1557 -0.1607
15735TIP3    H168620   5.155   2.967  17.061  1.3962 -1.2259  0.1522
15735TIP3    H268621   5.041   2.922  16.973 -0.2232 -0.0070  1.5708
15736TIP3   OH268622   0.821   3.301  13.491 -0.3094 -0.8375  0.3704
15736TIP3    H168623   0.858   3.379  13.451 -0.0770 -1.3704 -0.4599
15736TIP3    H268624   0.821   3.320  13.585  0.0038  0.0417  0.1978
15737TIP3   OH268625   5.963   0.107   3.211  0.2288 -0.0994  0.0781
15737TIP3    H168626   5.908   0.125   3.286  1.0852 -0.5800  0.8439
15737TIP3    H268627   5.905   0.115   3.135 -1.2698 -1.9784  0.9352
15738TIP3   OH268628   5.143   4.387  17.037 -0.5949 -0.2003  0.2738
15738TIP3    H168629   5.227   4.348  17.061 -0.4123  0.5188  0.8551
15738TIP3    H268630   5.140   4.383  16.941  0.2108 -0.0120  0.2404
15739TIP3   OH268631   1.619   5.476   2.480 -0.0806 -0.1306  0.0408
15739TIP3    H168632   1.647   5.493   2.570 -0.5077 -0.8662  0.3269
15739TIP3    H268633   1.679   5.408   2.449  0.3078  0.3924 -0.3677
15740TIP3   OH268634   0.318   6.054  13.554  0.5488 -0.1161  0.1473
15740TIP3    H168635   0.407   6.022  13.568  0.6413 -0.0493 -0.2874
15740TIP3    H268636   0.310   6.129  13.613  0.2746 -1.0231  1.3052
15741TIP3   OH268637   4.794   0.320  12.955 -0.0406  0.0491 -0.2316
15741TIP3    H168638   4.709   0.309  12.914 -0.7274 -1.8727  1.5786
15741TIP3    H268639   4.850   0.255  12.913 -0.0311 -0.1347  0.0681
15742TIP3   OH268640   5.514   1.961  12.197 -0.3451 -0.1744  0.1818
15742TIP3    H168641   5.443   1.904  12.226 -0.2754 -0.6196 -0.5120
15742TIP3    H268642   5.580   1.901  12.163 -1.5209  0.3603 -3.4671
15743TIP3   OH268643   1.177   2.922  15.819 -0.4282  0.3909 -0.3841
15743TIP3    H168644   1.252   2.959  15.865 -1.0764  0.7717  0.3855
15743TIP3    H268645   1.150   2.990  15.757  0.5409 -0.1814 -1.4932
15744TIP3   OH268646   4.764   6.653   6.506 -0.0023  0.2093 -0.5310
15744TIP3    H168647   4.729   6.570   6.472 -0.9526  0.2981  0.1872
15744TIP3    H268648   4.856   6.635   6.524  0.3466 -0.0711 -2.3576
15745TIP3   OH268649   4.190   3.723   4.111  0.3873  0.0911  0.1393
15745TIP3    H168650   4.138   3.782   4.056  3.2843 -0.6850 -3.8246
15745TIP3    H268651   4.150   3.637   4.098  0.9889 -0.0701 -0.6787
15746TIP3   OH268652   1.508   4.714   2.312 -0.1492 -0.0745 -0.6254
15746TIP3    H168653   1.528   4.655   2.386 -0.8971 -1.6894 -1.6411
15746TIP3    H268654   1.414   4.701   2.297  0.0805 -0.1111 -2.1333
15747TIP3   OH268655   4.079   5.720  13.082  0.2007  0.1267  0.6155
15747TIP3    H168656   4.016   5.649  13.092 -0.2556  0.5794  0.9889
15747TIP3    H268657   4.111   5.710  12.992 -1.3133  0.6313 -0.0124
15748TIP3   OH268658   2.102   1.633  11.347  0.2304  0.4872 -0.1285
15748TIP3    H168659   2.043   1.560  11.331  1.8882 -0.8682 -0.3466
15748TIP3    H268660   2.138   1.615  11.434  3.5059 -1.1417 -1.6500
15749TIP3   OH268661   0.329   3.235  10.479 -0.2384 -0.0358 -0.2400
15749TIP3    H168662   0.322   3.324  10.444  0.6157 -0.2048 -0.9004
15749TIP3    H268663   0.423   3.217  10.478 -0.3400 -0.6797  0.5926
15750TIP3   OH268664   0.030   1.237   3.273  0.1827 -0.3132  0.4227
15750TIP3    H168665  -0.038   1.304   3.285  0.3675  0.0662 -0.5221
15750TIP3    H268666   0.013   1.172   3.340 -0.8265  0.0231  0.4989
15751TIP3   OH268667   3.334   3.287   1.442 -0.0951  0.0010 -0.3192
15751TIP3    H168668   3.367   3.318   1.357  1.4337  1.2419  0.6795
15751TIP3    H268669   3.294   3.365   1.481  2.3942  0.4395  1.5706
15752TIP3   OH268670   5.082   0.535  14.023 -0.1265  0.0698 -0.6392
15752TIP3    H168671   5.076   0.631  14.024 -0.4873  0.0503  0.4748
15752TIP3    H268672   5.017   0.506  14.087  2.1791 -0.7683  1.4559
15753TIP3   OH268673   6.101   3.475   1.313 -0.4372  0.0286 -0.1265
15753TIP3    H168674   6.182   3.522   1.291  1.0758 -1.8831  0.9976
15753TIP3    H268675   6.077   3.508   1.400  0.6021 -1.1513  0.6449
15754TIP3   OH268676   0.848   4.879   2.682 -0.2230 -0.3718 -0.1837
15754TIP3    H168677   0.884   4.834   2.758 -0.3762  0.4018  0.3657
15754TIP3    H268678   0.900   4.848   2.609 -0.9880 -2.2058  0.0095
15755TIP3   OH268679   5.017   3.601   6.265  0.1130 -0.7587  0.5664
15755TIP3    H168680   5.046   3.672   6.322  1.5029  0.4195 -1.4503
15755TIP3    H268681   4.958   3.644   6.203 -2.2516 -2.2149  1.6886
15756TIP3   OH268682   1.643   3.711  12.188  0.6266 -0.1956  0.6021
15756TIP3    H168683   1.719   3.715  12.130  0.7701 -2.7618  0.4789
15756TIP3    H268684   1.676   3.670  12.268 -0.4658 -0.7210  0.8087
15757TIP3   OH268685   5.551   4.767  11.702  0.1301  0.2110 -0.4580
15757TIP3    H168686   5.494   4.840  11.680  1.3689  2.0377  1.9026
15757TIP3    H268687   5.505   4.722  11.774  0.1866 -0.2654 -0.7163
15758TIP3   OH268688   4.922   6.165   3.243  0.8137 -0.2069 -0.1740
15758TIP3    H168689   4.837   6.202   3.216 -0.4431 -1.3702  1.9561
15758TIP3    H268690   4.986   6.218   3.195 -1.0299  1.9527 -0.4762
15759TIP3   OH268691   1.246   5.001   2.427  0.2629 -0.3850 -0.0435
15759TIP3    H168692   1.300   4.980   2.351 -0.3866 -2.0876 -0.0856
15759TIP3    H268693   1.218   5.091   2.412  2.6961  0.4107 -0.2173
15760TIP3   OH268694   1.213   0.203   5.372 -0.0832 -0.2455 -0.0468
15760TIP3    H168695   1.118   0.211   5.360  0.0088  1.5695  0.1320
15760TIP3    H268696   1.238   0.128   5.318 -1.3498  0.5250 -1.8061
15761TIP3   OH268697   5.310   2.355  11.336  0.2280 -0.0822  0.6510
15761TIP3    H168698   5.296   2.411  11.260  1.2791 -2.0258 -1.0658
15761TIP3    H268699   5.402   2.365  11.357  0.3190 -0.7987  0.6175
15762TIP3   OH268700   5.996   6.029   5.524  0.0622 -0.5138 -0.3045
15762TIP3    H168701   5.917   6.076   5.498 -0.8792 -1.6724  0.3687
15762TIP3    H268702   6.050   6.027   5.445  0.1633  1.6887 -0.3511
15763TIP3   OH268703   5.373   0.982  16.753 -0.0759  0.4308  0.8912
15763TIP3    H168704   5.324   0.970  16.672 -1.0468  0.2049  1.4922
15763TIP3    H268705   5.396   0.893  16.781 -2.5966  0.1559  2.5264
15764TIP3   OH268706   1.267   2.295  15.665 -0.5206 -0.4536 -0.1976
15764TIP3    H168707   1.234   2.364  15.723  0.2161 -0.4376  0.2240
15764TIP3    H268708   1.286   2.222  15.723  1.6560  0.0733 -0.1354
15765TIP3   OH268709   0.762   1.399  15.174 -0.5656 -0.9071 -0.2051
15765TIP3    H168710   0.722   1.399  15.261 -0.6453  1.2580 -0.1914
15765TIP3    H268711   0.852   1.371  15.190 -0.3236  0.3328  0.7295
15766TIP3   OH268712   0.970   1.422   4.180  0.0296  0.3893 -0.6874
15766TIP3    H168713   1.029   1.497   4.175 -0.0815  0.6338  0.9940
15766TIP3    H268714   1.028   1.345   4.176  0.4467  0.6212  0.5044
15767TIP3   OH268715   6.366   4.710   0.184  0.3242  0.1039  0.2720
15767TIP3    H168716   6.428   4.780   0.202 -0.4745  1.1078 -0.7152
15767TIP3    H268717   6.417   4.643   0.138  1.1456 -0.0978  1.4401
15768TIP3   OH268718   0.858   2.083   6.222 -0.7606 -0.2275 -0.0934
15768TIP3    H168719   0.775   2.059   6.181 -0.9534  0.2715  0.0029
15768TIP3    H268720   0.852   2.178   6.236 -0.0516 -0.1313 -0.3774
15769TIP3   OH268721   3.977   2.136   4.036  0.5225  0.2374 -0.0683
15769TIP3    H168722   4.026   2.141   3.954 -0.6578 -1.7141 -0.9680
15769TIP3    H268723   3.994   2.220   4.079  0.3509  1.7814 -2.7795
15770TIP3   OH268724   0.029   3.933  12.968 -0.1078  0.2648  0.2178
15770TIP3    H168725   0.082   3.873  13.021  0.8328  0.8046 -0.0949
15770TIP3    H268726   0.007   3.882  12.890  1.9551  0.7717 -0.7515
15771TIP3   OH268727   0.495   3.172   5.223 -0.9422 -0.3786  0.2659
15771TIP3    H168728   0.514   3.078   5.220 -0.3790 -0.2574 -0.1275
15771TIP3    H268729   0.569   3.210   5.269 -0.5725  0.0071 -0.6195
15772TIP3   OH268730   0.157   2.512   5.641  0.1379 -0.6872  0.0273
15772TIP3    H168731   0.170   2.554   5.726  0.0367  0.9099 -0.7058
15772TIP3    H268732   0.088   2.448   5.657  0.0580 -0.3527  1.1334
15773TIP3   OH268733   1.332   5.109  14.216  0.2433 -0.3599 -0.2888
15773TIP3    H168734   1.310   5.202  14.213  0.2543 -0.3305  0.4670
15773TIP3    H268735   1.266   5.071  14.274 -0.1422 -0.9334 -1.0850
15774TIP3   OH268736   5.030   4.220  13.514 -0.3958  0.0870 -0.1064
15774TIP3    H168737   5.012   4.155  13.445 -1.6908  0.2787  0.0395
15774TIP3    H268738   4.963   4.204  13.581 -1.6569  2.4480 -0.6925
15775TIP3   OH268739   4.545   4.154   1.969 -0.2305  0.0294  0.0682
15775TIP3    H168740   4.526   4.126   1.879  1.3049  0.7452 -0.5179
15775TIP3    H268741   4.567   4.247   1.961 -1.5453  0.4893  1.4326
15776TIP3   OH268742   4.800   2.365   3.352 -0.2323 -0.3111 -0.4722
15776TIP3    H168743   4.775   2.311   3.427 -0.5132 -0.1479 -0.4473
15776TIP3    H268744   4.859   2.310   3.301  1.9607  0.4159  1.1330
15777TIP3   OH268745   4.204   1.556  12.571 -0.5464 -0.1622  0.7424
15777TIP3    H168746   4.149   1.518  12.639 -2.0455 -0.1297 -0.3837
15777TIP3    H268747   4.145   1.615  12.523  0.5352  0.0498 -0.3885
15778TIP3   OH268748   2.896   2.379   1.713  0.1455 -0.5681 -0.8318
15778TIP3    H168749   2.833   2.428   1.659 -0.5033  0.3624  0.7143
15778TIP3    H268750   2.883   2.288   1.688 -1.3837 -0.3282 -0.9808
15779TIP3   OH268751   1.526   2.251   5.440  0.4820 -0.1339 -0.2233
15779TIP3    H168752   1.545   2.184   5.375 -1.4170  0.1996 -1.1623
15779TIP3    H268753   1.601   2.247   5.500  1.0228 -2.2027 -0.9558
15780TIP3   OH268754   2.593   2.657   0.755  0.1988 -1.0050 -0.2686
15780TIP3    H168755   2.612   2.572   0.716 -0.5401  0.1063 -3.3800
15780TIP3    H268756   2.678   2.697   0.768  0.5499 -0.3116 -3.7288
15781TIP3   OH268757   1.361   6.743  17.073  0.0188  0.0269  0.3230
15781TIP3    H168758   1.287   6.691  17.102 -0.8106  1.1175  0.2147
15781TIP3    H268759   1.436   6.683  17.079 -0.8547 -1.0954  0.4109
15782TIP3   OH268760   2.076   5.275   3.311  0.3783 -0.3529 -0.4334
15782TIP3    H168761   2.048   5.365   3.325  0.8165 -0.3941  0.8013
15782TIP3    H268762   2.153   5.265   3.366  0.8026 -1.2566 -1.1609
15783TIP3   OH268763   2.229   1.382  16.344  0.1650 -0.2605 -0.3883
15783TIP3    H168764   2.144   1.418  16.369  0.9355  1.4878 -0.1370
15783TIP3    H268765   2.268   1.353  16.427 -0.2192 -1.2210 -0.5227
15784TIP3   OH268766   0.753   4.437   4.543 -0.0185  0.2409 -0.0831
15784TIP3    H168767   0.817   4.422   4.613 -1.6221 -1.7147  1.0538
15784TIP3    H268768   0.791   4.395   4.466  0.6164  0.1951  0.2507
15785TIP3   OH268769   3.606   1.011   6.657 -0.1346  0.0732  0.1168
15785TIP3    H168770   3.565   0.925   6.659 -1.3357  0.6243  0.4130
15785TIP3    H268771   3.538   1.071   6.689  0.1822  1.3316 -1.4172
15786TIP3   OH268772   2.834   0.540  12.322  0.5562  0.5326 -0.1802
15786TIP3    H168773   2.814   0.616  12.268  0.1553  0.3556 -0.2849
15786TIP3    H268774   2.855   0.471  12.259  0.9090  0.5517 -0.0858
15787TIP3   OH268775   6.398   3.768  15.247 -0.8314 -0.3223 -0.2734
15787TIP3    H168776   6.372   3.770  15.339 -0.5890  0.4938 -0.2109
15787TIP3    H268777   6.447   3.850  15.235  0.0552 -0.9267 -0.8608
15788TIP3   OH268778   6.671   3.060  11.286 -0.5882 -0.0633 -0.0930
15788TIP3    H168779   6.647   2.995  11.220 -0.5800  0.3001 -0.4581
15788TIP3    H268780   6.766   3.066  11.279 -0.5989  0.0620 -0.1332
15789TIP3   OH268781   5.794   4.878  11.873  0.9011  0.6407  0.6834
15789TIP3    H168782   5.705   4.859  11.843  0.1633 -0.5118  3.3224
15789TIP3    H268783   5.833   4.791  11.889  2.8648  1.0794 -1.2264
15790TIP3   OH268784   3.136   2.979   3.371  0.2864 -0.4164 -0.1265
15790TIP3    H168785   3.130   2.915   3.442  3.3040  0.0296  0.6979
15790TIP3    H268786   3.104   3.060   3.409 -0.5616 -0.7349 -0.1465
15791TIP3   OH268787   0.748   6.609  11.553 -0.4003 -0.0668  0.9890
15791TIP3    H168788   0.739   6.545  11.624  0.8734  0.2379  1.4572
15791TIP3    H268789   0.843   6.624  11.547 -0.3949 -0.6414 -1.2669
15792TIP3   OH268790   2.947   2.757  12.379 -0.0376  0.1246  0.0365
15792TIP3    H168791   2.927   2.802  12.298  0.2413  1.1009  0.4960
15792TIP3    H268792   3.043   2.748  12.379 -0.1199 -0.8950 -0.2641
15793TIP3   OH268793   3.110   0.144   2.413  0.6201 -0.3519  0.3325
15793TIP3    H168794   3.189   0.144   2.358  0.3596 -0.3775 -0.0445
15793TIP3    H268795   3.066   0.062   2.391 -0.5262  0.5597 -0.9301
15794TIP3   OH268796   1.396   4.666  14.176  0.0953 -0.3609 -0.2658
15794TIP3    H168797   1.380   4.583  14.131  0.5002 -1.3828  1.3678
15794TIP3    H268798   1.491   4.674  14.179  0.2337 -1.6596  2.5464
15795TIP3   OH268799   3.381   5.758  15.848 -0.1459 -0.1399 -0.0059
15795TIP3    H168800   3.315   5.827  15.850  0.4769  0.5003 -0.9100
15795TIP3    H268801   3.443   5.782  15.916  0.2635  0.3981 -0.5628
15796TIP3   OH268802   4.716   2.713  13.361  0.5515 -0.1438  0.4865
15796TIP3    H168803   4.748   2.802  13.376  1.2645 -0.6786  2.5065
15796TIP3    H268804   4.623   2.725  13.338  1.1337  1.1917 -1.4056
15797TIP3   OH268805   3.158   3.663   0.994 -0.2000  0.1067  0.1325
15797TIP3    H168806   3.138   3.591   1.054 -0.0702 -0.6172 -0.6715
15797TIP3    H268807   3.222   3.626   0.933  0.5001  1.1564  0.1926
15798TIP3   OH268808   0.925   6.708   4.598 -0.2146 -0.2099  0.3706
15798TIP3    H168809   0.897   6.787   4.644  1.2304 -0.3043  1.4971
15798TIP3    H268810   0.853   6.646   4.610  0.3880 -0.4901  3.2450
15799TIP3   OH268811   1.918   2.758   0.084  0.0209  0.0601 -0.4692
15799TIP3    H168812   1.854   2.808   0.136  2.3044  0.4334  2.2286
15799TIP3    H268813   1.893   2.667   0.098 -1.2097  0.2483 -1.2986
15800TIP3   OH268814   0.375   5.333   1.882  0.2708  0.0245 -0.6348
15800TIP3    H168815   0.358   5.423   1.910  2.2630  0.4580 -0.6802
15800TIP3    H268816   0.297   5.284   1.908 -0.1272  1.4260  0.9498
15801TIP3   OH268817   3.895   1.129   4.493 -0.4155 -0.2171 -0.1190
15801TIP3    H168818   3.973   1.155   4.444 -0.6780 -0.9787 -0.9699
15801TIP3    H268819   3.863   1.051   4.447 -1.3883 -0.2074  0.5209
15802TIP3   OH268820   6.577   5.308   0.244  1.5499 -0.3358  0.1111
15802TIP3    H168821   6.505   5.341   0.298  0.5342 -1.1202 -0.7195
15802TIP3    H268822   6.572   5.213   0.253 -0.4082 -0.7474 -3.3916
15803TIP3   OH268823   4.907   2.137  16.578  0.1228  0.0347  0.1547
15803TIP3    H168824   4.982   2.138  16.518 -0.0505  0.6013 -0.0592
15803TIP3    H268825   4.942   2.172  16.660  0.6380 -1.7718  0.7495
15804TIP3   OH268826   1.199   2.308  13.606 -0.5313  0.4961 -0.6544
15804TIP3    H168827   1.261   2.247  13.566 -1.2441 -0.7383  0.0693
15804TIP3    H268828   1.185   2.375  13.539  0.8107  0.2667 -1.1977
15805TIP3   OH268829   0.399   2.063  11.337 -0.8107 -0.4836 -0.4757
15805TIP3    H168830   0.409   1.971  11.359 -0.8566  0.1391  2.6723
15805TIP3    H268831   0.323   2.092  11.387  0.9205  1.8511  1.0457
15806TIP3   OH268832   6.764   4.461  11.186 -0.1102  0.0204 -0.0259
15806TIP3    H168833   6.758   4.376  11.229  2.3038 -0.7959 -1.0935
15806TIP3    H268834   6.726   4.447  11.099 -1.3287  0.5715  0.3909
15807TIP3   OH268835   5.850   6.460   1.632 -0.5272 -0.1977  0.0300
15807TIP3    H168836   5.755   6.458   1.624 -0.5168 -1.3305  0.1148
15807TIP3    H268837   5.871   6.554   1.639 -1.6297  0.0606  0.0793
15808TIP3   OH268838   6.232   4.646   2.538  0.2674 -0.7152 -1.0941
15808TIP3    H168839   6.141   4.657   2.567  0.3281 -2.3605 -0.1274
15808TIP3    H268840   6.236   4.555   2.507  1.3513 -0.3603 -2.0556
15809TIP3   OH268841   2.280   0.874  12.732 -0.2463 -0.3366 -0.0484
15809TIP3    H168842   2.298   0.958  12.774 -1.1286 -0.8890  1.5229
15809TIP3    H268843   2.271   0.895  12.639 -0.3938  1.2894  0.3032
15810TIP3   OH268844   4.682   4.173  13.478 -0.2438  0.1491 -0.3096
15810TIP3    H168845   4.671   4.093  13.528 -1.3337  0.6445  0.2977
15810TIP3    H268846   4.604   4.176  13.422  1.1499 -0.6217 -2.4214
15811TIP3   OH268847   5.561   0.893  10.688 -0.4741  0.0362  0.3059
15811TIP3    H168848   5.633   0.951  10.714 -0.4832  0.2774 -0.2091
15811TIP3    H268849   5.526   0.861  10.771  0.4177 -0.3243  0.5673
15812TIP3   OH268850   2.336   5.384   5.046 -0.9941 -0.2923  0.5022
15812TIP3    H168851   2.378   5.359   5.128 -1.4094  1.4488  1.2907
15812TIP3    H268852   2.407   5.422   4.993 -0.8164 -1.0041  0.2164
15813TIP3   OH268853   2.346   4.588   0.749 -0.5528  0.8026 -0.0814
15813TIP3    H168854   2.260   4.580   0.707 -0.6612  0.8193  0.1359
15813TIP3    H268855   2.409   4.581   0.677 -0.7843  2.8792 -0.5529
15814TIP3   OH268856   3.780   5.722  13.505  0.1921  0.0950 -0.0258
15814TIP3    H168857   3.809   5.811  13.489 -1.0536  0.1168 -2.7954
15814TIP3    H268858   3.695   5.716  13.461 -0.4538 -2.0550  1.3327
15815TIP3   OH268859   0.642   3.599   1.350  0.1013  0.1876  0.3936
15815TIP3    H168860   0.547   3.589   1.337  0.3213  0.0424 -1.2279
15815TIP3    H268861   0.660   3.691   1.329  0.1892  0.5190  1.7744
15816TIP3   OH268862   1.503   4.766   3.835  0.1547 -0.2013  0.3453
15816TIP3    H168863   1.477   4.766   3.927 -3.3314  2.8864 -0.4364
15816TIP3    H268864   1.513   4.858   3.812 -1.2599 -0.7135 -2.8660
15817TIP3   OH268865   4.846   2.369   5.894  0.5799  0.1693 -0.7852
15817TIP3    H168866   4.855   2.310   5.818 -1.2906 -0.1892 -0.7803
15817TIP3    H268867   4.850   2.310   5.969  0.2473  0.2368 -0.7140
15818TIP3   OH268868   6.382   3.402   3.280 -0.0795  0.7418  0.1857
15818TIP3    H168869   6.354   3.488   3.250 -3.9320 -0.4050 -0.1233
15818TIP3    H268870   6.332   3.386   3.360  0.5349 -1.1654  0.2537
15819TIP3   OH268871   2.599   4.338   5.219  0.0250  0.1756 -0.0957
15819TIP3    H168872   2.506   4.348   5.238  0.0498  0.3270 -0.0588
15819TIP3    H268873   2.607   4.357   5.126 -0.0493 -0.2781 -0.2009
15820TIP3   OH268874   4.242   2.673   4.418 -0.1189  0.1666  0.0351
15820TIP3    H168875   4.165   2.722   4.447  0.6691  0.3116  2.0543
15820TIP3    H268876   4.309   2.695   4.482  1.4203 -0.4785 -1.3030
15821TIP3   OH268877   5.564   3.800   0.812 -0.2227  0.5507  0.6630
15821TIP3    H168878   5.569   3.720   0.863 -0.2451  1.4211  2.0856
15821TIP3    H268879   5.655   3.828   0.800 -0.2306  2.9089  4.5438
15822TIP3   OH268880   1.777   3.389  16.380 -0.5272 -0.2753  0.3294
15822TIP3    H168881   1.691   3.427  16.360 -1.7436 -3.8632 -2.2435
15822TIP3    H268882   1.825   3.395  16.297  0.7395 -0.6438  1.0189
15823TIP3   OH268883   1.245   0.959   5.088 -0.5962  0.4158  0.0587
15823TIP3    H168884   1.291   1.039   5.063 -0.5377  0.4365  0.2299
15823TIP3    H268885   1.154   0.975   5.060 -0.3535  0.0611 -0.9796
15824TIP3   OH268886   2.040   6.704   5.584 -0.2261  0.2197  0.5068
15824TIP3    H168887   1.998   6.627   5.621 -1.1503 -0.4707 -1.8409
15824TIP3    H268888   2.110   6.669   5.530  0.7743  1.1795  1.1386
15825TIP3   OH268889   6.716   6.717   1.791 -0.0063  0.2177 -0.9403
15825TIP3    H168890   6.687   6.671   1.713 -1.4298  0.4128 -0.5567
15825TIP3    H268891   6.760   6.795   1.759 -2.1220  1.2103 -1.5699
15826TIP3   OH268892   2.252   3.663   5.298 -0.4328 -0.2004 -0.5425
15826TIP3    H168893   2.234   3.699   5.211  0.7536  0.1121 -0.6738
15826TIP3    H268894   2.201   3.582   5.302 -0.8212 -0.0016 -1.3663
15827TIP3   OH268895   0.531   3.686  16.764  0.0630 -0.5796  0.7604
15827TIP3    H168896   0.447   3.719  16.795  0.0781 -0.1753  0.3979
15827TIP3    H268897   0.595   3.723  16.825  0.2469  1.5183 -0.6068
15828TIP3   OH268898   1.867   0.857  14.746  0.2812  0.1054  0.1977
15828TIP3    H168899   1.878   0.767  14.718  1.3191 -0.0784  1.1526
15828TIP3    H268900   1.808   0.852  14.822  1.2358  0.0845  0.9620
15829TIP3   OH268901   2.003   4.503   2.430 -0.2179 -0.9874  0.4950
15829TIP3    H168902   2.085   4.458   2.452 -0.7253 -0.8452  2.9716
15829TIP3    H268903   1.936   4.456   2.481 -1.5131 -0.3796 -0.5925
15830TIP3   OH268904   4.598   0.005   1.962  0.3346 -0.2611  0.3189
15830TIP3    H168905   4.647  -0.019   1.883  1.3378 -0.4255  0.9804
15830TIP3    H268906   4.599   0.101   1.962  1.6422 -0.2566  0.9090
15831TIP3   OH268907   3.942   4.615  11.839  0.4982  0.0614  0.6648
15831TIP3    H168908   3.849   4.618  11.820  0.6078 -0.6566 -0.0756
15831TIP3    H268909   3.979   4.690  11.793  0.0427  1.5423  2.6115
15832TIP3   OH268910   6.122   4.898  13.681  0.1077 -0.1412  0.2457
15832TIP3    H168911   6.057   4.868  13.745 -0.7574  2.8644  0.9056
15832TIP3    H268912   6.192   4.936  13.734  1.0269 -0.6939 -0.5453
15833TIP3   OH268913   4.244   2.252   0.293 -0.4146 -0.2196  0.0402
15833TIP3    H168914   4.328   2.232   0.336 -0.9310 -0.8481  0.7817
15833TIP3    H268915   4.264   2.325   0.235  0.1490  1.1942  1.9123
15834TIP3   OH268916   4.922   4.601   4.836  0.4389 -0.1335  0.3510
15834TIP3    H168917   5.013   4.617   4.861 -0.6304  2.8572  2.9296
15834TIP3    H268918   4.886   4.551   4.910  0.0648 -1.8296 -0.9275
15835TIP3   OH268919   2.305   6.105  14.974  0.4682 -0.2457 -0.3762
15835TIP3    H168920   2.234   6.106  15.039  0.6225 -4.2980  0.0775
15835TIP3    H268921   2.260   6.106  14.890  0.0285 -0.2683 -0.1463
15836TIP3   OH268922   4.189   3.312  14.160  0.0152  0.3758  0.0895
15836TIP3    H168923   4.225   3.392  14.200  0.6990  0.3441 -0.4612
15836TIP3    H268924   4.095   3.330  14.154  0.1773  1.2086 -0.1621
15837TIP3   OH268925   5.948   0.180  14.674 -0.0013  0.1145 -0.7569
15837TIP3    H168926   5.874   0.226  14.635 -1.2659 -1.3412 -0.1673
15837TIP3    H268927   5.939   0.196  14.768  1.0322  0.7355 -0.7433
15838TIP3   OH268928   3.512   0.485  13.939  0.3853 -0.1500 -0.1353
15838TIP3    H168929   3.552   0.494  13.853  0.0049 -2.9836 -0.7285
15838TIP3    H268930   3.569   0.422  13.985 -1.4918 -1.7157  0.1923
15839TIP3   OH268931   1.860   1.694  15.836 -0.0367 -0.2075 -0.1406
15839TIP3    H168932   1.834   1.602  15.838  0.0210 -0.2221  0.0099
15839TIP3    H268933   1.922   1.702  15.909 -1.6876  0.4335  1.2593
15840TIP3   OH268934   0.633   0.537   0.610 -0.1869  0.6754  0.0614
15840TIP3    H168935   0.574   0.496   0.547  0.5561  1.2109 -1.0224
15840TIP3    H268936   0.681   0.602   0.558  0.0614  1.5147  1.3012
15841TIP3   OH268937   6.004   5.575  15.202  0.4268  0.2733 -0.1120
15841TIP3    H168938   5.944   5.564  15.128  0.2180  0.6658 -0.0067
15841TIP3    H268939   5.962   5.643  15.256  0.7564  0.2454  0.1794
15842TIP3   OH268940   1.569   6.748   5.544 -0.0003  0.2004 -0.1482
15842TIP3    H168941   1.495   6.808   5.558 -0.0714 -0.0661  0.7273
15842TIP3    H268942   1.550   6.674   5.602  0.1622 -0.6107 -1.0984
15843TIP3   OH268943   1.233   4.799   2.073 -0.5766 -0.0806  0.2269
15843TIP3    H168944   1.297   4.848   2.124 -0.6029 -1.3016  1.4658
15843TIP3    H268945   1.257   4.817   1.982  0.3067  1.0344  0.6526
15844TIP3   OH268946   3.437   5.196  11.170  0.2161 -0.2825 -0.8003
15844TIP3    H168947   3.479   5.178  11.086  3.0298 -0.0409  0.4508
15844TIP3    H268948   3.480   5.276  11.202 -0.5565 -0.5479  1.0188
15845TIP3   OH268949   2.757   6.556   6.641 -0.2093 -0.4976  0.2097
15845TIP3    H168950   2.706   6.521   6.568  0.5990  0.1893 -0.7115
15845TIP3    H268951   2.847   6.560   6.607 -0.0488  1.1336  0.7549
15846TIP3   OH268952   2.055   5.746   5.744 -0.1903  0.2430  0.2868
15846TIP3    H168953   2.105   5.720   5.667 -2.0366 -1.2242 -0.4971
15846TIP3    H268954   2.078   5.682   5.811 -0.6779 -0.2028  0.0418
15847TIP3   OH268955   0.561   6.205  12.743 -0.2133  0.3489 -0.5495
15847TIP3    H168956   0.483   6.217  12.797  1.1171  0.8360  1.3174
15847TIP3    H268957   0.544   6.122  12.697 -0.8127 -0.8666  1.6906
15848TIP3   OH268958   4.529   0.260   3.132  0.2116 -0.5038 -0.3772
15848TIP3    H168959   4.622   0.264   3.151 -0.0571 -1.0511  1.2474
15848TIP3    H268960   4.521   0.286   3.041  2.0362 -1.2924 -0.7898
15849TIP3   OH268961   1.116   3.354  10.968 -0.0670 -0.5962  0.2645
15849TIP3    H168962   1.112   3.373  10.874  2.5482 -1.8015 -0.2038
15849TIP3    H268963   1.077   3.267  10.976 -0.7872 -0.2671  0.4070
15850TIP3   OH268964   4.554   5.953  15.988 -0.5286 -0.1866 -1.1034
15850TIP3    H168965   4.556   6.041  16.026  1.1285 -0.1558 -1.1832
15850TIP3    H268966   4.486   5.908  16.037 -0.3428  0.6855  0.0094
15851TIP3   OH268967   3.199   3.737  16.385 -0.5596 -0.2503 -0.0937
15851TIP3    H168968   3.247   3.663  16.421 -1.2464 -1.1335 -0.9632
15851TIP3    H268969   3.116   3.738  16.431 -0.0831  0.7779  0.8125
15852TIP3   OH268970   5.451   1.924  11.512  0.0937  0.0469 -0.4017
15852TIP3    H168971   5.477   1.834  11.492  1.0436  0.2007  0.0451
15852TIP3    H268972   5.474   1.974  11.433  1.2999  0.1920  0.0091
15853TIP3   OH268973   2.155   5.451  12.412  0.1887 -0.0589 -0.5245
15853TIP3    H168974   2.226   5.473  12.472  0.5852 -0.1156 -0.9714
15853TIP3    H268975   2.076   5.461  12.465  0.5141  0.1657 -0.0696
15854TIP3   OH268976   4.260   3.939  17.193 -0.1793  0.3528 -0.0162
15854TIP3    H168977   4.313   3.860  17.181  0.5451  0.8405 -0.0568
15854TIP3    H268978   4.323   4.010  17.196 -0.8177  0.9192  0.1971
15855TIP3   OH268979   2.053   0.401   5.351  0.3392 -1.2343 -0.3541
15855TIP3    H168980   1.979   0.341   5.362 -0.5378 -0.1357 -0.0891
15855TIP3    H268981   2.049   0.427   5.259 -0.5941  0.0293  0.0094
15856TIP3   OH268982   3.987   5.070  13.930 -0.2653 -0.1984 -0.2891
15856TIP3    H168983   3.943   5.094  14.011  1.1594 -0.7778  0.7089
15856TIP3    H268984   4.028   5.151  13.900 -0.2953 -0.1119 -0.0959
15857TIP3   OH268985   5.454   2.748  11.210 -0.3599  0.1114  0.2530
15857TIP3    H168986   5.398   2.826  11.218 -0.2937  0.0199  1.9565
15857TIP3    H268987   5.526   2.776  11.153 -0.8493  0.9886  0.0474
15858TIP3   OH268988   5.127   6.438  11.416 -0.2455  0.5484  0.1121
15858TIP3    H168989   5.043   6.481  11.430 -1.9649 -2.1784 -0.9596
15858TIP3    H268990   5.126   6.413  11.324  0.8616 -1.1588  0.5034
15859TIP3   OH268991   5.662   0.156  14.337  0.2310 -0.1915  0.1225
15859TIP3    H168992   5.682   0.238  14.291 -0.6147 -1.3950 -2.5989
15859TIP3    H268993   5.619   0.183  14.417 -0.8587  2.0488 -1.1331
15860TIP3   OH268994   2.043   5.153  16.440 -0.4375  0.3095 -0.0966
15860TIP3    H168995   2.044   5.062  16.410 -0.1989  0.0152  0.7721
15860TIP3    H268996   2.097   5.153  16.519 -0.7150  1.1414  0.1049
15861TIP3   OH268997   5.126   1.969  12.408  0.3839  0.0883 -0.2165
15861TIP3    H168998   5.196   2.034  12.400  0.0357  0.4438 -0.4151
15861TIP3    H268999   5.125   1.923  12.325 -0.4256  0.9190 -0.6910
15862TIP3   OH269000   5.567   5.409  12.431 -0.1626 -0.1096 -0.0465
15862TIP3    H169001   5.553   5.419  12.526 -1.2509 -0.4225 -0.1546
15862TIP3    H269002   5.609   5.490  12.404 -0.4494  0.2604  0.5999
15863TIP3   OH269003   2.901   4.576   1.013  0.6162  0.3532  0.0902
15863TIP3    H169004   2.984   4.591   1.059  0.3425 -0.4290  0.8521
15863TIP3    H269005   2.922   4.513   0.945  0.3555 -1.0115  1.2397
15864TIP3   OH269006   1.131   0.666  15.594  0.4624  0.1618 -0.1549
15864TIP3    H169007   1.111   0.605  15.523 -1.1544  0.5489 -0.0589
15864TIP3    H269008   1.156   0.610  15.667  1.4345 -0.2682 -0.7920
15865TIP3   OH269009   1.515   0.846   0.090 -0.2425  0.5006  0.6154
15865TIP3    H169010   1.546   0.936   0.077 -1.7664  1.0251  0.4034
15865TIP3    H269011   1.431   0.856   0.135 -0.1574 -0.8543  1.1168
15866TIP3   OH269012   1.541   5.122   4.044  0.0532  0.0906  0.2530
15866TIP3    H169013   1.551   5.105   3.950 -1.8084  1.3598 -0.2362
15866TIP3    H269014   1.584   5.207   4.056  1.3788 -0.6300  0.8445
15867TIP3   OH269015   5.047   4.510   6.710  0.3998 -0.1275 -0.0129
15867TIP3    H169016   5.032   4.583   6.650 -0.1661 -0.0533  0.2136
15867TIP3    H269017   4.961   4.471   6.722  0.6789 -0.7612 -0.0359
15868TIP3   OH269018   2.759   3.841  11.527  0.1786  0.1212  0.2528
15868TIP3    H169019   2.803   3.883  11.453 -0.4233 -1.1516 -0.8840
15868TIP3    H269020   2.808   3.869  11.604  0.9559  1.3226 -0.6513
15869TIP3   OH269021   0.626   0.122  12.110  0.1535 -0.3453 -0.2582
15869TIP3    H169022   0.550   0.080  12.149 -0.5483 -0.3752 -1.5987
15869TIP3    H269023   0.688   0.051  12.094  0.1772 -0.4249  0.1764
15870TIP3   OH269024   0.232   1.543  14.068  0.1482  0.1415 -0.2501
15870TIP3    H169025   0.183   1.595  14.132  1.5656 -0.4945  1.4350
15870TIP3    H269026   0.174   1.470  14.046 -0.8849  1.0858 -0.7745
15871TIP3   OH269027   2.926   2.274  17.091  0.0243 -0.1018  0.7081
15871TIP3    H169028   2.974   2.333  17.150  2.8393 -1.5121 -0.0145
15871TIP3    H269029   2.932   2.317  17.006  1.2912 -0.9472  0.3522
15872TIP3   OH269030   6.695   6.271   4.559  0.8240  0.0833 -0.0994
15872TIP3    H169031   6.725   6.181   4.553  0.3571 -0.0243 -0.9040
15872TIP3    H269032   6.691   6.302   4.469 -0.1353  0.5378  0.0836
15873TIP3   OH269033   4.220   1.662   1.404  0.1827 -0.3899  0.3927
15873TIP3    H169034   4.164   1.649   1.327  0.9189  2.8982 -0.8627
15873TIP3    H269035   4.160   1.691   1.473 -0.1123 -0.6114  0.2360
15874TIP3   OH269036   3.865   6.530   4.245 -0.4015  0.5177  0.6190
15874TIP3    H169037   3.827   6.445   4.221 -1.4299  0.9714  0.5838
15874TIP3    H269038   3.896   6.518   4.335  2.2564 -0.7953 -0.3589
15875TIP3   OH269039   0.710   6.541   0.478 -0.1597 -0.0549 -0.1847
15875TIP3    H169040   0.635   6.513   0.530 -1.2330 -0.1461 -1.7294
15875TIP3    H269041   0.709   6.484   0.401  2.1652 -0.8115  0.2645
15876TIP3   OH269042   1.231   6.683  11.832 -0.4306 -0.0948  0.3407
15876TIP3    H169043   1.297   6.624  11.797 -0.4260  0.6662 -1.0087
15876TIP3    H269044   1.258   6.698  11.922 -0.6962 -2.4944  0.8820
15877TIP3   OH269045   3.734   6.641   0.758  0.0396 -0.4366  0.1204
15877TIP3    H169046   3.682   6.601   0.828 -0.0220 -0.3593  0.1193
15877TIP3    H269047   3.772   6.719   0.799 -1.1765  0.4258 -0.3388
15878TIP3   OH269048   5.656   0.941   3.382  0.8737  0.1553  0.1082
15878TIP3    H169049   5.584   0.921   3.442  0.2490 -0.8576 -0.9515
15878TIP3    H269050   5.729   0.963   3.439  0.7464 -2.2560  1.3386
15879TIP3   OH269051   0.355   2.188  15.103 -0.4282  0.0924  0.4481
15879TIP3    H169052   0.339   2.282  15.109 -1.5526  0.0323 -1.0156
15879TIP3    H269053   0.429   2.179  15.044 -0.9202  0.0444 -0.1747
15880TIP3   OH269054   2.332   3.605   5.595  0.2250  0.4645  0.2024
15880TIP3    H169055   2.297   3.629   5.509  2.2247  0.5895 -0.6115
15880TIP3    H269056   2.286   3.524   5.618  1.1211 -0.7407 -1.9631
15881TIP3   OH269057   1.202   4.827   4.159 -0.6695 -0.4560  0.5435
15881TIP3    H169058   1.239   4.910   4.191  0.0607 -1.2821  1.9285
15881TIP3    H269059   1.275   4.783   4.115 -0.8825 -0.6620  0.3932
15882TIP3   OH269060   3.744   2.542  16.109  0.4068  0.1110  0.0707
15882TIP3    H169061   3.717   2.496  16.190 -2.0073 -0.3121 -0.8791
15882TIP3    H269062   3.663   2.579  16.075  1.0374 -1.0168 -2.9618
15883TIP3   OH269063   4.382   5.640   4.757  0.5469 -0.3575  0.0822
15883TIP3    H169064   4.458   5.674   4.710  0.9711 -0.8407  0.4055
15883TIP3    H269065   4.331   5.717   4.781  0.2154 -0.0949 -1.3246
15884TIP3   OH269066   3.185   0.489  14.218 -0.1752 -0.4825  0.2869
15884TIP3    H169067   3.155   0.507  14.129 -1.1804 -0.0662  0.6887
15884TIP3    H269068   3.154   0.563  14.269 -1.2644 -1.5923  1.3144
15885TIP3   OH269069   1.485   2.529  15.056  0.2211  0.5201 -0.5559
15885TIP3    H169070   1.477   2.621  15.030  0.5929  0.9368  0.7099
15885TIP3    H269071   1.432   2.522  15.135  0.4979 -0.2613 -0.4335
15886TIP3   OH269072   5.359   2.005   6.696  0.3723  0.2805 -0.4334
15886TIP3    H169073   5.266   2.008   6.674 -0.3404 -1.4786  1.8744
15886TIP3    H269074   5.373   2.081   6.752  0.2288  0.3956 -0.5557
15887TIP3   OH269075   0.244   1.793   3.717 -0.3446 -0.5382  0.7883
15887TIP3    H169076   0.291   1.764   3.639  0.6811 -0.6043  1.4098
15887TIP3    H269077   0.241   1.716   3.774  0.7232  0.0409  1.6585
15888TIP3   OH269078   6.127   3.234   4.663 -0.2466 -0.1857  0.0508
15888TIP3    H169079   6.112   3.296   4.735 -0.7885  1.3725 -1.3339
15888TIP3    H269080   6.125   3.148   4.705 -2.4326  0.5405  1.6548
15889TIP3   OH269081   3.776   5.349  12.205 -0.4321  0.5049  0.7927
15889TIP3    H169082   3.729   5.408  12.145 -0.0069 -0.0672 -0.1301
15889TIP3    H269083   3.767   5.263  12.165  0.9587  0.3036  0.8647
15890TIP3   OH269084   0.813   2.025  15.951  0.0083 -0.0483 -0.5795
15890TIP3    H169085   0.856   2.110  15.940  0.1504  0.0962  0.7957
15890TIP3    H269086   0.774   2.006  15.866 -0.1945  1.4947 -0.8669
15891TIP3   OH269087   4.835   0.991  14.994  0.0799 -0.0684  0.5817
15891TIP3    H169088   4.765   0.984  14.930  0.1176  1.5519  0.3178
15891TIP3    H269089   4.905   0.936  14.959  0.0275  0.6464 -0.7000
15892TIP3   OH269090   5.363   2.261  11.865  0.0074  0.3813  0.7117
15892TIP3    H169091   5.298   2.320  11.828 -0.3291 -1.4077 -1.8009
15892TIP3    H269092   5.446   2.290  11.826 -0.1452 -0.6546 -0.4500
15893TIP3   OH269093   2.138   2.799  10.608 -0.3688 -0.0781  0.1675
15893TIP3    H169094   2.215   2.763  10.653 -0.3681  1.3217  1.3768
15893TIP3    H269095   2.133   2.890  10.639 -3.2004 -0.4610  1.1030
15894TIP3   OH269096   0.432   0.647  13.959 -0.2892 -0.1595  0.7600
15894TIP3    H169097   0.400   0.610  13.877 -0.1538 -0.7580  0.9765
15894TIP3    H269098   0.526   0.659  13.945 -0.5448  1.4250  0.1912
15895TIP3   OH269099   4.056   1.151   3.560 -0.0238  0.0159  0.2299
15895TIP3    H169100   4.116   1.197   3.620  0.6688 -0.6999  0.1077
15895TIP3    H269101   4.043   1.065   3.600 -0.9976  0.1699  0.2598
15896TIP3   OH269102   6.305   5.835   5.785 -0.1450  0.1658 -0.6755
15896TIP3    H169103   6.299   5.760   5.725 -2.1105 -0.6326  0.4457
15896TIP3    H269104   6.370   5.892   5.744  1.2444 -2.0046 -1.7029
15897TIP3   OH269105   6.389   1.888  13.585 -0.3952 -0.8227  0.2420
15897TIP3    H169106   6.311   1.910  13.636  0.0806 -2.0990  1.5873
15897TIP3    H269107   6.462   1.920  13.638  0.0842 -1.4598 -0.0223
15898TIP3   OH269108   1.034   4.795  10.846 -0.0921  0.9336 -0.5851
15898TIP3    H169109   0.943   4.800  10.875  0.1145 -1.7560  0.8236
15898TIP3    H269110   1.038   4.719  10.789  1.1974  1.2637 -0.9784
15899TIP3   OH269111   0.264   4.181   2.494  0.1538 -0.2870 -0.2115
15899TIP3    H169112   0.224   4.126   2.426 -1.2165  0.3706  0.0119
15899TIP3    H269113   0.199   4.251   2.508  1.5073  0.9622  0.0350
15900TIP3   OH269114   1.241   5.224   2.049 -0.1751 -0.1814 -0.5534
15900TIP3    H169115   1.162   5.276   2.068 -0.0361  0.6579 -2.0752
15900TIP3    H269116   1.268   5.254   1.962  1.3936 -1.0089 -0.3791
15901TIP3   OH269117   6.104   0.371   4.309  0.3257  0.1000  0.3892
15901TIP3    H169118   6.136   0.407   4.392 -0.2769  1.2063  0.1666
15901TIP3    H269119   6.163   0.408   4.244 -1.0759  1.8401  0.0155
15902TIP3   OH269120   4.075   1.480  12.986 -0.4990  0.4037  0.1187
15902TIP3    H169121   4.017   1.417  13.029  0.2413  0.0462  0.6260
15902TIP3    H269122   4.097   1.438  12.903  2.0508 -1.3327  1.4870
15903TIP3   OH269123   1.870   5.085   1.419 -0.3021  0.1159  0.3168
15903TIP3    H169124   1.821   5.122   1.492  0.4297 -3.6649  2.9926
15903TIP3    H269125   1.958   5.124   1.427 -0.4368  0.2928  0.9577
15904TIP3   OH269126   1.074   4.779  12.734 -0.0235 -0.2956 -0.0189
15904TIP3    H169127   1.020   4.722  12.789  1.3392 -0.5183  1.1482
15904TIP3    H269128   1.072   4.739  12.648 -1.4740 -0.4477  0.0572
15905TIP3   OH269129   0.115   1.434  14.845  0.3530  0.0005  0.5435
15905TIP3    H169130   0.090   1.526  14.845 -0.5996 -0.2341 -0.3597
15905TIP3    H269131   0.041   1.389  14.804  1.5644 -0.9256 -0.7450
15906TIP3   OH269132   4.992   0.565  14.289 -0.3076 -0.5199 -0.0405
15906TIP3    H169133   5.026   0.654  14.299 -2.7262  0.4755  0.0131
15906TIP3    H269134   5.021   0.519  14.369 -0.8034  0.8685  0.9785
15907TIP3   OH269135   2.177   3.414  14.982  0.6664 -0.2891 -0.1943
15907TIP3    H169136   2.106   3.349  14.983 -0.0225  0.4519 -0.2331
15907TIP3    H269137   2.189   3.434  14.889  0.0626  0.4930 -0.1197
15908TIP3   OH269138   4.046   1.042   5.913 -0.0973 -0.3463  0.9203
15908TIP3    H169139   3.979   0.977   5.934 -1.0148  0.2361 -0.1215
15908TIP3    H269140   4.111   1.032   5.982 -1.2672 -0.9151  1.9869
15909TIP3   OH269141   5.565   5.885  16.687 -0.5284 -0.2654 -0.0233
15909TIP3    H169142   5.498   5.926  16.632 -1.0928 -0.1698  0.7133
15909TIP3    H269143   5.535   5.795  16.698  0.3730 -0.7170 -1.1022
15910TIP3   OH269144   0.200   6.634   2.075 -0.2768  0.7141  0.1934
15910TIP3    H169145   0.123   6.659   2.126 -0.9464 -1.0336  0.1138
15910TIP3    H269146   0.234   6.556   2.120  1.4578  1.4321  0.2134
15911TIP3   OH269147   5.373   4.545  11.347  0.3187  0.0325  0.5564
15911TIP3    H169148   5.371   4.458  11.309  0.4731  0.8936 -1.5375
15911TIP3    H269149   5.371   4.530  11.442  2.0160 -2.2731  0.3055
15912TIP3   OH269150   3.105   4.017  15.249  0.0479  0.4541 -0.2581
15912TIP3    H169151   3.087   4.108  15.226  0.5661  0.6071 -0.0686
15912TIP3    H269152   3.152   3.983  15.173  0.3717  0.5113 -0.0829
15913TIP3   OH269153   2.190   2.490  15.619  0.0779  0.0615  0.1721
15913TIP3    H169154   2.180   2.411  15.564 -2.0702  1.0852 -1.0478
15913TIP3    H269155   2.106   2.498  15.664  0.6158  1.1585  1.0232
15914TIP3   OH269156   2.065   2.092  11.635  0.2847 -0.0748 -0.2126
15914TIP3    H169157   2.053   1.998  11.623  1.8748 -0.3956  0.4208
15914TIP3    H269158   2.101   2.122  11.551 -0.4564  0.0268 -0.5004
15915TIP3   OH269159   5.077   6.714   0.962 -0.6481 -0.4546 -0.2136
15915TIP3    H169160   5.070   6.657   0.885 -0.9648 -0.3509 -0.2621
15915TIP3    H269161   5.165   6.751   0.956 -0.2321 -1.3628  0.1135
15916TIP3   OH269162   6.012   0.496  12.206 -0.2231  0.8210  0.7687
15916TIP3    H169163   6.088   0.526  12.155  1.4538 -0.8089  2.1476
15916TIP3    H269164   5.990   0.571  12.261  0.1343  1.4620  0.0624
15917TIP3   OH269165   5.095   1.290  14.162 -0.2720  0.1065 -0.2824
15917TIP3    H169166   5.011   1.266  14.200  0.3127 -1.2070  0.2573
15917TIP3    H269167   5.119   1.215  14.107  0.5935  0.4153 -0.3432
15918TIP3   OH269168   5.781   5.701  14.694  0.2582  0.3946 -0.2247
15918TIP3    H169169   5.843   5.716  14.622  1.4755  1.6894  1.0268
15918TIP3    H269170   5.697   5.687  14.650  1.1874 -0.1774 -1.9384
15919TIP3   OH269171   4.679   2.897  12.060 -0.1022  1.0311  0.1226
15919TIP3    H169172   4.669   2.926  11.970 -0.0317  0.2791 -0.1303
15919TIP3    H269173   4.592   2.867  12.086  0.3352 -0.8590 -0.4496
15920TIP3   OH269174   1.958   4.299  13.883 -0.3741 -0.8098 -0.2475
15920TIP3    H169175   2.045   4.317  13.849 -1.5169  2.5642 -1.7394
15920TIP3    H269176   1.906   4.276  13.806 -1.1025 -1.7509  0.4918
15921TIP3   OH269177   2.877   6.130   2.274 -0.1325 -0.5018 -0.2213
15921TIP3    H169178   2.869   6.226   2.270  0.4055 -0.4443 -0.0210
15921TIP3    H269179   2.838   6.106   2.358  1.1489 -0.2877  0.4633
15922TIP3   OH269180   6.411   0.905   4.078 -0.1599 -0.0168  0.2496
15922TIP3    H169181   6.473   0.846   4.121  0.6677  0.5647 -0.1331
15922TIP3    H269182   6.414   0.985   4.129  2.3742  1.4445 -1.9587
15923TIP3   OH269183   5.080   3.780  16.426  0.0633 -0.0418 -0.5830
15923TIP3    H169184   5.119   3.867  16.430  1.2491 -0.4287 -2.6432
15923TIP3    H269185   4.993   3.795  16.388  0.5038  0.1996 -1.5208
15924TIP3   OH269186   3.125   2.784  14.748  0.1390 -0.1071  0.1001
15924TIP3    H169187   3.134   2.872  14.784 -1.7503 -1.0685  3.3758
15924TIP3    H269188   3.035   2.780  14.716 -0.7544 -1.5189  2.5025
15925TIP3   OH269189   0.963   3.812  12.387  0.1665  0.0426 -0.5728
15925TIP3    H169190   0.945   3.737  12.445  1.8146 -0.8684 -1.1442
15925TIP3    H269191   1.026   3.777  12.323  0.6864  1.8378 -1.0866
15926TIP3   OH269192   3.605   3.683   2.258 -0.0452  0.3647  0.1206
15926TIP3    H169193   3.578   3.762   2.305  0.8930  1.1178 -0.5740
15926TIP3    H269194   3.528   3.658   2.207  0.1585  1.8473 -0.9834
15927TIP3   OH269195   3.667   1.300   6.209  0.3869  0.2289  0.2525
15927TIP3    H169196   3.747   1.316   6.260  0.9594 -1.0157 -0.2217
15927TIP3    H269197   3.641   1.386   6.177  1.8174  0.5949  0.0149
15928TIP3   OH269198   1.426   4.695   4.090  0.2886 -0.0675  0.0045
15928TIP3    H169199   1.510   4.736   4.110 -1.0101  2.1037  1.4206
15928TIP3    H269200   1.424   4.616   4.145  0.9981  0.3941  0.7212
15929TIP3   OH269201   0.535   1.878   3.804  0.1124  0.2935 -0.6053
15929TIP3    H169202   0.567   1.945   3.864 -0.8784  1.3794 -1.2449
15929TIP3    H269203   0.440   1.888   3.804 -0.2899 -2.4949  0.8534
15930TIP3   OH269204   3.140   4.292  15.922  0.3652 -0.3896 -0.3721
15930TIP3    H169205   3.147   4.240  16.002 -0.7521 -0.8355 -0.5494
15930TIP3    H269206   3.052   4.274  15.889 -0.2024  1.8858 -0.2604
15931TIP3   OH269207   5.611   2.814   0.378 -0.0884 -0.3220  0.4778
15931TIP3    H169208   5.629   2.810   0.472  0.9367  1.9488  0.4563
15931TIP3    H269209   5.515   2.806   0.371 -0.0397 -2.2098  1.5334
15932TIP3   OH269210   4.702   4.101  14.059 -0.3814 -0.3663  0.0782
15932TIP3    H169211   4.760   4.177  14.058 -0.9071  0.0410  0.1918
15932TIP3    H269212   4.762   4.026  14.064  0.2553 -0.0925 -2.2386
15933TIP3   OH269213   6.285   0.182  12.051 -0.1703 -0.7227 -0.3971
15933TIP3    H169214   6.237   0.260  12.024  3.3352  1.7244 -0.2483
15933TIP3    H269215   6.235   0.147  12.125 -0.6122  2.9820  1.2849
15934TIP3   OH269216   2.196   4.001   2.305  0.2887 -0.2174 -0.0677
15934TIP3    H169217   2.259   4.039   2.244 -0.1421 -0.4424 -0.6605
15934TIP3    H269218   2.207   3.906   2.294  0.4396 -0.2625  0.4498
15935TIP3   OH269219   3.703   0.093   0.361 -0.1406  0.0612  0.1402
15935TIP3    H169220   3.724   0.183   0.387 -0.3949  0.5099 -1.1321
15935TIP3    H269221   3.616   0.077   0.399  1.1360 -0.7942  2.9935
15936TIP3   OH269222   5.805   4.495  14.143  0.4801  0.3702 -0.7844
15936TIP3    H169223   5.876   4.548  14.180  0.8683 -0.8969  0.3543
15936TIP3    H269224   5.751   4.558  14.094  1.5945  1.5925 -0.4922
15937TIP3   OH269225   3.152   4.170  12.050  0.4603 -0.5405  0.3751
15937TIP3    H169226   3.142   4.085  12.008  0.4634 -0.7964  0.8915
15937TIP3    H269227   3.208   4.220  11.991  0.9764 -1.1062  0.3836
15938TIP3   OH269228   6.761   1.608  15.751  0.3589 -0.6616  0.1344
15938TIP3    H169229   6.832   1.567  15.702  0.4258  0.3539 -0.6698
15938TIP3    H269230   6.770   1.575  15.840  2.1543 -0.1651  0.1761
15939TIP3   OH269231   1.767   4.643  14.809 -0.0112  0.8691 -0.2913
15939TIP3    H169232   1.679   4.664  14.839 -0.3675  0.4279 -0.9749
15939TIP3    H269233   1.805   4.590  14.879 -0.4280  0.7564 -0.1474
15940TIP3   OH269234   2.542   5.204   1.085  0.2682  0.6153 -0.0291
15940TIP3    H169235   2.566   5.122   1.128  1.7346  0.2738 -1.4142
15940TIP3    H269236   2.619   5.260   1.094  0.6760  0.4891 -2.2469
15941TIP3   OH269237   4.058   2.777  15.121 -0.5059  0.4398  0.1121
15941TIP3    H169238   4.097   2.857  15.086  1.6508 -0.6418 -0.1113
15941TIP3    H269239   4.035   2.725  15.044 -0.4249  0.1851  0.2560
15942TIP3   OH269240   2.066   2.357  14.737 -0.2499  0.2200 -0.2666
15942TIP3    H169241   2.155   2.325  14.751 -0.6612 -2.8666 -3.2767
15942TIP3    H269242   2.012   2.304  14.796 -0.3226 -0.0559 -0.5739
15943TIP3   OH269243   4.897   3.815  16.240 -0.0472  0.1712  0.1636
15943TIP3    H169244   4.940   3.887  16.194  1.2319  0.7248  2.0983
15943TIP3    H269245   4.816   3.800  16.192  0.5120  1.6998 -1.3314
15944TIP3   OH269246   4.337   2.955   2.273  0.3857  0.1872  0.2383
15944TIP3    H169247   4.273   2.884   2.269 -0.5558  0.9702  0.9898
15944TIP3    H269248   4.289   3.029   2.309  1.5855  0.9607  0.3127
15945TIP3   OH269249   3.595   5.183  13.036 -0.0776 -0.4874  0.3767
15945TIP3    H169250   3.629   5.262  12.993 -1.3049 -0.9762 -1.6569
15945TIP3    H269251   3.504   5.203  13.056 -0.8010 -1.7408 -1.3604
15946TIP3   OH269252   4.738   0.709   3.716  0.0347 -0.6339 -0.4666
15946TIP3    H169253   4.685   0.698   3.637 -0.8839 -2.2334  0.3363
15946TIP3    H269254   4.793   0.631   3.720  1.1693  0.1444 -0.2969
15947TIP3   OH269255   6.362   3.269  14.818 -0.3535  0.2522 -0.1235
15947TIP3    H169256   6.388   3.323  14.892 -3.2902  2.5847 -0.5725
15947TIP3    H269257   6.336   3.186  14.857 -0.4100  0.9013  1.2724
15948TIP3   OH269258   5.427   2.429   3.942 -0.6584  0.0720  0.2031
15948TIP3    H169259   5.342   2.398   3.910 -0.1408 -0.5073 -0.6513
15948TIP3    H269260   5.489   2.405   3.873  0.0697  1.3261  0.3833
15949TIP3   OH269261   6.226   3.768  12.833  0.1801 -0.2335  0.1919
15949TIP3    H169262   6.262   3.834  12.892  0.5517 -0.5352  0.3124
15949TIP3    H269263   6.270   3.687  12.859 -0.7035 -0.6390  0.4261
15950TIP3   OH269264   6.614   0.497   4.101  0.6345 -0.1848  0.0911
15950TIP3    H169265   6.659   0.438   4.162 -0.9689 -1.1703  0.3833
15950TIP3    H269266   6.685   0.538   4.051  1.9468 -0.2250  1.7899
15951TIP3   OH269267   2.832   3.494  11.229 -0.0352 -0.1781 -0.2946
15951TIP3    H169268   2.837   3.432  11.156 -0.7890 -0.1309 -0.3991
15951TIP3    H269269   2.811   3.439  11.305 -0.3470 -0.1032 -0.3225
15952TIP3   OH269270   5.233   4.423   2.304  0.2938 -0.5527 -0.0256
15952TIP3    H169271   5.170   4.471   2.251  1.6757 -0.3573 -1.5721
15952TIP3    H269272   5.185   4.345   2.332 -0.8888 -0.0028 -0.4364
15953TIP3   OH269273   3.128   5.571  16.286 -0.9736 -0.1371 -0.3387
15953TIP3    H169274   3.145   5.665  16.284 -0.2761 -0.2548 -0.1701
15953TIP3    H269275   3.132   5.544  16.195 -1.6718  0.0767 -0.4384
15954TIP3   OH269276   4.065   3.233  14.790 -0.0727 -0.1545  0.0919
15954TIP3    H169277   3.993   3.293  14.771  1.0110  1.4529  0.8585
15954TIP3    H269278   4.138   3.265  14.736  0.5017 -0.8226  0.4584
15955TIP3   OH269279   1.937   2.752   0.813 -0.3615  0.2359 -0.3839
15955TIP3    H169280   1.866   2.698   0.846  0.0130  0.0286  0.0921
15955TIP3    H269281   1.972   2.702   0.739 -0.4120  0.1186 -0.3288
15956TIP3   OH269282   5.388   3.981  13.302 -0.2676 -0.8461 -0.7388
15956TIP3    H169283   5.338   4.049  13.257 -0.4056  0.3572  1.1445
15956TIP3    H269284   5.322   3.915  13.326 -0.3045 -1.1379 -1.5963
15957TIP3   OH269285   2.062   4.569   3.578 -0.8832 -0.1026  0.2013
15957TIP3    H169286   2.104   4.647   3.614 -0.0853 -0.3205 -0.2325
15957TIP3    H269287   1.969   4.581   3.597 -0.5100 -0.2559  2.3818
15958TIP3   OH269288   2.135   2.353   4.929  0.6360 -0.1611 -0.1034
15958TIP3    H169289   2.169   2.284   4.986  0.9981  0.4837  0.4754
15958TIP3    H269290   2.117   2.426   4.988 -0.6175 -0.0667 -0.5765
15959TIP3   OH269291   5.259   1.714  13.543 -0.2419 -0.2953  0.0798
15959TIP3    H169292   5.175   1.670  13.534  0.3654 -1.7063  0.9592
15959TIP3    H269293   5.238   1.798  13.583 -1.1342 -1.1934  1.5958
15960TIP3   OH269294   3.985   5.154   2.996 -0.2082 -0.2224 -0.1448
15960TIP3    H169295   4.073   5.151   3.033 -1.2170  0.6036  2.5869
15960TIP3    H269296   3.969   5.066   2.963  1.6661 -0.3339 -0.8194
15961TIP3   OH269297   0.824   1.331   1.420  0.2366 -0.2678 -0.0030
15961TIP3    H169298   0.757   1.360   1.483  1.1232 -0.8716  1.2641
15961TIP3    H269299   0.776   1.314   1.340 -0.7817  1.5913  0.1631
15962TIP3   OH269300   3.794   5.221   3.920  0.1974 -0.2389  0.2654
15962TIP3    H169301   3.833   5.154   3.977  3.2462  2.6285  1.8861
15962TIP3    H269302   3.732   5.267   3.976 -1.3823 -1.1597 -0.6486
15963TIP3   OH269303   5.287   2.789  13.652 -0.0287 -0.3454  0.1479
15963TIP3    H169304   5.335   2.808  13.571 -1.4089 -0.8680 -0.8320
15963TIP3    H269305   5.348   2.735  13.703  0.1660 -1.7184 -1.4373
15964TIP3   OH269306   2.453   0.546   0.269 -0.2561 -0.5673 -0.3624
15964TIP3    H169307   2.433   0.527   0.361 -0.1822 -1.0090 -0.4354
15964TIP3    H269308   2.443   0.462   0.224 -1.5716 -0.1003 -0.9915
15965TIP3   OH269309   3.964   5.728  12.241 -0.2847  0.1022 -0.3063
15965TIP3    H169310   3.914   5.695  12.166 -2.4810  2.0230  0.2095
15965TIP3    H269311   3.906   5.718  12.316  1.0684  0.1612  0.7998
15966TIP3   OH269312   3.870   1.659  12.887 -0.0936  0.5960  0.2865
15966TIP3    H169313   3.803   1.594  12.867 -1.0625  1.4858  0.5971
15966TIP3    H269314   3.939   1.610  12.932 -0.4104 -0.3664 -0.2485
15967TIP3   OH269315   0.768   4.080  11.550 -0.0234 -0.2953  0.5359
15967TIP3    H169316   0.775   4.070  11.455  0.1484 -0.3088  0.5496
15967TIP3    H269317   0.682   4.045  11.571 -0.0533 -0.3121  0.3871
15968TIP3   OH269318   0.659   1.268  11.401  0.0242 -0.0250 -0.3669
15968TIP3    H169319   0.684   1.230  11.317  0.8887 -2.3793  0.8658
15968TIP3    H269320   0.616   1.196  11.448 -0.5945  1.2783  1.1654
15969TIP3   OH269321   0.739   2.165  12.192 -0.0256 -0.8211 -0.5211
15969TIP3    H169322   0.736   2.253  12.154  0.2416  0.2903  1.7981
15969TIP3    H269323   0.814   2.123  12.152  0.2698  0.2838 -1.1482
15970TIP3   OH269324   3.345   4.002  16.366 -0.0108 -0.1090  0.4311
15970TIP3    H169325   3.344   4.031  16.275 -1.4803 -1.8739 -0.1859
15970TIP3    H269326   3.301   3.917  16.365  0.5509 -0.5186  2.6956
15971TIP3   OH269327   4.382   3.033  13.717 -0.1951  0.0920 -0.0711
15971TIP3    H169328   4.287   3.021  13.719 -0.4988  1.8007 -1.4875
15971TIP3    H269329   4.394   3.128  13.714  1.5351 -0.1140 -0.7510
15972TIP3   OH269330   1.480   4.469   4.245 -0.5744  0.3938 -0.3573
15972TIP3    H169331   1.504   4.383   4.211 -0.8672  0.7400 -1.5002
15972TIP3    H269332   1.402   4.453   4.297  1.1338 -0.5023  2.1114
15973TIP3   OH269333   1.723   5.803   1.394 -0.7853  0.4656 -0.3654
15973TIP3    H169334   1.667   5.735   1.357 -0.6132 -0.5764  1.1949
15973TIP3    H269335   1.775   5.834   1.320  0.3986 -2.3492 -0.8589
15974TIP3   OH269336   3.908   5.181  16.585 -0.1149 -0.0964  0.3232
15974TIP3    H169337   3.913   5.118  16.513 -1.0798  0.5732 -0.3656
15974TIP3    H269338   3.992   5.226  16.583 -0.9320  1.5795 -2.0328
15975TIP3   OH269339   1.821   5.546   3.292 -0.3308 -0.3636 -0.2156
15975TIP3    H169340   1.783   5.475   3.344 -0.9043  0.5191  0.5924
15975TIP3    H269341   1.916   5.535   3.303 -0.3953  1.5507  3.5509
15976TIP3   OH269342   6.433   3.651  13.830 -0.0392  0.1630  0.5183
15976TIP3    H169343   6.504   3.624  13.771  0.5690  1.1098  0.7880
15976TIP3    H269344   6.466   3.731  13.871 -0.3798 -0.5267  2.2436
15977TIP3   OH269345   3.313   0.854  16.213  0.5729 -0.0848  0.0273
15977TIP3    H169346   3.249   0.916  16.248  2.1830  1.2364  0.7747
15977TIP3    H269347   3.291   0.771  16.255  0.0218  0.5987  1.1364
15978TIP3   OH269348   6.693   4.961   0.777  0.4932  0.3793 -0.1805
15978TIP3    H169349   6.714   4.953   0.870  0.1145 -1.2437 -0.2053
15978TIP3    H269350   6.650   5.046   0.769  0.2659  0.4087  1.1737
15979TIP3   OH269351   4.499   1.327   2.273 -0.0243 -0.2375  0.1581
15979TIP3    H169352   4.561   1.388   2.314 -0.7083 -0.6168  1.8235
15979TIP3    H269353   4.482   1.366   2.187 -1.0183  2.3997  1.4265
15980TIP3   OH269354   3.414   1.563   5.418 -0.4702  0.0594 -0.0041
15980TIP3    H169355   3.350   1.600   5.357 -0.1449  0.5121 -0.0744
15980TIP3    H269356   3.492   1.617   5.406 -0.5354  0.4123  1.1056
15981TIP3   OH269357   2.727   1.692  16.734  0.0471  0.4992  0.2464
15981TIP3    H169358   2.764   1.625  16.791 -0.5841  0.2845  0.4147
15981TIP3    H269359   2.801   1.747  16.711  0.6757 -0.5173 -0.2643
15982TIP3   OH269360   5.384   4.475   4.692  0.2639 -0.2691 -0.4757
15982TIP3    H169361   5.424   4.389   4.700  1.0443 -0.2105 -2.9469
15982TIP3    H269362   5.290   4.459   4.691  0.3767 -0.9828 -0.0391
15983TIP3   OH269363   2.170   0.287   1.414 -0.6444 -0.2387 -0.1558
15983TIP3    H169364   2.224   0.300   1.337  0.3104 -1.1179  0.3407
15983TIP3    H269365   2.141   0.374   1.439  0.7641  0.2868 -0.2806
15984TIP3   OH269366   1.371   2.242   2.868  0.7473 -0.1166  0.1356
15984TIP3    H169367   1.299   2.286   2.823 -0.1621  0.7432  2.2957
15984TIP3    H269368   1.329   2.174   2.920  1.3281  0.8440  1.9721
15985TIP3   OH269369   3.404   3.599   4.440 -0.6466  0.0647  0.4201
15985TIP3    H169370   3.331   3.600   4.502 -1.5128  0.6383 -0.5708
15985TIP3    H269371   3.392   3.678   4.387  2.2087  1.6372  1.9013
15986TIP3   OH269372   5.399   4.967  11.598  0.2370  0.0150 -0.4095
15986TIP3    H169373   5.425   4.972  11.506  0.7498  1.2609 -0.2127
15986TIP3    H269374   5.303   4.967  11.596  0.2419 -0.4550 -0.9505
15987TIP3   OH269375   5.186   4.866   5.542  0.1002 -0.1010 -0.3101
15987TIP3    H169376   5.276   4.899   5.533  0.1540  0.3989  1.6586
15987TIP3    H269377   5.146   4.924   5.606 -1.0128 -1.5482  0.3494
15988TIP3   OH269378   1.185   1.374  13.547  0.2898 -0.2327  0.2662
15988TIP3    H169379   1.261   1.387  13.603  1.2319 -2.8257 -0.2617
15988TIP3    H269380   1.115   1.425  13.588  1.8953  1.0261  1.5864
15989TIP3   OH269381   6.717   5.323   2.867 -0.6165 -0.1913  0.5344
15989TIP3    H169382   6.684   5.400   2.913  0.1071 -0.1274  0.9634
15989TIP3    H269383   6.797   5.299   2.914  0.1288 -0.1524 -0.6544
15990TIP3   OH269384   1.928   3.750  12.058  0.7332  0.3961  0.0022
15990TIP3    H169385   1.967   3.711  12.136 -0.4846  0.9775  0.9412
15990TIP3    H269386   1.902   3.838  12.086 -5.2359 -1.2059  0.9875
15991TIP3   OH269387   0.270   0.714  16.373 -0.3417 -0.1319  0.0265
15991TIP3    H169388   0.321   0.742  16.449 -1.0154 -0.5069  0.6245
15991TIP3    H269389   0.321   0.745  16.297  0.4497  0.0452  0.6176
15992TIP3   OH269390   3.913   4.679   3.519 -0.0604  0.3935  0.0640
15992TIP3    H169391   3.843   4.709   3.462 -0.3747 -1.4674 -0.6126
15992TIP3    H269392   3.985   4.741   3.504  0.6014 -1.0373 -3.9346
15993TIP3   OH269393   5.327   1.247   0.798  0.1046  0.0110 -0.2900
15993TIP3    H169394   5.375   1.263   0.716 -0.3450  0.8646 -0.3885
15993TIP3    H269395   5.378   1.292   0.865  2.4317 -3.4485  0.5772
15994TIP3   OH269396   3.697   1.501  12.147 -0.3013 -0.5191 -0.2022
15994TIP3    H169397   3.785   1.539  12.145 -0.5827  0.1179 -0.5224
15994TIP3    H269398   3.644   1.565  12.195 -0.4020 -1.3310  0.8273
15995TIP3   OH269399   3.433   1.978  16.727 -0.0609  0.1078  0.5553
15995TIP3    H169400   3.466   2.048  16.672  0.5903 -0.8994 -0.3918
15995TIP3    H269401   3.491   1.978  16.804  0.1943  0.3430  0.3612
15996TIP3   OH269402   1.853   2.411  12.986 -0.0746 -0.5148  0.1030
15996TIP3    H169403   1.821   2.366  12.908 -1.1561 -0.6678  0.6102
15996TIP3    H269404   1.838   2.504  12.969  1.1106 -0.4129 -0.4809
15997TIP3   OH269405   5.512   1.089   3.175  0.4224 -0.0293  0.1008
15997TIP3    H169406   5.445   1.125   3.234 -0.2352  0.1685 -0.7483
15997TIP3    H269407   5.558   1.024   3.229 -0.6521 -0.3929  0.6158
15998TIP3   OH269408   2.747   1.501   2.543 -0.3059 -0.2169  0.2537
15998TIP3    H169409   2.816   1.557   2.577 -0.3320  0.7501 -1.1589
15998TIP3    H269410   2.793   1.431   2.497 -0.2058  0.8125 -1.2931
15999TIP3   OH269411   3.072   3.518  11.404 -0.2243  0.1403 -0.1884
15999TIP3    H169412   3.094   3.429  11.374 -0.0891 -0.2327  0.9834
15999TIP3    H269413   2.976   3.520  11.405 -0.2286  0.0617 -0.3315
16000TIP3   OH269414   3.417   2.989  15.096  0.5071  0.1920  0.0696
16000TIP3    H169415   3.404   2.968  15.003 -1.0141  2.1547 -0.2347
16000TIP3    H269416   3.392   3.081  15.103  2.7390  0.7461  2.0396
16001TIP3   OH269417   6.039   6.618  14.366 -0.4081 -0.2652  0.7839
16001TIP3    H169418   5.948   6.644  14.382 -0.8058 -0.3935 -1.0021
16001TIP3    H269419   6.060   6.559  14.438 -1.0134  1.3846  2.3996
16002TIP3   OH269420   6.299   4.054   4.460  0.0239 -0.5854 -0.5233
16002TIP3    H169421   6.357   4.125   4.433  1.2542 -1.2873  0.1532
16002TIP3    H269422   6.229   4.053   4.394  0.3726  0.7715 -0.9351
16003TIP3   OH269423   0.520   3.154  11.108 -0.3120 -0.1439 -0.6476
16003TIP3    H169424   0.529   3.245  11.081 -0.0128 -0.2503 -0.9112
16003TIP3    H269425   0.453   3.156  11.176  0.0358  0.3459 -0.3089
16004TIP3   OH269426   5.304   3.733  11.109 -0.2249  0.0858  0.2282
16004TIP3    H169427   5.345   3.648  11.125  0.9658  0.6946  0.5919
16004TIP3    H269428   5.212   3.720  11.128  0.0163 -1.0073  0.7235
16005TIP3   OH269429   4.947   6.571   5.474 -0.4633 -0.3018 -0.1187
16005TIP3    H169430   4.988   6.521   5.545  1.8457 -0.9797 -1.7998
16005TIP3    H269431   4.955   6.662   5.502 -2.7384 -0.6350  1.9845
16006TIP3   OH269432   0.170   0.108   3.574  0.5826  0.3682 -0.0939
16006TIP3    H169433   0.220   0.038   3.616  0.1014 -0.0303 -0.1784
16006TIP3    H269434   0.081   0.096   3.604  0.3976  0.6233 -0.5308
16007TIP3   OH269435   5.413   1.979   6.417 -0.3730 -0.6812  0.2036
16007TIP3    H169436   5.382   2.037   6.487 -0.3355 -2.3797  1.7032
16007TIP3    H269437   5.409   1.891   6.455  1.7184 -1.4654 -1.1828
16008TIP3   OH269438   0.046   1.125   2.772  0.2588  0.5020 -0.3418
16008TIP3    H169439   0.038   1.174   2.853 -2.0207  0.6759 -0.5947
16008TIP3    H269440   0.139   1.130   2.749  1.0245  0.1723  2.3853
16009TIP3   OH269441   1.158   1.685   1.125 -0.3880  0.3831  0.2002
16009TIP3    H169442   1.075   1.711   1.086 -0.7169 -0.1453  0.5359
16009TIP3    H269443   1.146   1.593   1.149  0.6627 -0.0227 -0.7207
16010TIP3   OH269444   6.499   0.553   2.846 -0.0854 -0.1850 -0.0808
16010TIP3    H169445   6.554   0.595   2.911  2.4756 -2.8038 -0.3570
16010TIP3    H269446   6.526   0.591   2.762 -0.8676  0.6365  0.0210
16011TIP3   OH269447   5.513   1.870  14.473  0.4375  0.4492 -0.2876
16011TIP3    H169448   5.458   1.947  14.456  0.1311  0.6063  1.2783
16011TIP3    H269449   5.527   1.871  14.568  3.7332  0.8189 -0.6395
16012TIP3   OH269450   4.282   1.532   4.680 -0.3324  0.1770  0.0783
16012TIP3    H169451   4.202   1.527   4.627  0.1470  0.3215 -0.6893
16012TIP3    H269452   4.281   1.621   4.716  0.1470  0.6576 -1.0471
16013TIP3   OH269453   2.677   2.525   4.675 -0.1199 -0.2194  0.2693
16013TIP3    H169454   2.652   2.456   4.613 -0.1932 -0.2329  0.3142
16013TIP3    H269455   2.716   2.478   4.749  1.3246 -0.1350 -0.3916
16014TIP3   OH269456   2.391   0.984  16.356 -0.2382  0.3832  0.6616
16014TIP3    H169457   2.295   0.985  16.358 -0.3415 -2.3114  0.4037
16014TIP3    H269458   2.413   0.992  16.264 -0.3018 -0.5158  0.5596
16015TIP3   OH269459   3.880   0.690  12.938  0.2974 -0.1972  0.2928
16015TIP3    H169460   3.805   0.746  12.958 -1.2120 -1.9974 -0.1401
16015TIP3    H269461   3.895   0.703  12.844 -0.3280 -0.8055  0.0999
16016TIP3   OH269462   3.044   5.874   3.974 -0.2958 -0.0888 -0.2416
16016TIP3    H169463   2.959   5.904   3.942 -1.0636  0.5474  2.1675
16016TIP3    H269464   3.027   5.788   4.011  0.6478 -0.9870 -1.8115
16017TIP3   OH269465   2.691   2.757  12.474  0.4020 -0.2335  0.0340
16017TIP3    H169466   2.697   2.844  12.514 -0.5650 -0.3004  0.3587
16017TIP3    H269467   2.773   2.747  12.426  1.0783  0.3267  1.0478
16018TIP3   OH269468   6.005   4.500   4.869 -0.0525 -0.0906  0.3726
16018TIP3    H169469   5.968   4.588   4.879 -0.0727  0.1198 -1.2021
16018TIP3    H269470   6.082   4.500   4.926 -0.3947  0.7395  0.8548
16019TIP3   OH269471   5.947   4.457   2.503  0.1145  0.1750 -0.1598
16019TIP3    H169472   5.993   4.442   2.420  2.2175  0.8583  0.8215
16019TIP3    H269473   5.909   4.545   2.494  1.2452  0.6883 -0.0267
16020TIP3   OH269474   6.166   5.652  12.745 -0.1966 -0.9589 -0.3336
16020TIP3    H169475   6.176   5.702  12.664  2.2858 -0.2803  0.2860
16020TIP3    H269476   6.236   5.685  12.802 -2.4766 -0.6485  2.5272
16021TIP3   OH269477   5.747   0.166  12.710 -0.5376  0.4008 -0.9178
16021TIP3    H169478   5.729   0.106  12.782 -0.5185  0.3546 -0.9514
16021TIP3    H269479   5.664   0.212  12.695 -0.3988  0.7926 -0.5132
16022TIP3   OH269480   3.681   3.390   2.040  0.9660 -0.2532  0.5612
16022TIP3    H169481   3.667   3.325   1.971  1.9560  0.6001 -0.4706
16022TIP3    H269482   3.667   3.474   1.997  2.4835  0.3408  1.1591
16023TIP3   OH269483   4.341   6.471   0.048  0.2501  0.3096 -0.5025
16023TIP3    H169484   4.271   6.535   0.037 -0.2517 -0.0960  0.2644
16023TIP3    H269485   4.372   6.484   0.137  1.8416  1.1457 -1.1293
16024TIP3   OH269486   0.412   0.220   1.819  0.5743 -0.2113  0.2459
16024TIP3    H169487   0.394   0.171   1.899  2.9808 -0.1818  0.8579
16024TIP3    H269488   0.415   0.153   1.750 -1.2462 -0.2656  0.1739
16025TIP3   OH269489   0.889   3.692   0.717  0.5141  0.3279 -0.9210
16025TIP3    H169490   0.869   3.653   0.802 -2.9797 -1.9097 -2.5506
16025TIP3    H269491   0.821   3.759   0.705  1.4679  1.1948 -1.6380
16026TIP3   OH269492   2.312   3.622  11.405  0.1855  0.1206  0.2993
16026TIP3    H169493   2.404   3.632  11.379  0.6504 -0.5720  1.5865
16026TIP3    H269494   2.297   3.527  11.403 -0.3492  0.1974  0.5525
16027TIP3   OH269495   1.358   1.032  16.361  0.2301 -0.3196  0.2855
16027TIP3    H169496   1.285   0.978  16.393  0.4804 -1.1962 -0.5788
16027TIP3    H269497   1.358   1.108  16.419  0.6133 -1.7852  2.3093
16028TIP3   OH269498   3.672   0.643   0.625 -0.1471  0.3068  0.0784
16028TIP3    H169499   3.653   0.659   0.533  0.8176 -0.4620 -0.2693
16028TIP3    H269500   3.591   0.607   0.661 -0.3724  0.1533 -0.5840
16029TIP3   OH269501   5.923   0.731  12.312 -0.1750  0.6060  0.1460
16029TIP3    H169502   5.845   0.785  12.300 -0.9768 -0.4165  0.6439
16029TIP3    H269503   5.978   0.781  12.371 -0.6371  1.1505  0.1210
16030TIP3   OH269504   6.164   5.761   5.471 -0.1411 -0.3074  0.0088
16030TIP3    H169505   6.252   5.740   5.440  1.1735  1.2379  2.4423
16030TIP3    H269506   6.154   5.855   5.454 -0.8662 -0.2384  0.7527
16031TIP3   OH269507   1.440   3.575  14.181  0.3992  0.1338  0.0767
16031TIP3    H169508   1.534   3.559  14.194  0.2678 -1.0199 -0.3499
16031TIP3    H269509   1.411   3.613  14.264  0.9836 -0.7121  0.6804
16032TIP3   OH269510   5.016   1.763  14.337  0.1119 -0.0440 -0.3928
16032TIP3    H169511   5.001   1.669  14.347  1.3686 -0.2710 -0.4392
16032TIP3    H269512   4.991   1.781  14.246 -1.3946 -0.0425 -0.0107
16033TIP3   OH269513   6.050   5.387   3.641 -0.5357  0.1590  0.1915
16033TIP3    H169514   5.978   5.432   3.597 -0.7653 -1.1327 -0.8373
16033TIP3    H269515   6.129   5.420   3.597 -0.7067 -0.4558 -0.6076
16034TIP3   OH269516   0.692   5.593   1.499 -0.1659 -0.1102 -0.6549
16034TIP3    H169517   0.679   5.687   1.510 -1.0574 -0.3560  0.6172
16034TIP3    H269518   0.604   5.557   1.494  0.0827 -1.0772  1.0622
16035TIP3   OH269519   3.056   6.282  12.513  0.3107 -0.1814 -0.2015
16035TIP3    H169520   3.011   6.304  12.432 -0.2562 -2.0448 -0.4295
16035TIP3    H269521   2.986   6.264  12.576  0.7436  0.9720  0.6541
16036TIP3   OH269522   6.569   3.585   1.549 -0.7236  0.2340 -0.1650
16036TIP3    H169523   6.609   3.595   1.636  0.5067  0.4746 -0.7313
16036TIP3    H269524   6.546   3.493   1.544  1.2026 -0.2829 -0.3778
16037TIP3   OH269525   2.502   3.112  16.043  0.2763  0.4670 -0.3622
16037TIP3    H169526   2.433   3.101  16.109 -0.0226  0.1718 -0.7166
16037TIP3    H269527   2.458   3.094  15.959  0.8519 -0.0079 -0.5705
16038TIP3   OH269528   5.120   2.672   5.344 -0.3076 -0.0950  0.4934
16038TIP3    H169529   5.171   2.736   5.393  0.4944 -0.5300  0.2561
16038TIP3    H269530   5.129   2.591   5.393 -0.2635 -0.3185  0.1229
16039TIP3   OH269531   6.206   2.432  11.076  0.5299 -0.3839  0.8004
16039TIP3    H169532   6.168   2.418  11.163  0.0237  0.2740  0.6860
16039TIP3    H269533   6.185   2.523  11.055  2.4015  0.0872  0.8471
16040TIP3   OH269534   3.391   0.620   4.700  0.2499 -0.8029  0.5312
16040TIP3    H169535   3.419   0.582   4.783  0.3450 -1.8672  0.0283
16040TIP3    H269536   3.333   0.555   4.662 -1.1511  0.4065  0.5233
16041TIP3   OH269537   4.443   6.594   0.778  0.3699  0.0242  0.3160
16041TIP3    H169538   4.517   6.643   0.743 -0.3464  1.5614  0.8118
16041TIP3    H269539   4.374   6.606   0.712  0.8951 -2.4895 -0.7816
16042TIP3   OH269540   4.060   1.664   1.695  0.1241  0.5023 -0.8163
16042TIP3    H169541   4.017   1.657   1.610  0.1918  1.0493 -0.8996
16042TIP3    H269542   4.036   1.583   1.741  1.5084 -0.6213 -1.9866
16043TIP3   OH269543   5.752   6.441   4.229 -0.1776  0.1146  0.3674
16043TIP3    H169544   5.762   6.494   4.150  0.0431 -0.2940  0.1207
16043TIP3    H269545   5.839   6.404   4.244 -0.1031  0.5479  1.0572
16044TIP3   OH269546   3.926   2.834   3.747  0.9679 -0.5615 -0.2352
16044TIP3    H169547   3.911   2.866   3.836 -2.3872 -2.6571  0.1090
16044TIP3    H269548   3.843   2.845   3.702  1.5905 -2.5983 -2.0737
16045TIP3   OH269549   3.704   5.020   6.243  0.2735  0.0346  0.2089
16045TIP3    H169550   3.735   5.107   6.216 -0.4318 -0.2465 -1.6915
16045TIP3    H269551   3.783   4.972   6.265  0.7366  0.9177  0.5028
16046TIP3   OH269552   4.740   2.372  13.184  0.6873 -0.2738  0.3567
16046TIP3    H169553   4.654   2.393  13.223  0.5209 -0.6426  0.1932
16046TIP3    H269554   4.758   2.283  13.214  0.7855 -0.3776 -0.0087
16047TIP3   OH269555   1.136   1.754  17.166 -0.4796 -0.2887 -0.0310
16047TIP3    H169556   1.135   1.733  17.260  0.8573  1.8202  0.5256
16047TIP3    H269557   1.058   1.807  17.153  0.1177  0.6835  0.2515
16048TIP3   OH269558   1.475   0.800  13.504  0.6537 -0.6373  0.2013
16048TIP3    H169559   1.380   0.797  13.495  0.3823  0.5471  2.0595
16048TIP3    H269560   1.508   0.771  13.419 -1.3439 -1.6745 -0.2812
16049TIP3   OH269561   0.209   6.137   2.132 -0.1329  0.4767 -0.1834
16049TIP3    H169562   0.114   6.135   2.123 -0.2821 -2.0066  1.0339
16049TIP3    H269563   0.229   6.068   2.196  2.3099  2.5324  1.4726
16050TIP3   OH269564   1.142   3.690  11.809 -0.3785 -0.3686  0.7177
16050TIP3    H169565   1.091   3.689  11.728  1.2897 -1.5823 -0.3961
16050TIP3    H269566   1.233   3.689  11.780  0.2873  0.1257  2.6325
16051TIP3   OH269567   2.618   4.057   3.993  0.2439 -0.7440  0.1888
16051TIP3    H169568   2.586   4.119   4.059  0.7622  0.3709 -0.5860
16051TIP3    H269569   2.712   4.050   4.010  0.3652 -0.5198 -0.3668
16052TIP3   OH269570   6.460   5.769  12.110  0.2984 -0.1800  0.3111
16052TIP3    H169571   6.399   5.735  12.045  0.3283 -2.3454  1.3418
16052TIP3    H269572   6.543   5.778  12.063  0.1263 -0.9463 -0.1598
16053TIP3   OH269573   6.437   4.219   4.947 -0.4648 -0.6107  0.6622
16053TIP3    H169574   6.515   4.270   4.924 -0.4806 -0.3106  1.2536
16053TIP3    H269575   6.426   4.158   4.875  0.2501 -0.5706  0.5126
16054TIP3   OH269576   4.259   6.784   4.056  0.1068  0.4615 -0.1264
16054TIP3    H169577   4.335   6.726   4.061 -0.1776 -0.0199 -1.0476
16054TIP3    H269578   4.279   6.841   3.982 -0.4977  0.2220 -0.4765
16055TIP3   OH269579   0.133   2.679  11.557 -0.1932  0.1764 -0.6303
16055TIP3    H169580   0.215   2.634  11.537 -0.0427  0.1918 -0.0703
16055TIP3    H269581   0.116   2.733  11.480 -0.2053 -0.5825 -1.1721
16056TIP3   OH269582   5.115   4.424   4.659 -0.4228 -0.0437  0.2073
16056TIP3    H169583   5.029   4.465   4.672 -1.4166 -2.3639  1.5255
16056TIP3    H269584   5.095   4.335   4.631  1.5392 -0.7597  0.9204
16057TIP3   OH269585   4.917   2.849   4.172 -0.0921  0.6351 -0.3119
16057TIP3    H169586   4.826   2.865   4.197 -0.3739 -1.0006 -0.1440
16057TIP3    H269587   4.964   2.929   4.197 -1.3315  1.1758  0.3696
16058TIP3   OH269588   6.080   2.638   2.623 -0.3892  0.1805  0.0221
16058TIP3    H169589   5.994   2.600   2.607 -0.3555  0.2520 -0.3363
16058TIP3    H269590   6.071   2.685   2.706 -0.0479 -1.7941  1.2574
16059TIP3   OH269591   1.316   0.563   1.001  0.2182 -0.4755 -0.6029
16059TIP3    H169592   1.318   0.468   0.993 -1.8579 -0.4823 -1.5978
16059TIP3    H269593   1.246   0.581   1.064 -0.0923  0.4158 -1.1816
16060TIP3   OH269594   3.849   4.000   4.736 -0.1336 -0.1843 -0.2027
16060TIP3    H169595   3.854   3.919   4.684 -0.9750 -1.5573  1.7456
16060TIP3    H269596   3.940   4.028   4.746  0.2311 -1.2856 -0.3382
16061TIP3   OH269597   2.008   5.593   2.218  0.1334  0.3872  0.7531
16061TIP3    H169598   1.999   5.645   2.138  0.7983  0.1344  0.5145
16061TIP3    H269599   1.932   5.619   2.271 -0.2114  0.6938  0.1243
16062TIP3   OH269600   3.103   5.918   1.548 -0.0832 -0.0336  0.0336
16062TIP3    H169601   3.172   5.892   1.609 -0.4043 -0.6851  0.1317
16062TIP3    H269602   3.047   5.840   1.540 -1.9875  1.0787  1.5348
16063TIP3   OH269603   3.695   0.822   0.195 -0.0148 -0.3146 -0.1185
16063TIP3    H169604   3.635   0.790   0.127 -0.6207  0.8048 -0.1274
16063TIP3    H269605   3.754   0.881   0.148 -1.0505  1.2445  0.4596
16064TIP3   OH269606   6.433   5.703   6.816  0.1466  0.4004 -0.3646
16064TIP3    H169607   6.489   5.667   6.885  1.4626  0.6763 -1.2609
16064TIP3    H269608   6.364   5.638   6.806  0.9504 -0.5336 -0.0402
16065TIP3   OH269609   4.082   6.537   2.608 -0.0495 -0.3999 -0.2968
16065TIP3    H169610   4.109   6.615   2.657  0.4009  0.5535 -1.9954
16065TIP3    H269611   4.010   6.500   2.660  2.1797 -1.0726  2.5642
16066TIP3   OH269612   6.663   6.369   2.876 -0.1496  0.0330  0.1256
16066TIP3    H169613   6.664   6.273   2.877  0.3050 -0.0467 -2.0564
16066TIP3    H269614   6.725   6.394   2.944 -1.0633 -1.1772  1.4605
16067TIP3   OH269615   4.690   1.996   4.234 -0.1850 -0.4031  0.1226
16067TIP3    H169616   4.624   2.011   4.302  0.8097 -1.1852  1.3287
16067TIP3    H269617   4.648   2.022   4.153 -0.3718  3.7670  1.3298
16068TIP3   OH269618   5.135   0.428   2.638  0.5859 -0.4648  0.4000
16068TIP3    H169619   5.218   0.425   2.589 -0.7854 -0.9806 -2.0578
16068TIP3    H269620   5.074   0.377   2.585 -2.1418  2.4313  0.4645
16069TIP3   OH269621   1.589   3.499   3.432  0.2109 -0.0513  0.4583
16069TIP3    H169622   1.541   3.580   3.449 -1.3517 -1.0912  1.1920
16069TIP3    H269623   1.522   3.430   3.431  1.4910 -1.3601 -0.1232
16070TIP3   OH269624   1.590   1.022  13.932  0.3168  0.0006 -0.6500
16070TIP3    H169625   1.674   1.009  13.977  1.0480  2.6205 -1.0735
16070TIP3    H269626   1.613   1.066  13.850 -1.4347  0.5219 -0.9062
16071TIP3   OH269627   0.384   6.237  14.598  0.2846 -0.0602  0.1739
16071TIP3    H169628   0.471   6.260  14.565  0.2655 -0.1309  0.0745
16071TIP3    H269629   0.379   6.279  14.684  1.0921 -1.4719  0.9599
16072TIP3   OH269630   3.952   3.928  15.673 -0.5751  0.2414  0.3885
16072TIP3    H169631   4.031   3.899  15.627 -2.0316 -1.4446 -1.1578
16072TIP3    H269632   3.941   3.865  15.744 -0.2691  0.7977  0.9438
16073TIP3   OH269633   2.210   3.498   3.247  0.8630 -0.2997 -0.2785
16073TIP3    H169634   2.293   3.498   3.296 -0.0815  0.6659  1.4333
16073TIP3    H269635   2.232   3.541   3.164  2.0121  0.3181  0.3043
16074TIP3   OH269636   4.758   3.285   5.381  0.0452 -0.1695 -0.5553
16074TIP3    H169637   4.711   3.223   5.325  1.0454 -0.3130 -1.2549
16074TIP3    H269638   4.845   3.291   5.342  0.6573 -0.0154  0.7920
16075TIP3   OH269639   0.890   4.103   2.615  0.1455  1.0332 -0.3759
16075TIP3    H169640   0.889   4.010   2.639 -0.2863  0.4082 -2.5633
16075TIP3    H269641   0.948   4.107   2.539 -0.9439  2.2964 -1.1742
16076TIP3   OH269642   3.263   4.282  16.805 -0.4294  0.0049 -0.5439
16076TIP3    H169643   3.235   4.359  16.855 -0.7749 -0.5126  0.0706
16076TIP3    H269644   3.311   4.228  16.868  0.4815  0.0721 -1.1665
16077TIP3   OH269645   5.850   3.316  16.458  0.0062  0.4074  0.5449
16077TIP3    H169646   5.842   3.410  16.443 -0.5781  0.1861 -0.6207
16077TIP3    H269647   5.877   3.280  16.373  1.1229 -0.3774  1.2062
16078TIP3   OH269648   2.294   2.303   4.184  0.1102 -0.4669  0.9529
16078TIP3    H169649   2.310   2.245   4.110 -0.8742 -0.7227  0.9269
16078TIP3    H269650   2.251   2.247   4.249 -0.0145  0.0215  1.2952
16079TIP3   OH269651   1.391   1.678   4.530  0.3853  0.4554  0.7958
16079TIP3    H169652   1.409   1.747   4.465 -2.0442 -0.3031 -0.8091
16079TIP3    H269653   1.329   1.719   4.591  1.0803  0.5154  1.4786
16080TIP3   OH269654   6.070   0.718   3.103  0.0980 -0.5824 -0.2164
16080TIP3    H169655   6.117   0.637   3.122  1.3365  0.4039  1.1159
16080TIP3    H269656   6.047   0.754   3.188 -0.2770  0.5672 -0.7806
16081TIP3   OH269657   0.863   5.278   6.238  0.3408  0.1926 -0.3013
16081TIP3    H169658   0.887   5.349   6.298  1.6352 -0.4142 -0.0770
16081TIP3    H269659   0.767   5.274   6.244  0.4334 -0.5950  2.6451
16082TIP3   OH269660   4.104   2.850  13.074 -0.0955 -0.0084 -0.1340
16082TIP3    H169661   4.083   2.773  13.021  0.0529 -0.3904  0.3561
16082TIP3    H269662   4.158   2.816  13.146 -2.2932  0.0561  1.6694
16083TIP3   OH269663   1.622   0.720  15.018 -0.0072 -0.7882 -0.0648
16083TIP3    H169664   1.696   0.660  15.003  0.2756  0.0141 -2.1397
16083TIP3    H269665   1.546   0.662  15.024  0.5975 -1.5294  0.7585
16084TIP3   OH269666   0.309   5.130   4.939  0.4814  0.7445  0.1996
16084TIP3    H169667   0.234   5.114   4.881  1.0135  0.9533 -0.5572
16084TIP3    H269668   0.378   5.073   4.905  1.5402  2.5460 -0.8495
16085TIP3   OH269669   4.114   2.673   1.547  0.0780 -0.3753  0.4250
16085TIP3    H169670   4.142   2.719   1.469 -1.4862 -0.8076 -0.4355
16085TIP3    H269671   4.184   2.689   1.611  1.0182  0.6129 -0.7998
16086TIP3   OH269672   1.562   0.686   1.018  0.3860  0.1780  0.7601
16086TIP3    H169673   1.476   0.643   1.013 -0.3153  1.4767  1.2552
16086TIP3    H269674   1.556   0.758   0.955  0.1491  1.8699  2.6438
16087TIP3   OH269675   5.665   5.377   3.828  0.0062 -0.1977 -0.0044
16087TIP3    H169676   5.604   5.311   3.794 -0.7823 -0.1935  1.3158
16087TIP3    H269677   5.608   5.449   3.858  0.6555 -0.0896  1.0385
16088TIP3   OH269678   2.669   3.644   2.651 -1.1376 -0.2061  0.1457
16088TIP3    H169679   2.705   3.686   2.729  1.3605  0.7420 -1.4027
16088TIP3    H269680   2.720   3.564   2.640 -0.7037  0.2138 -1.0793
16089TIP3   OH269681   2.226   3.473  14.423 -1.1255 -0.5447 -0.7944
16089TIP3    H169682   2.187   3.538  14.482 -0.5999  0.4197 -1.4829
16089TIP3    H269683   2.317   3.465  14.453 -0.8848 -0.1304 -1.4020
16090TIP3   OH269684   4.651   4.712   4.505  0.3637  0.0755  0.1046
16090TIP3    H169685   4.707   4.738   4.578  0.0104  0.1721  0.3413
16090TIP3    H269686   4.562   4.719   4.539  0.1203  1.4749 -0.7631
16091TIP3   OH269687   5.356   3.673  11.439 -0.1666 -0.8441  0.1382
16091TIP3    H169688   5.397   3.686  11.525 -0.4765  1.7156 -0.0338
16091TIP3    H269689   5.292   3.603  11.453  1.6557 -2.3915  1.2809
16092TIP3   OH269690   2.304   0.648   2.847 -0.4481  0.2506  0.1599
16092TIP3    H169691   2.341   0.594   2.777  0.5850  0.4966  0.5023
16092TIP3    H269692   2.291   0.734   2.806  1.2985  0.7510  0.5459
16093TIP3   OH269693   1.462   5.849  12.149 -0.1395  0.3844  0.1360
16093TIP3    H169694   1.431   5.773  12.101  0.4692  0.1441  0.1068
16093TIP3    H269695   1.396   5.916  12.135 -0.5368 -0.0505 -0.0757
16094TIP3   OH269696   3.623   5.998  11.634 -0.2113 -0.0626 -0.0185
16094TIP3    H169697   3.624   5.916  11.584  1.0113 -0.6483  0.9193
16094TIP3    H269698   3.574   6.059  11.579 -0.0663 -1.0660 -1.3038
16095TIP3   OH269699   3.875   1.487   5.293  0.0046 -0.2696  0.3438
16095TIP3    H169700   3.805   1.484   5.228  0.2199 -1.4048  0.1370
16095TIP3    H269701   3.932   1.413   5.270  1.2216  0.5748  0.5602
16096TIP3   OH269702   3.310   1.952   4.642 -0.6264 -0.0484 -0.1775
16096TIP3    H169703   3.248   1.965   4.714 -0.8508  2.5005 -0.7358
16096TIP3    H269704   3.379   2.016   4.659  0.1619 -0.5688 -1.3479
16097TIP3   OH269705   5.119   0.669  15.968 -0.5856 -0.5849  0.5102
16097TIP3    H169706   5.083   0.655  15.880 -0.8667  0.9620  0.3496
16097TIP3    H269707   5.143   0.582  15.998  0.6295 -1.0430 -1.5818
16098TIP3   OH269708   4.079   1.287   1.875  0.1862  0.1263 -0.1205
16098TIP3    H169709   4.145   1.277   1.807 -0.5008  1.6304 -1.0681
16098TIP3    H269710   4.004   1.237   1.844 -0.1981  0.9759 -0.5948
16099TIP3   OH269711   1.840   5.355   1.013  0.2697  0.5475 -0.0459
16099TIP3    H169712   1.802   5.285   1.067  2.1230 -0.3992  0.0988
16099TIP3    H269713   1.835   5.433   1.068 -2.1450  0.6727 -0.3340
16100TIP3   OH269714   5.603   4.528  11.570 -0.8088  0.3237 -0.0174
16100TIP3    H169715   5.517   4.489  11.584 -1.4941  1.5238 -0.7566
16100TIP3    H269716   5.594   4.618  11.600  0.3435  0.3317  0.3477
16101TIP3   OH269717   3.514   0.061  15.399 -0.2919 -0.3448  0.2709
16101TIP3    H169718   3.568   0.140  15.407 -1.5570  0.6867 -0.9636
16101TIP3    H269719   3.533   0.011  15.478  1.2572  0.7326  0.6254
16102TIP3   OH269720   1.480   4.547  16.418  0.2936  0.4211 -0.0872
16102TIP3    H169721   1.385   4.541  16.411  0.2521 -3.1111  1.4827
16102TIP3    H269722   1.511   4.535  16.329 -0.7149  0.5253 -0.4701
16103TIP3   OH269723   2.763   4.612   5.210  0.4700 -0.0729  0.3771
16103TIP3    H169724   2.854   4.591   5.191  1.2545  3.2679 -0.3672
16103TIP3    H269725   2.713   4.572   5.139  1.4076 -1.4605  0.4763
16104TIP3   OH269726   1.032   5.203   5.526 -0.6001 -0.2539 -0.8247
16104TIP3    H169727   1.085   5.167   5.455 -2.1771 -1.2448 -1.5567
16104TIP3    H269728   1.038   5.298   5.515  0.1940 -0.3735 -1.5037
16105TIP3   OH269729   5.303   5.443   6.420  0.2028  0.0430  0.0298
16105TIP3    H169730   5.344   5.479   6.341 -0.3476  0.0819 -0.2411
16105TIP3    H269731   5.212   5.427   6.395  0.7170 -2.9052 -0.3241
16106TIP3   OH269732   3.943   2.682   0.040  0.6474  0.1495  0.1569
16106TIP3    H169733   3.924   2.634  -0.041  1.6149  0.5362 -0.3155
16106TIP3    H269734   3.857   2.699   0.079  0.0646  1.1123 -1.4690
16107TIP3   OH269735   2.510   1.805  16.606  0.4373  0.0898  0.5369
16107TIP3    H169736   2.593   1.777  16.645  0.9842  1.2653  0.2764
16107TIP3    H269737   2.465   1.724  16.583  1.0162 -0.5868  1.6971
16108TIP3   OH269738   5.093   1.600  11.959 -0.1695 -1.1347 -0.2248
16108TIP3    H169739   5.045   1.572  12.037  0.1113 -0.0908  0.3402
16108TIP3    H269740   5.165   1.538  11.952 -0.4355 -1.4859  0.1087
16109TIP3   OH269741   1.741   6.455   0.183  0.0451  0.1974 -0.4086
16109TIP3    H169742   1.763   6.390   0.117 -1.6440 -0.7201 -0.1303
16109TIP3    H269743   1.819   6.461   0.237  0.8177 -0.3680 -1.4279
16110TIP3   OH269744   2.676   2.621  14.557  0.2180  0.0569 -0.1260
16110TIP3    H169745   2.727   2.678  14.614 -0.0888  0.0753  0.1326
16110TIP3    H269746   2.686   2.660  14.470 -2.3739  2.3372  0.4327
16111TIP3   OH269747   4.931   2.737  12.369  0.3093  0.1346 -0.1070
16111TIP3    H169748   4.910   2.827  12.395  0.6565 -0.0301  0.7616
16111TIP3    H269749   4.854   2.709  12.319  0.1050  0.8439 -0.2046
16112TIP3   OH269750   4.944   4.643  13.615  0.0269 -0.2779  0.0960
16112TIP3    H169751   4.889   4.566  13.627  0.9431 -1.3501 -2.0470
16112TIP3    H269752   4.895   4.714  13.657 -1.7126 -1.6804  0.5620
16113TIP3   OH269753   5.643   2.350   1.984  0.6497 -0.0874  0.3466
16113TIP3    H169754   5.641   2.281   2.051 -2.2331 -2.4915 -1.9148
16113TIP3    H269755   5.576   2.412   2.012  1.5269  0.5321  1.1330
16114TIP3   OH269756   0.056   1.350  14.012  0.5685  0.0668 -0.5865
16114TIP3    H169757   0.101   1.268  13.993  0.0038 -1.1313  2.6861
16114TIP3    H269758  -0.032   1.337  13.976  0.4160 -0.8650  0.0950
16115TIP3   OH269759   3.277   3.013   5.662  0.2659  0.4573  0.1976
16115TIP3    H169760   3.220   3.066   5.718  1.5094  2.2117 -0.1174
16115TIP3    H269761   3.361   3.011   5.708  0.4458 -0.7126 -0.1362
16116TIP3   OH269762   2.127   0.108  11.893 -0.4274 -0.5173 -0.8283
16116TIP3    H169763   2.045   0.143  11.859 -1.9046 -0.3921  2.4908
16116TIP3    H269764   2.166   0.181  11.942 -0.5875 -1.7445  1.2479
16117TIP3   OH269765   4.565   5.661   2.297 -0.1436 -0.3324  0.3920
16117TIP3    H169766   4.645   5.680   2.346 -0.2190  0.9936  0.0464
16117TIP3    H269767   4.536   5.576   2.330 -0.7092  0.8619  3.3766
16118TIP3   OH269768   1.085   0.516  15.351 -0.0940 -0.2003  0.8765
16118TIP3    H169769   1.137   0.443  15.385  0.3566  0.7612  2.3756
16118TIP3    H269770   1.063   0.491  15.261  0.5425 -1.8990  1.1550
16119TIP3   OH269771   1.127   0.023  14.092 -0.2981  0.2144 -0.5269
16119TIP3    H169772   1.166  -0.050  14.141  0.4760  0.7447 -0.3308
16119TIP3    H269773   1.071  -0.019  14.026  0.2297 -0.5567 -0.4950
16120TIP3   OH269774   1.545   1.999  16.891 -0.4662  0.1974 -0.0131
16120TIP3    H169775   1.529   2.082  16.936  2.5131  0.6768  0.3384
16120TIP3    H269776   1.491   1.936  16.939 -3.0957  1.8883 -0.5250
16121TIP3   OH269777   6.622   0.730  16.363 -0.1368  0.1324 -0.2057
16121TIP3    H169778   6.582   0.811  16.396  1.3516  0.9878 -0.4087
16121TIP3    H269779   6.619   0.670  16.437  0.0470  0.8782  0.4257
16122TIP3   OH269780   2.578   2.788   3.017  0.0695  0.0519  0.2922
16122TIP3    H169781   2.565   2.860   2.955 -1.0593 -1.4613 -1.3387
16122TIP3    H269782   2.511   2.800   3.084  0.0016  0.6183  0.1236
16123TIP3   OH269783   2.219   0.478   5.828 -0.3187  0.1050 -0.4205
16123TIP3    H169784   2.259   0.464   5.742 -0.2957 -0.4919 -0.3140
16123TIP3    H269785   2.293   0.496   5.886 -0.2711 -0.1863 -0.3881
16124TIP3   OH269786   4.169   6.158  12.478 -0.3772 -0.2343  0.1421
16124TIP3    H169787   4.087   6.158  12.528 -0.8329  2.6530 -0.4400
16124TIP3    H269788   4.151   6.101  12.402 -0.9138 -1.6818  1.3056
16125TIP3   OH269789   3.956   4.920  11.491  0.2673 -0.1294  0.2665
16125TIP3    H169790   3.892   4.979  11.452  0.4392  0.4819  0.8770
16125TIP3    H269791   3.953   4.841  11.437 -1.4525 -0.3654  0.6620
16126TIP3   OH269792   2.118   3.868   6.694 -0.1050  0.3546  0.7553
16126TIP3    H169793   2.131   3.953   6.736  0.2952  0.3024  0.7460
16126TIP3    H269794   2.187   3.864   6.627 -0.5147  0.2899  0.3264
16127TIP3   OH269795   2.463   0.531   3.750  0.2896  0.4909  0.1422
16127TIP3    H169796   2.524   0.555   3.820  1.3924 -2.5755  0.4036
16127TIP3    H269797   2.387   0.494   3.796 -0.2026  1.0019 -0.2470
16128TIP3   OH269798   5.601   0.091   0.993  0.3601  0.9353 -0.1720
16128TIP3    H169799   5.639   0.046   1.069 -1.9369  0.2046  0.6477
16128TIP3    H269800   5.660   0.071   0.921  0.0058 -2.7865  0.3297
16129TIP3   OH269801   0.966   2.833   2.663  0.2612  0.0958 -0.0649
16129TIP3    H169802   0.976   2.862   2.572 -1.3698  0.1628 -0.2685
16129TIP3    H269803   0.948   2.913   2.712  1.1289  0.0592  0.3357
16130TIP3   OH269804   1.548   0.028   4.131  0.3454 -0.1378 -0.1096
16130TIP3    H169805   1.561  -0.013   4.045  0.5945  3.0728 -1.7222
16130TIP3    H269806   1.463  -0.006   4.161 -0.8070  0.3162 -2.6495
16131TIP3   OH269807   4.999   2.642  13.914  0.6878 -0.9246 -0.6052
16131TIP3    H169808   4.934   2.585  13.956  3.6040 -2.5020  2.2096
16131TIP3    H269809   5.006   2.609  13.825  0.1319 -3.0415  0.0827
16132TIP3   OH269810   5.228   6.117  16.868  0.9493  0.1320  0.4363
16132TIP3    H169811   5.234   6.024  16.891 -0.6519  0.0822  0.7876
16132TIP3    H269812   5.281   6.125  16.789  0.9182 -1.1397  0.2540
16133TIP3   OH269813   2.142   5.675  12.242  0.0798  0.1780 -0.3674
16133TIP3    H169814   2.158   5.595  12.292 -0.1919  0.0243 -0.5245
16133TIP3    H269815   2.070   5.652  12.182  0.0768  0.5043 -0.4907
16134TIP3   OH269816   2.196   5.136  15.576 -0.2598  0.8060  0.5583
16134TIP3    H169817   2.225   5.170  15.492  2.0855 -0.7134  0.6625
16134TIP3    H269818   2.201   5.212  15.635  0.6168  1.2984 -0.1226
16135TIP3   OH269819   4.238   0.975  17.207  0.3695  0.0028 -0.2245
16135TIP3    H169820   4.314   0.963  17.264 -1.0433 -0.7952  1.5689
16135TIP3    H269821   4.182   0.900  17.224  0.2368 -0.7547 -3.3566
16136TIP3   OH269822   2.657   2.501  15.355  0.6862  0.3243 -0.0551
16136TIP3    H169823   2.734   2.557  15.369  0.5986  0.4013  0.1344
16136TIP3    H269824   2.618   2.534  15.274 -0.0148  1.3093  0.6521
16137TIP3   OH269825   0.866   0.321  13.910  0.5879 -0.3570 -0.2036
16137TIP3    H169826   0.838   0.354  13.825  1.6976  3.1729  0.6233
16137TIP3    H269827   0.958   0.347  13.917  0.5798 -0.6999  1.9929
16138TIP3   OH269828   6.699   4.003   3.285 -0.6221 -0.5924  0.2751
16138TIP3    H169829   6.685   4.067   3.214 -0.3105  0.3792  1.0618
16138TIP3    H269830   6.652   3.925   3.257 -2.7574  0.6462  0.2041
16139TIP3   OH269831   3.204   5.705  13.827  0.5459  0.2734 -0.1950
16139TIP3    H169832   3.238   5.791  13.853  1.3714  0.3650 -1.4693
16139TIP3    H269833   3.185   5.661  13.909 -1.5163  2.2716  0.5107
16140TIP3   OH269834   1.941   5.781   0.580 -0.2865 -0.2448  0.2853
16140TIP3    H169835   2.005   5.808   0.646 -0.5573  0.6545  0.1889
16140TIP3    H269836   1.927   5.859   0.527 -1.9430 -0.2284  0.6969
16141TIP3   OH269837   3.344   4.481  15.968  0.2355 -0.1117  0.2500
16141TIP3    H169838   3.436   4.457  15.977 -0.1563 -1.2089  1.9759
16141TIP3    H269839   3.302   4.402  15.933 -0.2690 -0.1754  0.9687
16142TIP3   OH269840   1.002   5.014   0.520  0.6664  0.3831  0.5405
16142TIP3    H169841   0.934   5.081   0.524 -0.5469 -0.6996 -0.8491
16142TIP3    H269842   1.026   5.011   0.427  0.7261 -1.0628  0.5915
16143TIP3   OH269843   0.365   1.105   1.026 -0.6470 -0.4043  0.3924
16143TIP3    H169844   0.364   1.164   1.102 -0.6248  0.3737 -0.1962
16143TIP3    H269845   0.283   1.056   1.033 -1.3103  0.6295  0.2013
16144TIP3   OH269846   4.151   4.796  12.124  0.7059 -0.5291 -0.0888
16144TIP3    H169847   4.137   4.846  12.043  1.8368  1.6909  1.0105
16144TIP3    H269848   4.074   4.815  12.177  0.9078 -0.3408  0.1383
16145TIP3   OH269849   3.392   0.003   5.885  0.0988 -0.3634 -0.0107
16145TIP3    H169850   3.434   0.090   5.885 -1.6092  0.6719  3.6610
16145TIP3    H269851   3.465  -0.058   5.899  0.9907  0.9135  1.3023
16146TIP3   OH269852   2.776   3.948  10.721 -0.0370  0.1316  0.0443
16146TIP3    H169853   2.697   3.976  10.674 -0.7287  1.6497  2.0174
16146TIP3    H269854   2.847   3.963  10.658 -0.9520  1.8041 -0.6588
16147TIP3   OH269855   5.201   5.638   3.422 -0.1701 -0.1837  0.6765
16147TIP3    H169856   5.255   5.619   3.498  0.5037 -0.7827  0.0644
16147TIP3    H269857   5.126   5.686   3.457  0.1303 -0.4450  1.7083
16148TIP3   OH269858   4.837   3.865   3.951 -0.0603  0.2443  0.5793
16148TIP3    H169859   4.752   3.824   3.963  0.0470 -0.4926 -0.9362
16148TIP3    H269860   4.900   3.801   3.984  0.0613 -0.5600 -1.1086
16149TIP3   OH269861   0.945   5.676  15.288 -0.1157 -0.8156 -0.6241
16149TIP3    H169862   0.894   5.595  15.288  0.5320 -1.2269 -0.2900
16149TIP3    H269863   0.879   5.746  15.284 -0.8002 -1.2917  1.3590
16150TIP3   OH269864   0.333   1.883   5.146  0.8407 -0.1261  0.2777
16150TIP3    H169865   0.425   1.886   5.172  0.3954  0.8230  1.9231
16150TIP3    H269866   0.300   1.801   5.184  0.8912 -0.2166  0.1256
16151TIP3   OH269867   3.055   4.907   0.891 -0.0090  0.0523 -0.3803
16151TIP3    H169868   3.029   4.829   0.841 -0.0425  0.6597 -1.3327
16151TIP3    H269869   2.992   4.911   0.963  0.2560 -1.0393 -0.0678
16152TIP3   OH269870   0.632   5.180  14.421  0.2517  0.2531  0.0222
16152TIP3    H169871   0.723   5.201  14.403  0.1210  1.5235  0.7055
16152TIP3    H269872   0.620   5.201  14.514 -0.9514  0.9732 -0.2696
16153TIP3   OH269873   1.167   0.131   6.218 -0.0641 -0.4097  0.1306
16153TIP3    H169874   1.176   0.065   6.150  0.8826 -0.4311  0.2702
16153TIP3    H269875   1.197   0.212   6.177  0.2289 -0.3661  0.4276
16154TIP3   OH269876   1.547   6.615   0.096  0.0693 -0.2126  0.6004
16154TIP3    H169877   1.529   6.573   0.011  2.5174  1.2252 -0.7400
16154TIP3    H269878   1.630   6.576   0.124 -0.1350  0.1693  1.7705
16155TIP3   OH269879   4.997   5.952   1.345  0.1911 -0.0009  0.0049
16155TIP3    H169880   4.958   5.914   1.424 -1.7959  2.2676  0.2280
16155TIP3    H269881   5.007   5.878   1.285 -1.8521 -1.1815  1.0139
16156TIP3   OH269882   0.027   5.814   3.703 -0.1597 -0.0175 -0.2654
16156TIP3    H169883   0.079   5.849   3.775 -1.5171  1.8396 -0.0990
16156TIP3    H269884   0.085   5.752   3.659  0.5436 -1.6644  2.6992
16157TIP3   OH269885   4.119   0.884  15.330  0.6122 -0.1493  0.3247
16157TIP3    H169886   4.144   0.867  15.421  0.0768  0.7071  0.6507
16157TIP3    H269887   4.201   0.884  15.281  0.8253 -1.5426  0.6353
16158TIP3   OH269888   2.142   4.514  14.077  0.1736  0.0605  0.4897
16158TIP3    H169889   2.188   4.577  14.022 -2.8948 -0.1335 -2.6335
16158TIP3    H269890   2.083   4.567  14.131 -0.1212  0.0417  0.1902
16159TIP3   OH269891   3.575   4.937  13.678  0.3933 -0.4250 -0.5568
16159TIP3    H169892   3.671   4.934  13.680  0.3496 -2.4259  0.5883
16159TIP3    H269893   3.549   4.861  13.626 -0.5840 -0.8808  0.5515
16160TIP3   OH269894   0.271   2.290  16.066  0.2777 -0.6154  0.2777
16160TIP3    H169895   0.285   2.285  16.161 -2.2100 -0.1327  0.7645
16160TIP3    H269896   0.185   2.333  16.058  1.3460  1.2986 -2.2629
16161TIP3   OH269897   1.726   3.122   4.346 -0.6892 -0.1556 -0.2230
16161TIP3    H169898   1.741   3.047   4.289 -0.0151  0.7345 -1.2720
16161TIP3    H269899   1.687   3.188   4.288 -2.0041  0.0588  0.8495
16162TIP3   OH269900   3.745   0.859   3.483 -0.3779  0.1540 -0.0510
16162TIP3    H169901   3.752   0.773   3.441 -0.6587  0.0236  0.1688
16162TIP3    H269902   3.667   0.853   3.538  1.1920 -0.4614  2.2537
16163TIP3   OH269903   0.021   4.321   2.465 -0.2024 -0.0424  0.0298
16163TIP3    H169904  -0.039   4.289   2.398 -1.2771 -1.4118  1.5463
16163TIP3    H269905  -0.007   4.411   2.481 -0.5103  0.0012 -0.7284
16164TIP3   OH269906   5.722   6.421  15.387 -0.2269 -0.1306  0.2456
16164TIP3    H169907   5.771   6.342  15.368 -0.1508 -0.4389  1.5827
16164TIP3    H269908   5.630   6.393  15.387 -0.4156  0.3688 -1.8968
16165TIP3   OH269909   3.915   1.589   1.464 -0.0136  0.2366 -0.3161
16165TIP3    H169910   3.926   1.623   1.376 -0.0359  0.2752 -0.3039
16165TIP3    H269911   3.832   1.542   1.462  0.9483 -1.5549 -0.8897
16166TIP3   OH269912   5.695   5.007  12.295 -0.8895 -0.2236 -0.3604
16166TIP3    H169913   5.790   5.006  12.288 -0.6602  0.6034  1.8427
16166TIP3    H269914   5.666   5.056  12.218  0.7762  2.8353  0.7899
16167TIP3   OH269915   6.585   4.966  14.002 -0.3586 -0.0901 -0.5313
16167TIP3    H169916   6.552   4.881  14.031 -1.8596  0.4020 -0.6649
16167TIP3    H269917   6.624   4.948  13.916 -0.8650 -0.6262 -0.6638
16168TIP3   OH269918   3.128   2.451  15.884  0.0144  0.4426 -0.2390
16168TIP3    H169919   3.091   2.506  15.815 -1.1327 -1.2375 -1.0273
16168TIP3    H269920   3.165   2.376  15.837  2.7864  1.1101  0.6794
16169TIP3   OH269921   0.200   3.682  16.996 -0.0713  0.4048  0.4477
16169TIP3    H169922   0.208   3.775  16.972 -1.8545  0.9979  1.9554
16169TIP3    H269923   0.152   3.682  17.079  2.3722 -1.7375  2.0358
16170TIP3   OH269924   5.809   6.014  11.839  0.2639 -0.1124 -0.2510
16170TIP3    H169925   5.727   5.964  11.840  0.6130 -0.7002  0.6089
16170TIP3    H269926   5.816   6.049  11.928 -0.7904  2.9005 -1.2297
16171TIP3   OH269927   5.475   2.864   2.008  0.3356 -0.1930  0.2992
16171TIP3    H169928   5.463   2.817   1.925  0.4230  0.9685 -0.4053
16171TIP3    H269929   5.410   2.826   2.067  1.9819 -2.8760  0.5608
16172TIP3   OH269930   1.252   1.138  14.486  0.2958 -0.0424 -0.0685
16172TIP3    H169931   1.334   1.132  14.438  0.7369 -1.3400  0.8008
16172TIP3    H269932   1.187   1.097  14.429  0.9863 -2.4157  0.7499
16173TIP3   OH269933   3.338   2.840  12.569 -0.0077 -0.6496 -0.4736
16173TIP3    H169934   3.329   2.795  12.485  0.8466 -1.2961 -0.2289
16173TIP3    H269935   3.359   2.931  12.545  0.6189 -0.9151 -0.9641
16174TIP3   OH269936   4.483   3.502  13.432  0.7051 -0.4510 -0.4999
16174TIP3    H169937   4.509   3.594  13.422  0.0250 -0.0197  1.2759
16174TIP3    H269938   4.451   3.477  13.345  1.0861  0.9305 -1.0689
16175TIP3   OH269939   6.457   5.120   5.994  0.1224 -0.0287 -0.0534
16175TIP3    H169940   6.542   5.162   6.003  1.2085 -2.3885  2.1551
16175TIP3    H269941   6.470   5.054   5.926 -0.2998  0.3404 -0.5010
16176TIP3   OH269942   1.227   4.827  14.305  0.0600 -0.5973  0.2964
16176TIP3    H169943   1.321   4.808  14.301  0.5956  1.5125  1.5626
16176TIP3    H269944   1.206   4.863  14.218  0.7406  0.1838  0.4488
16177TIP3   OH269945   1.818   3.430  14.910  0.0891  0.3905 -0.3802
16177TIP3    H169946   1.852   3.507  14.864  1.5583  1.3923  2.1466
16177TIP3    H269947   1.892   3.369  14.912  0.8378  1.2526  2.3612
16178TIP3   OH269948   4.722   1.318  14.555  0.7973 -0.1419  0.3684
16178TIP3    H169949   4.692   1.393  14.605  2.4007  0.6696  0.1943
16178TIP3    H269950   4.645   1.289  14.506 -1.1032 -1.5654  3.8745
16179TIP3   OH269951   2.903   0.255  11.197  0.0398 -0.2937  0.2921
16179TIP3    H169952   2.903   0.272  11.102  0.2351 -0.8778  0.1827
16179TIP3    H269953   2.856   0.330  11.235  0.0535 -0.0021 -0.2560
16180TIP3   OH269954   0.473   0.976   4.065 -0.0652  0.1198 -0.2436
16180TIP3    H169955   0.440   0.959   3.976  0.3776  1.3667 -0.6681
16180TIP3    H269956   0.555   0.926   4.069 -0.6437 -0.8425 -0.1245
16181TIP3   OH269957   2.122   4.271   2.800 -0.1800 -0.0336 -0.3816
16181TIP3    H169958   2.132   4.366   2.794 -1.0737  0.0585 -0.5829
16181TIP3    H269959   2.186   4.237   2.739  1.2488  0.3683  0.8411
16182TIP3   OH269960   0.219   4.777   0.887 -0.3129  0.0388 -0.5274
16182TIP3    H169961   0.153   4.709   0.898  0.0020 -0.2402 -0.3562
16182TIP3    H269962   0.285   4.736   0.831  0.4050 -0.1633  0.4585
16183TIP3   OH269963   2.854   6.188   4.677  0.0452  0.6632 -0.4166
16183TIP3    H169964   2.818   6.186   4.589 -0.2762 -0.5750 -0.2662
16183TIP3    H269965   2.786   6.150   4.732  1.2376 -0.9794 -0.0115
16184TIP3   OH269966   6.192   6.060   2.494 -0.7406 -0.0562  0.6337
16184TIP3    H169967   6.109   6.012   2.491 -0.2321 -0.9864  1.1437
16184TIP3    H269968   6.223   6.060   2.404  0.1750 -2.3861  0.8656
16185TIP3   OH269969   5.512   1.460  14.724 -0.8246 -0.3372 -0.1244
16185TIP3    H169970   5.476   1.377  14.755 -1.0069 -0.3319 -0.3138
16185TIP3    H269971   5.456   1.527  14.765  0.6045 -0.1968  1.7354
16186TIP3   OH269972   2.620   0.830   4.169 -0.4775  0.3515 -0.1911
16186TIP3    H169973   2.568   0.825   4.089  0.5011 -1.6274 -0.7607
16186TIP3    H269974   2.565   0.790   4.237 -1.4039  2.2438  0.2453
16187TIP3   OH269975   0.320   1.779   0.616  0.3844 -0.4344 -0.0039
16187TIP3    H169976   0.316   1.861   0.567  2.4187 -1.1401 -1.4837
16187TIP3    H269977   0.232   1.743   0.610  0.1554  0.3109 -1.7584
16188TIP3   OH269978   5.724   2.736   0.622  0.0226  0.4276 -0.2994
16188TIP3    H169979   5.807   2.753   0.578  0.7916 -0.7795  0.6154
16188TIP3    H269980   5.749   2.687   0.701 -1.6156 -0.5370 -0.3496
16189TIP3   OH269981   1.290   6.397  10.504 -0.2146 -0.3411 -0.2575
16189TIP3    H169982   1.324   6.331  10.564 -0.3047  1.4500  1.8915
16189TIP3    H269983   1.357   6.403  10.435  1.8863  0.2481  1.7305
16190TIP3   OH269984   4.394   2.945  13.114 -0.5746 -0.6215  0.8025
16190TIP3    H169985   4.342   2.883  13.164 -3.6963 -0.0761 -1.4811
16190TIP3    H269986   4.394   2.910  13.024  0.3609  1.0264  0.1105
16191TIP3   OH269987   5.233   3.545   6.032  0.1892 -0.0256  0.4079
16191TIP3    H169988   5.238   3.524   6.126  1.1782  1.0401  0.6117
16191TIP3    H269989   5.250   3.639   6.028 -0.2302  0.0072 -0.8216
16192TIP3   OH269990   0.421   0.012  12.292 -0.2009  0.0297  0.1079
16192TIP3    H169991   0.444  -0.071  12.335 -0.2813  0.3727  0.8358
16192TIP3    H269992   0.408   0.073  12.365  2.4819  1.3929 -0.4090
16193TIP3   OH269993   1.384   4.478   3.350 -0.2812  0.1941 -0.3708
16193TIP3    H169994   1.476   4.504   3.353 -0.3436  0.6308 -1.5186
16193TIP3    H269995   1.385   4.394   3.304 -0.4009 -0.1168  0.1912
16194TIP3   OH269996   3.173   3.960  11.536 -0.2244 -0.7836 -0.4335
16194TIP3    H169997   3.112   4.022  11.576 -1.2419 -0.9280 -1.7201
16194TIP3    H269998   3.163   3.880  11.586 -0.1248 -0.4218  0.1764
16195TIP3   OH269999   2.234   4.719  17.056  0.3765  0.5444 -0.1072
16195TIP3    H170000   2.240   4.701  17.150  3.1729  0.1934 -0.2699
16195TIP3    H270001   2.320   4.752  17.032  0.1634 -0.6159 -2.8189
16196TIP3   OH270002   4.234   5.414   1.699 -0.5848  0.6103 -0.1904
16196TIP3    H170003   4.188   5.389   1.619 -0.3972  0.5472 -0.2785
16196TIP3    H270004   4.313   5.360   1.699 -2.1653 -1.9424  1.7519
16197TIP3   OH270005   1.827   1.431   3.530 -0.6239 -0.0816  0.2858
16197TIP3    H170006   1.826   1.525   3.514  0.3670  0.1055  1.2144
16197TIP3    H270007   1.897   1.398   3.473 -2.2344 -0.5613 -1.4782
16198TIP3   OH270008   5.256   4.871   5.908 -0.2714 -0.0267  0.0309
16198TIP3    H170009   5.171   4.854   5.867  0.0627  1.5286 -1.3987
16198TIP3    H270010   5.300   4.786   5.907 -1.4789 -0.6821  0.0444
16199TIP3   OH270011   1.695   0.949   1.847  0.0090 -0.1772  0.3814
16199TIP3    H170012   1.667   1.020   1.905  1.3786  0.7694 -0.0629
16199TIP3    H270013   1.666   0.869   1.890 -1.9482  0.6554  0.7011
16200TIP3   OH270014   2.941   2.755  12.081  0.1367  0.1496  0.4443
16200TIP3    H170015   3.029   2.718  12.068 -0.4092 -0.4515 -2.0207
16200TIP3    H270016   2.934   2.824  12.016 -1.1109  0.4027  0.8221
16201TIP3   OH270017   0.124   4.384   4.486  0.2421  0.1002  0.4070
16201TIP3    H170018   0.194   4.371   4.550  0.3278  2.4322  0.8519
16201TIP3    H270019   0.140   4.471   4.450 -1.6911  0.1547 -0.4251
16202TIP3   OH270020   3.291   5.009  13.217  0.1450 -0.6528 -0.0743
16202TIP3    H170021   3.314   5.068  13.146  1.6906  0.5426  1.3300
16202TIP3    H270022   3.362   4.945  13.221  0.2888 -0.4605  0.6394
16203TIP3   OH270023   1.424   1.149  16.094  0.7982 -0.1367 -0.5126
16203TIP3    H170024   1.400   1.135  16.185  1.4252  0.0032 -0.3208
16203TIP3    H270025   1.430   1.245  16.085 -1.2738 -0.0172 -1.2419
16204TIP3   OH270026   1.178   6.530   2.956 -0.1759  0.2392 -0.6608
16204TIP3    H170027   1.147   6.462   3.015 -1.0385  1.4362  0.3149
16204TIP3    H270028   1.190   6.607   3.012  1.4114  0.7330 -1.6089
16205TIP3   OH270029   3.742   4.462  11.479  0.1831 -0.0001 -0.1033
16205TIP3    H170030   3.766   4.370  11.492  0.1978 -0.0873 -0.7276
16205TIP3    H270031   3.741   4.473  11.384 -0.2983  0.5220 -0.0376
16206TIP3   OH270032   1.039   6.351  10.729 -0.1036  0.3723  0.0950
16206TIP3    H170033   1.079   6.304  10.801 -1.9392 -1.1018  0.2280
16206TIP3    H270034   1.022   6.285  10.662 -2.0222  0.9107 -0.0388
16207TIP3   OH270035   2.083   5.912   3.895 -0.0159  0.5172 -0.2997
16207TIP3    H170036   2.012   5.909   3.832 -2.5479 -0.2364  2.3692
16207TIP3    H270037   2.096   6.006   3.913 -2.2560  0.6253  1.0777
16208TIP3   OH270038   2.793   4.318  16.180 -0.1599 -0.1555  0.2020
16208TIP3    H170039   2.816   4.264  16.104 -1.1893 -0.3889  0.0395
16208TIP3    H270040   2.710   4.360  16.155 -2.2514 -2.6874  2.3664
16209TIP3   OH270041   5.276   1.017  11.681 -0.1523  0.2032  0.1067
16209TIP3    H170042   5.248   0.953  11.747 -1.3815  0.3553 -0.2422
16209TIP3    H270043   5.342   0.970  11.630 -1.4443 -1.0209 -0.5038
16210TIP3   OH270044   4.607   1.412   4.458 -0.3450 -0.2668 -0.4029
16210TIP3    H170045   4.558   1.473   4.404 -0.1063 -1.8734 -2.5944
16210TIP3    H270046   4.696   1.448   4.460 -0.7052  0.6214  0.2940
16211TIP3   OH270047   3.322   1.511   2.681 -0.2282  0.2063 -0.4115
16211TIP3    H170048   3.406   1.500   2.636 -0.2383  1.0052 -0.6351
16211TIP3    H270049   3.328   1.597   2.722 -0.5637 -0.1422  0.3961
16212TIP3   OH270050   6.679   3.880  14.578  0.1327 -0.5658  0.2090
16212TIP3    H170051   6.650   3.801  14.624 -0.6288 -0.6270 -0.3674
16212TIP3    H270052   6.617   3.891  14.506  0.1680  0.6177  0.3336
16213TIP3   OH270053   3.420   3.007  11.598 -0.2656  0.6615 -0.3418
16213TIP3    H170054   3.368   3.029  11.521 -0.2688 -1.3418 -0.9730
16213TIP3    H270055   3.511   3.022  11.571 -0.3353  1.4339 -0.1861
16214TIP3   OH270056   1.771   4.144  17.112  0.3148  0.8166 -0.0360
16214TIP3    H170057   1.742   4.198  17.186 -1.1326  2.4011 -1.6887
16214TIP3    H270058   1.699   4.082  17.099 -0.2019  1.6177 -1.1139
16215TIP3   OH270059   4.887   0.702  14.678  0.0398 -0.6243  0.1577
16215TIP3    H170060   4.858   0.634  14.617  1.3274 -0.7354 -0.3668
16215TIP3    H270061   4.850   0.676  14.762 -0.6895 -1.1752 -0.3171
16216TIP3   OH270062   5.863   5.559  14.969 -0.2525 -0.6856  0.5053
16216TIP3    H170063   5.863   5.505  14.890 -1.0078 -1.1031  0.7824
16216TIP3    H270064   5.786   5.615  14.960  0.0085 -0.2956  0.6588
16217TIP3   OH270065   6.404   5.331  15.147 -0.0451 -0.4302  0.1908
16217TIP3    H170066   6.481   5.330  15.204  0.5861 -0.3870 -0.6507
16217TIP3    H270067   6.439   5.340  15.059 -0.9887 -0.9677 -0.2545
16218TIP3   OH270068   6.535   4.430   2.279  0.0158  0.3096 -0.1463
16218TIP3    H170069   6.482   4.351   2.267  0.9883 -0.9002  2.5646
16218TIP3    H270070   6.473   4.502   2.269 -1.5189 -0.9269 -0.0131
16219TIP3   OH270071   0.644   0.470   3.151  0.0149 -0.1414  0.2788
16219TIP3    H170072   0.605   0.448   3.066  0.9052 -2.1760  0.3514
16219TIP3    H270073   0.571   0.508   3.201 -0.4572  1.3782 -1.4443
16220TIP3   OH270074   6.554   2.609  16.964  0.0572 -0.3502  0.3434
16220TIP3    H170075   6.566   2.572  17.051  2.0452  1.4681  0.9531
16220TIP3    H270076   6.596   2.695  16.969 -0.6520  0.2303 -2.1408
16221TIP3   OH270077   4.752   1.183   1.527 -0.0237  0.4205  0.2371
16221TIP3    H170078   4.823   1.127   1.557 -0.2011 -0.4326 -0.8660
16221TIP3    H270079   4.795   1.254   1.481  0.1299 -0.1029 -0.4442
16222TIP3   OH270080   4.979   0.978   4.309 -0.0993 -0.4260 -0.1396
16222TIP3    H170081   4.935   1.057   4.341 -0.6201 -0.9034  0.3534
16222TIP3    H270082   5.005   0.931   4.388  0.4348 -0.6306 -0.4306
16223TIP3   OH270083   5.731   2.690   4.644  0.0845 -0.1763 -0.3885
16223TIP3    H170084   5.776   2.637   4.710 -1.0135  1.4142  1.7597
16223TIP3    H270085   5.656   2.728   4.690  0.4159  2.6769 -1.9464
16224TIP3   OH270086   6.294   2.476   4.551 -0.2228  0.0407 -0.3312
16224TIP3    H170087   6.325   2.418   4.482 -1.8778 -1.0562 -0.2250
16224TIP3    H270088   6.356   2.548   4.552 -0.7402  0.6912 -3.7376
16225TIP3   OH270089   4.062   2.108   6.320 -0.3450 -0.0392 -0.5649
16225TIP3    H170090   4.071   2.160   6.240  1.3275 -1.1930 -1.1929
16225TIP3    H270091   3.985   2.052   6.305 -0.2814  0.0422 -1.2014
16226TIP3   OH270092   3.680   2.253   0.544 -0.2121 -0.4807 -0.7820
16226TIP3    H170093   3.759   2.202   0.527  0.0095 -0.3355 -0.2034
16226TIP3    H270094   3.712   2.337   0.577 -0.4943  0.6567 -3.1507
16227TIP3   OH270095   3.211   0.771   1.028 -0.8272  0.1276  0.0468
16227TIP3    H170096   3.205   0.848   0.972  1.5856  0.1060 -0.3453
16227TIP3    H270097   3.143   0.784   1.094 -1.5883  1.7376 -0.9892
16228TIP3   OH270098   5.442   3.262   5.384  0.2196  0.4314 -0.5642
16228TIP3    H170099   5.349   3.284   5.393  0.4779  1.5162 -0.4501
16228TIP3    H270100   5.487   3.346   5.386  1.0580  0.1183 -2.7640
16229TIP3   OH270101   4.983   4.864   5.809 -0.8298 -0.1414  0.0181
16229TIP3    H170102   5.017   4.942   5.764 -0.2685 -0.8200 -0.7567
16229TIP3    H270103   4.916   4.898   5.867  0.5205  1.1290  0.9029
16230TIP3   OH270104   1.018   0.788  15.287 -0.2485  0.1423 -0.9718
16230TIP3    H170105   1.011   0.743  15.203 -0.6836 -1.7689  0.0452
16230TIP3    H270106   1.034   0.719  15.351 -1.5222  1.3544  0.7572
16231TIP3   OH270107   6.588   5.587   2.095 -0.2553 -0.3055  0.0475
16231TIP3    H170108   6.683   5.597   2.090 -0.4478  1.3037 -2.4576
16231TIP3    H270109   6.558   5.608   2.007 -3.0076 -0.1923  0.9332
16232TIP3   OH270110   1.449   3.828   1.223 -0.0006  0.3730 -0.6714
16232TIP3    H170111   1.517   3.797   1.282 -0.4793  1.5411  0.5491
16232TIP3    H270112   1.490   3.828   1.136  0.6788 -1.4778 -0.3993
16233TIP3   OH270113   1.002   3.557   1.511 -0.3199 -0.2449 -0.6865
16233TIP3    H170114   1.004   3.567   1.416 -0.5701  1.7351 -0.5266
16233TIP3    H270115   1.049   3.634   1.544 -2.2181  0.3417  0.8392
16234TIP3   OH270116   2.900   5.121   5.163  0.4209  0.0023  0.6958
16234TIP3    H170117   2.948   5.127   5.246  1.9378 -0.6652 -0.0838
16234TIP3    H270118   2.957   5.165   5.099  0.3671 -1.4416 -0.3939
16235TIP3   OH270119   0.612   3.617  13.424  0.2535  0.0208 -0.1957
16235TIP3    H170120   0.639   3.532  13.391  0.9105  0.3378 -0.4882
16235TIP3    H270121   0.552   3.651  13.358 -0.1080 -0.2637 -0.0176
16236TIP3   OH270122   1.140   0.640  11.510  0.1017  0.3509 -0.3313
16236TIP3    H170123   1.077   0.691  11.562  0.0214 -0.2732  0.1905
16236TIP3    H270124   1.222   0.690  11.517 -0.2542  1.0152 -0.7749
16237TIP3   OH270125   2.770   5.120  14.650 -0.2050 -0.2860 -0.0056
16237TIP3    H170126   2.678   5.146  14.658 -0.2172  0.0940 -1.2217
16237TIP3    H270127   2.799   5.107  14.741 -1.4984 -0.5959  0.3880
16238TIP3   OH270128   0.793   4.009  12.316  0.4313  0.2658  0.5886
16238TIP3    H170129   0.811   3.919  12.341 -0.9506 -0.0440  0.5460
16238TIP3    H270130   0.808   4.012  12.222  1.6661  0.4030  0.7765
16239TIP3   OH270131   5.164   3.834  12.351 -0.0081 -0.2830 -0.7233
16239TIP3    H170132   5.144   3.887  12.428 -1.8691 -1.0933 -0.5844
16239TIP3    H270133   5.170   3.897  12.280 -0.3283  0.2926 -0.2480
16240TIP3   OH270134   1.826   6.442   4.448  0.1723 -0.5410 -0.6116
16240TIP3    H170135   1.774   6.477   4.375  1.5527 -0.6831 -1.7228
16240TIP3    H270136   1.917   6.449   4.417  0.8601  0.1198  1.4373
16241TIP3   OH270137   0.961   0.402   0.536  0.0780  0.2951  0.2912
16241TIP3    H170138   0.999   0.315   0.549 -0.3140 -0.0167 -0.5938
16241TIP3    H270139   0.968   0.444   0.622  0.5420 -0.4993  0.6526
16242TIP3   OH270140   3.255   5.180   3.221 -0.3466 -0.4714 -0.0957
16242TIP3    H170141   3.186   5.115   3.237 -1.2398 -0.2196 -2.5413
16242TIP3    H270142   3.335   5.128   3.209 -1.3797 -1.4894 -4.0477
16243TIP3   OH270143   3.583   5.684   3.523  0.1040 -0.2109  0.1867
16243TIP3    H170144   3.629   5.604   3.548 -0.9204 -0.4538  1.3965
16243TIP3    H270145   3.630   5.754   3.569  1.2713 -0.0281 -1.2187
16244TIP3   OH270146   2.660   3.429   1.057  0.0819 -0.4681 -0.2467
16244TIP3    H170147   2.592   3.466   1.114 -0.2274 -0.6094 -0.5251
16244TIP3    H270148   2.615   3.362   1.005  0.1808  0.2224 -1.2437
16245TIP3   OH270149   2.745   2.146  15.812 -0.0531 -0.7921  0.2294
16245TIP3    H170150   2.656   2.168  15.786  0.0573  0.0682  0.5621
16245TIP3    H270151   2.747   2.159  15.907  0.2921 -1.2933  0.2973
16246TIP3   OH270152   4.726   0.140   2.529  0.4406  0.0802  0.4373
16246TIP3    H170153   4.711   0.129   2.435 -0.0988 -0.4824  0.5822
16246TIP3    H270154   4.692   0.060   2.568 -1.9717  1.4369  1.3752
16247TIP3   OH270155   5.810   6.656  13.666 -0.0732 -0.2224 -0.0977
16247TIP3    H170156   5.746   6.626  13.730 -0.8984  0.4428 -0.5933
16247TIP3    H270157   5.887   6.679  13.718 -0.1077 -1.3389  0.4709
16248TIP3   OH270158   0.688   2.239  11.358  0.1996 -0.4733 -0.0901
16248TIP3    H170159   0.708   2.282  11.275 -2.9581  3.0614  0.6931
16248TIP3    H270160   0.613   2.183  11.339  0.2461 -0.6177  0.1467
16249TIP3   OH270161   2.745   4.697   1.682 -0.1192 -0.1831  0.9410
16249TIP3    H170162   2.741   4.603   1.701  1.1552 -0.4579  0.0079
16249TIP3    H270163   2.773   4.737   1.764 -0.2192 -0.6732  1.2157
16250TIP3   OH270164   4.713   5.086   0.864 -0.3691  0.0744 -0.1967
16250TIP3    H170165   4.765   5.009   0.884 -0.8652 -0.0005  0.9009
16250TIP3    H270166   4.764   5.134   0.799  1.0085 -0.0688  0.7315
16251TIP3   OH270167   5.726   1.767  12.120  0.8182 -0.0938 -0.2571
16251TIP3    H170168   5.737   1.676  12.151 -1.8204 -0.4420 -0.1231
16251TIP3    H270169   5.689   1.758  12.032  2.2545  0.8996 -0.9933
16252TIP3   OH270170   3.005   0.911  11.808 -0.2805 -0.7762  1.0144
16252TIP3    H170171   2.972   0.940  11.723  1.4203 -0.2531  0.4913
16252TIP3    H270172   3.096   0.887  11.792 -0.6655 -3.3363  2.1310
16253TIP3   OH270173   4.130   5.503  12.457  0.0258  0.3131 -0.2786
16253TIP3    H170174   4.198   5.481  12.393  1.0952 -1.0999  1.2757
16253TIP3    H270175   4.070   5.428  12.455  0.1199  0.2156  0.4399
16254TIP3   OH270176   1.021   4.353  11.155  0.0878  0.0729 -0.0769
16254TIP3    H170177   1.073   4.393  11.225 -0.8264  0.0134  0.6562
16254TIP3    H270178   0.993   4.426  11.101  0.2356  0.1905  0.0048
16255TIP3   OH270179   3.419   6.317  10.508 -0.5754  0.3465  0.1599
16255TIP3    H170180   3.471   6.241  10.482 -1.2685  0.1851 -0.7770
16255TIP3    H270181   3.346   6.281  10.559  0.3944  0.6022  1.8019
16256TIP3   OH270182   0.166   1.935  13.743  0.4702 -0.2710  0.2016
16256TIP3    H170183   0.172   1.841  13.725  0.3572 -0.3639  0.6513
16256TIP3    H270184   0.126   1.972  13.664 -2.2482 -0.9864  1.1381
16257TIP3   OH270185   1.332   4.828   6.683 -0.0598 -0.0724 -0.1938
16257TIP3    H170186   1.329   4.767   6.757  1.3419  1.9501  1.6504
16257TIP3    H270187   1.320   4.914   6.723  0.4311  1.0688 -2.3817
16258TIP3   OH270188   3.628   5.952   1.294  0.0619 -0.0493 -0.1653
16258TIP3    H170189   3.577   6.033   1.301  1.7067  1.0918 -0.7577
16258TIP3    H270190   3.653   5.933   1.384 -0.4807 -0.0100  0.0007
16259TIP3   OH270191   4.134   5.134   2.213 -0.9770 -0.3811  0.3791
16259TIP3    H170192   4.220   5.154   2.250 -0.6181  1.2160 -1.1923
16259TIP3    H270193   4.150   5.065   2.149 -1.0293 -0.7058  0.7110
16260TIP3   OH270194   6.455   2.213  17.092  0.4661  0.1947 -0.7435
16260TIP3    H170195   6.540   2.219  17.137  0.2635 -1.2450 -0.0894
16260TIP3    H270196   6.400   2.277  17.136  0.5487 -0.5287  0.4837
16261TIP3   OH270197   0.678   2.693  15.391 -0.5061 -1.0252  0.1179
16261TIP3    H170198   0.729   2.700  15.471 -0.4450 -1.0551  0.0817
16261TIP3    H270199   0.653   2.783  15.371 -0.4907 -1.0137  0.1508
16262TIP3   OH270200   1.490   0.338  16.346  0.0179  0.2224 -0.0117
16262TIP3    H170201   1.513   0.300  16.262 -0.8996 -0.4278  0.0183
16262TIP3    H270202   1.409   0.294  16.372  1.0416 -0.6503  1.9012
16263TIP3   OH270203   3.458   0.209   4.115  0.9372 -0.1711  0.6273
16263TIP3    H170204   3.459   0.115   4.095  1.0195 -0.0703  0.1504
16263TIP3    H270205   3.547   0.238   4.096  0.6417  0.2072 -0.2364
16264TIP3   OH270206   1.938   4.949  13.654 -0.1564  0.0410 -0.2207
16264TIP3    H170207   1.865   4.924  13.598 -1.4921  2.2522  0.4496
16264TIP3    H270208   1.916   4.915  13.740  1.8300 -3.2265 -0.8001
16265TIP3   OH270209   2.236   3.955  13.301  0.0199  0.4926 -0.5019
16265TIP3    H170210   2.300   3.992  13.362  0.9798 -0.1075 -1.1029
16265TIP3    H270211   2.268   3.866  13.285 -2.1802 -0.6034  0.8541
16266TIP3   OH270212   4.068   3.085   0.773 -0.5464 -0.6048  0.9668
16266TIP3    H170213   4.051   3.035   0.853 -3.3532 -0.9130  0.2790
16266TIP3    H270214   4.037   3.028   0.702  1.6675 -0.2569 -0.4046
16267TIP3   OH270215   5.706   2.800  13.870  0.4936 -0.2943 -0.1648
16267TIP3    H170216   5.739   2.887  13.847 -2.4493  0.8357 -0.5550
16267TIP3    H270217   5.684   2.806  13.963 -1.8720  0.2107 -0.7076
16268TIP3   OH270218   0.712   4.398   0.118 -0.3609  0.3018 -0.1541
16268TIP3    H170219   0.770   4.340   0.167 -2.7238 -1.7288  0.4575
16268TIP3    H270220   0.669   4.452   0.185  0.8123  1.8812 -0.6081
16269TIP3   OH270221   3.091   6.402   1.193  0.3521  0.6973  0.4804
16269TIP3    H170222   3.107   6.496   1.202 -2.4396  1.2369  0.9319
16269TIP3    H270223   3.073   6.389   1.100  1.6583  0.4045  0.2553
16270TIP3   OH270224   0.188   1.087  12.094 -0.1855  0.4127 -0.0697
16270TIP3    H170225   0.232   1.003  12.096  0.0870  0.4826 -1.8130
16270TIP3    H270226   0.139   1.091  12.176  0.3578 -1.1234  0.3480
16271TIP3   OH270227   2.854   5.345   3.197  0.1066  0.0482  0.0635
16271TIP3    H170228   2.912   5.385   3.263  0.9937 -1.6625  0.3829
16271TIP3    H270229   2.774   5.397   3.201  1.1162  1.6544  0.5818
16272TIP3   OH270230   6.313   6.402   1.765  0.2491  0.3170  0.0065
16272TIP3    H170231   6.396   6.407   1.718  0.1017  0.8661 -0.1960
16272TIP3    H270232   6.337   6.411   1.858  0.5466 -0.8452  0.0562
16273TIP3   OH270233   3.631   1.808  13.372  0.3282 -0.3797 -0.0852
16273TIP3    H170234   3.654   1.716  13.361  1.6290 -0.3938  2.1527
16273TIP3    H270235   3.711   1.849  13.405 -1.0031  0.9507  1.6788
16274TIP3   OH270236   4.965   1.046  17.048  0.1685 -0.9559 -0.3098
16274TIP3    H170237   4.960   1.088  17.134  1.0626 -0.8308 -0.3083
16274TIP3    H270238   5.006   1.112  16.992 -0.0579 -1.1775 -0.7439
16275TIP3   OH270239   1.155   5.453   3.013  0.4216  0.3395  0.0640
16275TIP3    H170240   1.169   5.508   3.090  0.4479  0.5677 -0.1030
16275TIP3    H270241   1.137   5.366   3.049 -2.4776  1.0083  0.4609
16276TIP3   OH270242   2.366   0.061   2.312  0.1259 -0.2133 -0.8672
16276TIP3    H170243   2.303   0.089   2.245  0.8917  0.7782 -1.1983
16276TIP3    H270244   2.431   0.010   2.264  0.1291 -0.3637 -0.7042
16277TIP3   OH270245   5.434   2.856  13.437  0.4332 -0.3048  0.0138
16277TIP3    H170246   5.435   2.765  13.405  0.1568 -0.2955 -0.0208
16277TIP3    H270247   5.526   2.877  13.450  0.4364 -1.3427  2.1772
16278TIP3   OH270248   6.348   3.163  11.692  0.0298 -0.1613 -0.5240
16278TIP3    H170249   6.419   3.138  11.632  1.7474  1.5491  0.6720
16278TIP3    H270250   6.320   3.249  11.661  0.9625  0.7647  1.0469
16279TIP3   OH270251   5.241   4.119   6.793  0.5439  0.0899 -0.0030
16279TIP3    H170252   5.243   4.164   6.878  1.7773  1.6608 -0.8133
16279TIP3    H270253   5.302   4.045   6.804 -1.1433 -1.2245  1.1883
16280TIP3   OH270254   3.400   2.532   0.080 -0.2951  0.1972  0.0014
16280TIP3    H170255   3.353   2.613   0.063 -0.4115  0.4409  1.3333
16280TIP3    H270256   3.407   2.528   0.176  0.3525 -0.9949 -0.0706
16281TIP3   OH270257   0.782   3.688  14.543 -0.3521  0.3276 -0.2551
16281TIP3    H170258   0.860   3.684  14.488 -0.2469 -1.6640 -0.0653
16281TIP3    H270259   0.807   3.745  14.616  1.6177 -1.6005  0.7062
16282TIP3   OH270260   4.247   3.941  14.041 -0.6481 -0.0156 -0.0693
16282TIP3    H170261   4.310   3.944  14.114 -0.9276 -0.3706  0.1917
16282TIP3    H270262   4.272   4.014  13.985 -1.1053  0.9516  0.9427
16283TIP3   OH270263   4.610   0.089  12.557 -0.1461  0.2403  0.6212
16283TIP3    H170264   4.606   0.131  12.471 -0.1502 -0.4696  0.2746
16283TIP3    H270265   4.673   0.018  12.547 -0.6996 -0.3191  0.9978
16284TIP3   OH270266   3.625   2.807  15.142  0.1410 -0.3155  0.1707
16284TIP3    H170267   3.580   2.889  15.162  1.8816  0.6259  0.4736
16284TIP3    H270268   3.686   2.829  15.072  1.8694 -0.8807  1.4113
16285TIP3   OH270269   5.591   3.931   3.676  0.4258 -0.2589 -0.4103
16285TIP3    H170270   5.519   3.993   3.691  1.3520  0.5298  0.8598
16285TIP3    H270271   5.626   3.957   3.591 -1.1875 -1.0980 -1.4016
16286TIP3   OH270272   2.016   6.379  14.947 -0.0501 -0.0652 -0.2735
16286TIP3    H170273   1.994   6.425  14.866 -0.9424  0.2663  0.1408
16286TIP3    H270274   1.994   6.287  14.929 -0.6204  0.0682 -0.2827
16287TIP3   OH270275   1.128   0.324  14.803  0.1001  0.1394 -0.0559
16287TIP3    H170276   1.159   0.276  14.726  0.2287  1.6878 -1.0126
16287TIP3    H270277   1.182   0.403  14.806 -0.6616  0.6528  0.9666
16288TIP3   OH270278   5.505   3.112  12.841  0.0186  0.3819 -0.3490
16288TIP3    H170279   5.440   3.182  12.835 -1.0883 -0.4824  0.9911
16288TIP3    H270280   5.584   3.156  12.874 -0.0699  1.3151 -1.3291
16289TIP3   OH270281   2.461   1.171   5.112 -0.3422  0.4161 -0.2193
16289TIP3    H170282   2.549   1.136   5.100 -0.4856  0.8536 -3.4208
16289TIP3    H270283   2.475   1.261   5.143  0.3469  0.4081 -0.4956
16290TIP3   OH270284   1.187   5.954   5.443  0.0737  0.3128  0.0514
16290TIP3    H170285   1.130   5.915   5.510  0.3879  2.0696  1.4346
16290TIP3    H270286   1.128   6.007   5.390  0.2271  1.3166  0.8493
16291TIP3   OH270287   6.773   0.697  13.493  0.5941 -0.8422  0.2097
16291TIP3    H170288   6.696   0.688  13.438  0.7144 -1.3821  0.1258
16291TIP3    H270289   6.773   0.789  13.520  0.6331 -0.5302 -0.8291
16292TIP3   OH270290   1.077   6.237  13.219  0.0644 -0.6968 -0.6597
16292TIP3    H170291   1.132   6.287  13.280 -2.8522  0.9222  0.8557
16292TIP3    H270292   1.033   6.172  13.273 -0.7008 -0.9119 -1.5108
16293TIP3   OH270293   5.723   4.435  13.751  0.0025  0.0300 -0.0635
16293TIP3    H170294   5.760   4.363  13.803  1.0858  0.7397  0.1696
16293TIP3    H270295   5.744   4.514  13.800 -2.3236  0.4586  0.3588
16294TIP3   OH270296   6.155   5.264   0.862  0.5564  0.5839 -0.1539
16294TIP3    H170297   6.151   5.242   0.955 -3.0590 -1.2593 -0.5679
16294TIP3    H270298   6.150   5.179   0.817 -0.9269  1.5760 -1.9794
16295TIP3   OH270299   1.733   5.796  14.584  0.3735 -0.2807 -0.1792
16295TIP3    H170300   1.797   5.855  14.624 -1.2509  0.5562  1.3220
16295TIP3    H270301   1.725   5.723  14.645 -0.2669 -0.2711 -0.2419
16296TIP3   OH270302   5.994   0.966  15.244  0.2604 -0.0982 -0.3010
16296TIP3    H170303   6.000   0.923  15.329  1.4600  2.5628  1.1204
16296TIP3    H270304   6.085   0.968  15.212 -0.0375 -0.2366 -1.1734
16297TIP3   OH270305   5.554   4.721   1.145  0.6241  0.7341 -0.0077
16297TIP3    H170306   5.561   4.796   1.085  1.5369 -0.6803 -1.7746
16297TIP3    H270307   5.538   4.646   1.088  3.4556 -0.9931  1.2390
16298TIP3   OH270308   0.499   3.355   1.108  0.1872  0.0338 -0.6033
16298TIP3    H170309   0.465   3.391   1.189 -0.2329 -0.6645 -0.4602
16298TIP3    H270310   0.423   3.350   1.050  0.2966 -0.3593 -0.7146
16299TIP3   OH270311   6.359   3.555   0.601 -0.0438  0.2203 -0.9679
16299TIP3    H170312   6.264   3.551   0.597 -0.0780  0.4995 -0.4869
16299TIP3    H270313   6.386   3.468   0.631 -0.2915  0.8248  1.1686
16300TIP3   OH270314   5.947   1.799   2.390  0.1904 -0.0290  0.9827
16300TIP3    H170315   6.029   1.770   2.351 -0.3860 -0.2628 -0.0981
16300TIP3    H270316   5.940   1.748   2.471  0.8045 -0.4672  0.7733
16301TIP3   OH270317   5.886   3.598  16.510 -0.0676 -0.0365 -0.6394
16301TIP3    H170318   5.962   3.582  16.454  1.0490 -1.5674  1.2126
16301TIP3    H270319   5.923   3.625  16.594 -1.6137  0.1003  0.0272
16302TIP3   OH270320   0.538   1.528   2.993 -0.2335  0.1287  0.0073
16302TIP3    H170321   0.535   1.616   2.957 -1.2894 -0.3409 -1.1335
16302TIP3    H270322   0.446   1.500   2.996  0.2116 -1.7298 -1.7470
16303TIP3   OH270323   3.741   0.261   2.990 -0.2808  0.0227 -0.1801
16303TIP3    H170324   3.741   0.221   2.903 -0.1431 -0.6553  0.1196
16303TIP3    H270325   3.662   0.315   2.992 -1.6329 -1.8512  0.0914
16304TIP3   OH270326   4.347   0.474  12.480 -0.0435  0.4484 -0.1238
16304TIP3    H170327   4.320   0.491  12.390 -1.6199 -1.8459 -0.1712
16304TIP3    H270328   4.292   0.532  12.533 -0.0700  0.8209 -0.5500
16305TIP3   OH270329   1.391   2.156   3.363 -0.8281  0.2823 -0.0607
16305TIP3    H170330   1.428   2.092   3.424  1.7748  0.3297 -1.4515
16305TIP3    H270331   1.368   2.105   3.285 -0.7826  0.7033 -0.3567
16306TIP3   OH270332   5.408   1.682   0.616  0.3216  0.2567 -0.2186
16306TIP3    H170333   5.416   1.696   0.710  2.4330 -0.4010 -0.2623
16306TIP3    H270334   5.494   1.652   0.588  0.0237  1.2892 -2.5301
16307TIP3   OH270335   1.411   3.736  11.770  0.6745  0.7038 -0.2442
16307TIP3    H170336   1.470   3.804  11.802  1.8113  1.3327 -3.3308
16307TIP3    H270337   1.358   3.779  11.703 -2.1164 -0.3234  1.1378
16308TIP3   OH270338   6.187   0.077   2.131 -0.3458  0.4708 -0.0610
16308TIP3    H170339   6.191   0.021   2.053  0.7421  1.3283 -0.6490
16308TIP3    H270340   6.278   0.081   2.162 -0.8847 -0.5631  1.7879
16309TIP3   OH270341   2.171   2.665   1.863 -0.0786 -0.5263 -0.2001
16309TIP3    H170342   2.179   2.615   1.945  2.9848 -1.8574 -1.1743
16309TIP3    H270343   2.146   2.599   1.798 -0.8973  0.2110 -0.6514
16310TIP3   OH270344   5.541   0.115   2.660  0.3038  0.0645 -0.6231
16310TIP3    H170345   5.496   0.037   2.627 -1.2852  0.5411  0.2980
16310TIP3    H270346   5.510   0.125   2.750  0.1803  1.9654 -0.8310
16311TIP3   OH270347   5.490   2.446  15.376 -0.6665 -0.6805 -0.3995
16311TIP3    H170348   5.548   2.522  15.373 -2.4834  0.7741 -3.8657
16311TIP3    H270349   5.421   2.471  15.437  1.2987 -1.7803  2.4835
16312TIP3   OH270350   0.806   2.772   1.314  0.0361  0.9398 -0.0917
16312TIP3    H170351   0.829   2.689   1.356  2.1227  2.4057  1.8822
16312TIP3    H270352   0.721   2.794   1.353 -0.1455  0.1495 -0.0094
16313TIP3   OH270353   2.093   5.375   6.564  0.1092 -0.1757 -0.5012
16313TIP3    H170354   2.045   5.456   6.580 -0.2015 -0.5043  0.2759
16313TIP3    H270355   2.041   5.307   6.607 -0.6453 -1.0984 -2.7291
16314TIP3   OH270356   2.585   3.849   4.402  0.2448 -0.0297 -0.2421
16314TIP3    H170357   2.624   3.835   4.488  1.7271  1.4923 -0.6080
16314TIP3    H270358   2.542   3.766   4.381  0.7638 -0.7796  1.4954
16315TIP3   OH270359   4.615   3.791  16.128 -0.0175  0.1469  0.1313
16315TIP3    H170360   4.613   3.887  16.136 -0.1638  0.0677  1.2051
16315TIP3    H270361   4.557   3.760  16.198  0.0997 -0.7309 -0.1519
16316TIP3   OH270362   4.398   3.311  15.779 -0.2938 -0.0579 -0.1223
16316TIP3    H170363   4.378   3.353  15.863 -0.3134  0.1527 -0.2313
16316TIP3    H270364   4.315   3.315  15.731  0.0691  1.0640 -0.6824
16317TIP3   OH270365   0.300   4.752   5.259 -0.1713  0.2103  0.0566
16317TIP3    H170366   0.261   4.686   5.316  1.1306  0.8010  1.7029
16317TIP3    H270367   0.375   4.785   5.308  0.9597  0.8316 -1.9798
16318TIP3   OH270368   5.361   1.254  14.792  0.0163  0.7683 -0.4625
16318TIP3    H170369   5.328   1.230  14.879 -1.6691  2.6722 -0.5202
16318TIP3    H270370   5.314   1.196  14.732 -0.2834  0.7897 -0.2521
16319TIP3   OH270371   3.984   4.318   5.531  0.1418  0.0051  0.0277
16319TIP3    H170372   3.939   4.338   5.613 -0.4673  1.1871 -0.5642
16319TIP3    H270373   4.046   4.390   5.519  2.2542 -1.5636  0.8004
16320TIP3   OH270374   4.804   3.535  13.516 -0.2346  0.1725 -0.4298
16320TIP3    H170375   4.899   3.524  13.525  0.0519  0.0104 -2.8138
16320TIP3    H270376   4.785   3.620  13.556  0.4577 -0.8301  2.2463
16321TIP3   OH270377   0.149   3.748  12.641 -0.3326 -0.1051 -0.6734
16321TIP3    H170378   0.087   3.822  12.646  0.6625  0.6776  2.3043
16321TIP3    H270379   0.234   3.787  12.661  0.3834 -1.9045 -0.0222
16322TIP3   OH270380   6.439   4.204  16.363  0.0954  0.1232  0.3393
16322TIP3    H170381   6.478   4.240  16.283 -2.4414  1.3616 -0.4720
16322TIP3    H270382   6.430   4.110  16.345  1.1521  0.0927 -0.1007
16323TIP3   OH270383   1.749   5.965   5.360 -0.0837 -0.4673 -0.0665
16323TIP3    H170384   1.806   6.013   5.420 -0.0695 -0.5969  0.0242
16323TIP3    H270385   1.661   5.976   5.395 -0.5091  1.9989 -1.6568
16324TIP3   OH270386   1.683   5.725  16.556  0.2781 -0.4716 -0.4115
16324TIP3    H170387   1.777   5.715  16.545  0.1248 -0.2604 -2.1629
16324TIP3    H270388   1.671   5.819  16.572  0.4303 -0.6569  0.9198
16325TIP3   OH270389   1.432   5.212   5.016  0.1520  0.1341 -0.1920
16325TIP3    H170390   1.356   5.271   5.012  0.7309  1.0803  1.5403
16325TIP3    H270391   1.483   5.232   4.938 -0.1512  1.2714 -0.1182
16326TIP3   OH270392   5.430   4.775  16.354 -0.2042 -0.8844 -0.6124
16326TIP3    H170393   5.445   4.852  16.299  0.1406 -0.7028 -0.2647
16326TIP3    H270394   5.390   4.711  16.295  0.7584 -0.9211 -1.2544
16327TIP3   OH270395   1.425   2.913  12.669  0.1620  0.0212 -0.4093
16327TIP3    H170396   1.469   2.828  12.668 -0.6729 -0.4058 -0.6384
16327TIP3    H270397   1.368   2.909  12.746 -0.0447  0.2990 -0.5509
16328TIP3   OH270398   0.176   6.340   3.773  0.2611 -0.5385  0.5641
16328TIP3    H170399   0.170   6.385   3.689  1.3529  1.2033  1.3661
16328TIP3    H270400   0.265   6.304   3.774 -0.2092 -1.7825  0.4289
16329TIP3   OH270401   0.028   4.141   0.227 -0.2763  0.3777  0.5645
16329TIP3    H170402   0.120   4.124   0.208 -0.2321  2.6005 -1.7697
16329TIP3    H270403   0.030   4.204   0.300 -0.0045 -0.1736  1.0386
16330TIP3   OH270404   0.884   5.400  13.043 -0.2186  0.0402 -0.2041
16330TIP3    H170405   0.853   5.408  13.133 -0.1292  2.8181 -0.3344
16330TIP3    H270406   0.804   5.392  12.991 -0.2512 -2.2943  0.0924
16331TIP3   OH270407   0.609   3.253   2.546  0.1524  0.0733 -0.1198
16331TIP3    H170408   0.523   3.259   2.589 -1.1191 -0.2119 -2.4670
16331TIP3    H270409   0.648   3.340   2.560 -1.1183  0.6806 -0.1558
16332TIP3   OH270410   3.199   2.209   1.696  0.0741 -0.2489  0.0377
16332TIP3    H170411   3.224   2.297   1.723  0.3220 -0.5016  0.6462
16332TIP3    H270412   3.177   2.217   1.603  2.8076 -0.0893 -0.6846
16333TIP3   OH270413   1.420   1.731  15.119 -0.4582 -0.3865 -0.1589
16333TIP3    H170414   1.342   1.765  15.075 -1.5676 -1.4953  0.8816
16333TIP3    H270415   1.391   1.711  15.207  1.1628 -0.3399  0.4198
16334TIP3   OH270416   5.112   1.811   2.618  0.6103  0.3762 -0.0291
16334TIP3    H170417   5.192   1.863   2.616  1.0953 -0.3690 -1.0519
16334TIP3    H270418   5.107   1.779   2.708  1.9195 -0.2100 -0.1273
16335TIP3   OH270419   0.858   0.395  14.724  0.1411 -0.1118  0.3223
16335TIP3    H170420   0.939   0.351  14.748 -0.3416  0.3162  2.9897
16335TIP3    H270421   0.792   0.326  14.722  0.6198 -0.6608 -2.9173
16336TIP3   OH270422   2.633   6.612   0.649 -0.5886  0.2138 -0.0700
16336TIP3    H170423   2.706   6.667   0.622 -0.0700 -0.9087 -1.0428
16336TIP3    H270424   2.651   6.589   0.740  1.4890 -1.8352 -0.8979
16337TIP3   OH270425   1.905   4.809  12.364  0.6892  0.2003 -0.4184
16337TIP3    H170426   1.834   4.805  12.300 -0.7550  0.5962  1.1038
16337TIP3    H270427   1.884   4.741  12.428  0.6182  1.5654  1.0657
16338TIP3   OH270428   4.037   2.597   1.944 -0.5258  0.2659  0.3533
16338TIP3    H170429   4.103   2.658   1.977  0.3958 -0.1035 -0.7398
16338TIP3    H270430   3.959   2.614   1.998  0.5069  0.5655  1.8225
16339TIP3   OH270431   5.965   5.741  13.884  0.4402 -0.0728  0.8015
16339TIP3    H170432   5.899   5.682  13.848  0.0140  1.1258 -0.4593
16339TIP3    H270433   6.039   5.684  13.904  0.7096 -0.8710 -1.9937
16340TIP3   OH270434   4.654   2.999  13.230  0.0587 -0.3778 -0.4349
16340TIP3    H170435   4.711   3.011  13.154  1.3517 -0.5811  0.4682
16340TIP3    H270436   4.567   2.989  13.192  0.4102  1.1763 -1.7901
16341TIP3   OH270437   1.472   1.665  14.836  0.7843 -0.2399  0.5712
16341TIP3    H170438   1.428   1.701  14.914  0.1725 -2.3955  1.2748
16341TIP3    H270439   1.523   1.592  14.869  2.3683  0.2107 -0.7604
16342TIP3   OH270440   2.605   5.186  16.657 -0.2243  0.1976  0.0385
16342TIP3    H170441   2.550   5.164  16.583 -1.0855  0.0678  0.6942
16342TIP3    H270442   2.545   5.185  16.732  0.6106  0.3701  0.7229
16343TIP3   OH270443   4.751   3.809  13.200 -0.3169 -0.1131  0.1656
16343TIP3    H170444   4.673   3.774  13.244 -1.6400  2.5084  0.1107
16343TIP3    H270445   4.725   3.815  13.108 -0.0566  0.7496  0.1417
16344TIP3   OH270446   0.718   2.033   2.849 -0.0604  0.4199  0.6891
16344TIP3    H170447   0.686   2.089   2.920 -1.0610  2.9640 -1.6117
16344TIP3    H270448   0.753   2.094   2.784  1.6346 -1.8479 -0.6742
16345TIP3   OH270449   4.803   1.168   5.441  0.0867 -0.2779  0.8834
16345TIP3    H170450   4.735   1.213   5.491  0.7879  0.7952  0.9044
16345TIP3    H270451   4.776   1.180   5.349  0.7454  1.0676  0.8275
16346TIP3   OH270452   5.808   1.656  13.049 -0.3116 -0.0938 -0.2983
16346TIP3    H170453   5.887   1.679  13.097  2.4088 -2.3280 -3.2229
16346TIP3    H270454   5.739   1.710  13.087  2.1237  0.5062  3.8416
16347TIP3   OH270455   4.188   5.046  11.020  0.0239  0.2356  0.2492
16347TIP3    H170456   4.124   5.009  10.960 -0.0020  0.1443  0.3323
16347TIP3    H270457   4.146   5.124  11.056  0.5879  1.1088 -0.9309
16348TIP3   OH270458   5.620   3.257  10.902  0.8196  0.1656 -0.3329
16348TIP3    H170459   5.619   3.348  10.933 -0.6985  0.4669 -1.1712
16348TIP3    H270460   5.640   3.265  10.808 -1.5662 -0.1362 -0.9231
16349TIP3   OH270461   3.893   3.917   4.393  0.6534  0.1638  0.6390
16349TIP3    H170462   3.820   3.979   4.395  0.7743  0.3346  0.0443
16349TIP3    H270463   3.859   3.839   4.436  0.2949  0.4262  0.8401
16350TIP3   OH270464   3.807   0.380  13.019  0.0989  0.2161  0.1272
16350TIP3    H170465   3.798   0.352  13.110  0.2221  1.6780  0.6156
16350TIP3    H270466   3.848   0.466  13.024  0.7148  0.0367 -1.3565
16351TIP3   OH270467   0.224   0.685   5.842 -0.1260  0.5969  0.3111
16351TIP3    H170468   0.299   0.744   5.845 -0.4619  1.1442 -1.1598
16351TIP3    H270469   0.162   0.722   5.903  0.5404  0.5040  1.0593
16352TIP3   OH270470   0.305   2.668   5.151 -0.0181  0.5984  0.1600
16352TIP3    H170471   0.344   2.654   5.238  0.5568 -1.2171 -0.3323
16352TIP3    H270472   0.231   2.726   5.167 -1.2558 -1.3828  2.2648
16353TIP3   OH270473   2.324   5.919  13.503  0.0178 -1.0448 -0.2332
16353TIP3    H170474   2.417   5.917  13.522  0.2760 -0.0256 -1.2397
16353TIP3    H270475   2.291   5.995  13.551 -0.1360 -0.9375 -0.5016
16354TIP3   OH270476   6.250   2.873  10.533 -0.5140  0.1210 -0.2494
16354TIP3    H170477   6.187   2.942  10.510 -1.3310 -0.1669  0.9830
16354TIP3    H270478   6.206   2.792  10.509 -0.4195 -0.0624  0.1922
16355TIP3   OH270479   3.476   2.304   2.212  0.4872 -0.6000  0.0234
16355TIP3    H170480   3.547   2.241   2.228  2.7123  2.2617  2.7606
16355TIP3    H270481   3.518   2.376   2.164 -1.2116  0.1396 -0.4394
16356TIP3   OH270482   3.830   1.309  15.358  0.2988 -0.0356  0.0310
16356TIP3    H170483   3.874   1.248  15.300 -2.2884 -1.3389 -0.7217
16356TIP3    H270484   3.760   1.346  15.305 -1.8097 -0.8323  2.0731
16357TIP3   OH270485   3.130   4.281  14.361 -0.2311 -0.2392 -0.1828
16357TIP3    H170486   3.174   4.278  14.446  1.3239 -0.4902 -0.9524
16357TIP3    H270487   3.089   4.367  14.358 -0.0807 -0.1269  0.7123
16358TIP3   OH270488   2.941   1.654   3.405 -0.3666 -0.0586  0.1414
16358TIP3    H170489   2.932   1.570   3.359 -1.5809  0.1731 -0.0860
16358TIP3    H270490   2.872   1.652   3.471 -1.1390  1.2039 -0.5946
16359TIP3   OH270491   0.563   5.752  14.939  0.1407 -0.5519  0.7108
16359TIP3    H170492   0.568   5.702  15.020  0.7628 -1.4539  0.1203
16359TIP3    H270493   0.505   5.701  14.882 -0.2745  0.0636  0.5618
16360TIP3   OH270494   6.392   4.194  12.195  0.3838 -0.1473 -0.0287
16360TIP3    H170495   6.392   4.248  12.274  1.9165 -1.2198  0.7714
16360TIP3    H270496   6.396   4.257  12.123 -1.1656  0.8603  0.7019
16361TIP3   OH270497   0.346   4.817   1.753  0.5668  0.0782 -0.2993
16361TIP3    H170498   0.356   4.727   1.784 -0.8867 -0.0052 -0.0012
16361TIP3    H270499   0.285   4.811   1.680  1.1118  0.7247 -0.8147
16362TIP3   OH270500   3.916   5.676  13.745 -0.5981  0.0443  0.0924
16362TIP3    H170501   3.880   5.685  13.657 -1.3035 -0.5962  0.3071
16362TIP3    H270502   3.911   5.764  13.782  0.0951  0.4052 -0.6491
16363TIP3   OH270503   0.322   4.123   4.993 -0.4467 -0.2463  0.4243
16363TIP3    H170504   0.399   4.174   4.965 -2.0731  2.2926  0.1856
16363TIP3    H270505   0.310   4.148   5.085 -0.8183 -0.8485  0.5394
16364TIP3   OH270506   5.715   1.043  16.759 -0.2485  0.0322 -0.4736
16364TIP3    H170507   5.666   1.119  16.728 -2.4888 -0.8509  0.6412
16364TIP3    H270508   5.679   0.970  16.710 -1.0771 -0.8249  1.3140
16365TIP3   OH270509   0.414   3.922   1.096  0.3411 -0.1515  0.5737
16365TIP3    H170510   0.504   3.929   1.127  0.4543 -1.5153  0.6155
16365TIP3    H270511   0.417   3.951   1.005  0.3717  1.9711  1.1936
16366TIP3   OH270512   6.550   2.501   6.508 -0.1405 -0.1054  0.7262
16366TIP3    H170513   6.458   2.527   6.502 -0.1101 -0.3010 -1.9874
16366TIP3    H270514   6.569   2.464   6.422  2.2701 -0.8381  1.5089
16367TIP3   OH270515   1.452   3.315  10.825 -0.0273 -0.3171 -0.2171
16367TIP3    H170516   1.381   3.290  10.765 -1.1601 -3.7446  2.2747
16367TIP3    H270517   1.472   3.236  10.874  1.1859  2.0684  3.5832
16368TIP3   OH270518   4.815   0.795   1.459  0.5052  0.2058 -0.1609
16368TIP3    H170519   4.853   0.721   1.412 -1.6785 -0.4521 -1.0042
16368TIP3    H270520   4.742   0.823   1.405  0.3484  2.0072  0.9144
16369TIP3   OH270521   4.840   3.205   2.710  0.2478 -0.0745 -0.6945
16369TIP3    H170522   4.775   3.273   2.728  0.0826 -0.4624  0.2263
16369TIP3    H270523   4.841   3.198   2.614  0.9811  1.8900 -0.8672
16370TIP3   OH270524   0.222   4.273  15.320 -0.3311 -0.6206  0.3550
16370TIP3    H170525   0.207   4.238  15.232  1.8376  1.2263 -0.8653
16370TIP3    H270526   0.200   4.366  15.312 -1.3070 -0.6556  2.1538
16371TIP3   OH270527   6.784   1.349  15.123 -0.0545 -0.2566  1.0215
16371TIP3    H170528   6.857   1.396  15.162  0.0983 -0.2487  0.7346
16371TIP3    H270529   6.825   1.286  15.063 -0.2165 -1.2980  1.9725
16372TIP3   OH270530   2.282   2.716   3.666  0.1014 -0.1647  0.0944
16372TIP3    H170531   2.253   2.627   3.645 -1.7898  0.2110  0.9461
16372TIP3    H270532   2.359   2.703   3.722 -0.9458 -1.3294  1.3376
16373TIP3   OH270533   0.044   4.809   5.076 -0.3633  0.1249 -0.7232
16373TIP3    H170534   0.069   4.890   5.031  0.2245  0.5649  0.3603
16373TIP3    H270535   0.093   4.811   5.158  0.2579 -1.7046 -1.0086
16374TIP3   OH270536   6.382   2.823   0.149 -0.0314 -0.5505 -0.2132
16374TIP3    H170537   6.286   2.821   0.149 -0.2497  2.9590  1.0635
16374TIP3    H270538   6.407   2.796   0.061 -2.2735 -0.0446 -1.0646
16375TIP3   OH270539   6.594   1.738   2.098  0.1339  0.1190 -0.2787
16375TIP3    H170540   6.607   1.832   2.084  2.9999 -0.2494 -0.6696
16375TIP3    H270541   6.559   1.731   2.186  0.3483  1.5508 -0.0660
16376TIP3   OH270542   5.016   2.645   0.930 -0.1599 -0.6453 -0.2835
16376TIP3    H170543   5.110   2.649   0.947 -0.0184 -2.9064 -0.2518
16376TIP3    H270544   5.004   2.701   0.853  1.2155 -0.3250 -0.2999
16377TIP3   OH270545   5.811   3.485  15.781  0.5103 -0.1340 -0.2817
16377TIP3    H170546   5.846   3.554  15.838  1.4771 -1.3900  0.7197
16377TIP3    H270547   5.883   3.466  15.720  1.2320 -1.9317  1.0457
16378TIP3   OH270548   0.594   1.615  14.010 -0.6383 -0.0854 -0.5590
16378TIP3    H170549   0.513   1.639  13.965 -0.4765  0.6743 -0.4597
16378TIP3    H270550   0.606   1.683  14.077 -0.7618 -1.0773  0.4954
16379TIP3   OH270551   1.343   3.588   0.510  0.4685 -0.0598  0.5927
16379TIP3    H170552   1.300   3.654   0.566 -0.4366  1.0479 -1.2998
16379TIP3    H270553   1.436   3.603   0.523  0.2927  2.0466 -0.2229
16380TIP3   OH270554   6.187   6.090  16.833 -0.3810  0.1121  0.3341
16380TIP3    H170555   6.189   5.995  16.825  1.3065  0.1638 -0.1754
16380TIP3    H270556   6.166   6.121  16.745 -1.1962  0.2296  0.5580
16381TIP3   OH270557   2.987   5.397  16.994  0.0419 -0.0504  0.2276
16381TIP3    H170558   3.066   5.447  17.014 -1.0203  1.2954  1.2218
16381TIP3    H270559   2.976   5.405  16.899 -0.2383  1.8692  0.3885
16382TIP3   OH270560   5.942   3.484  17.243  0.3364 -0.3281  0.3617
16382TIP3    H170561   5.904   3.549  17.302  0.8406  0.2737  0.0242
16382TIP3    H270562   6.028   3.465  17.279  0.4343 -0.3553  0.1175
16383TIP3   OH270563   5.382   3.939   5.513  0.0367 -0.4739  0.1823
16383TIP3    H170564   5.427   3.969   5.434 -0.7640 -0.2609 -0.2089
16383TIP3    H270565   5.446   3.884   5.558  0.2514 -1.2823 -1.0433
16384TIP3   OH270566   6.663   0.088  11.677  0.0131 -0.1600  0.2253
16384TIP3    H170567   6.640   0.075  11.769  1.3131  0.3730  0.6446
16384TIP3    H270568   6.659   0.000  11.639  1.0380 -0.6479  1.1810
16385TIP3   OH270569   1.678   2.438  12.347 -0.5986  0.0753  0.1327
16385TIP3    H170570   1.721   2.352  12.354 -1.0207 -0.3037 -1.5588
16385TIP3    H270571   1.585   2.419  12.353 -0.8604  0.0333 -2.6946
16386TIP3   OH270572   5.785   0.584   4.042 -0.0256 -0.5757  0.1407
16386TIP3    H170573   5.806   0.575   4.135 -0.6574  0.2616  0.3765
16386TIP3    H270574   5.695   0.551   4.034 -0.1381 -0.2206 -0.0907
16387TIP3   OH270575   2.399   3.983  11.877 -0.2981 -0.0676  0.2908
16387TIP3    H170576   2.397   4.023  11.964 -0.3548  0.6064 -0.0142
16387TIP3    H270577   2.344   3.905  11.886 -0.3859  0.0477  0.8306
16388TIP3   OH270578   0.095   2.822  16.388  0.4560 -0.4976  0.4979
16388TIP3    H170579   0.184   2.853  16.372  0.0818 -0.1867 -1.1830
16388TIP3    H270580   0.106   2.741  16.437  1.5645  0.8394  2.6116
16389TIP3   OH270581   3.180   6.755  13.572  0.5522  0.5397 -0.4628
16389TIP3    H170582   3.243   6.826  13.581  0.6467  0.4152 -0.1408
16389TIP3    H270583   3.136   6.772  13.489 -1.9195  3.0157  1.1575
16390TIP3   OH270584   4.733   5.741   4.131 -0.2756 -0.1054  0.5036
16390TIP3    H170585   4.727   5.746   4.226  0.7444  0.1718  0.5624
16390TIP3    H270586   4.822   5.709   4.113 -0.3270  0.1831 -0.3541
16391TIP3   OH270587   4.699   0.643   4.540  0.3912  0.0638  0.2195
16391TIP3    H170588   4.644   0.618   4.614 -0.2678 -0.8822 -0.5660
16391TIP3    H270589   4.726   0.733   4.559 -0.2933  0.0570  1.2855
16392TIP3   OH270590   5.338   1.053  16.461  0.2405 -0.6578  0.5943
16392TIP3    H170591   5.364   1.021  16.375  0.9977 -1.4066  1.0830
16392TIP3    H270592   5.391   1.132  16.475 -0.1330 -0.3422  0.2366
16393TIP3   OH270593   4.133   5.069  14.205 -0.4457  0.0567  0.4440
16393TIP3    H170594   4.100   4.998  14.150  1.5783 -2.1717  1.9460
16393TIP3    H270595   4.068   5.077  14.275 -0.3965 -0.7626  0.5956
16394TIP3   OH270596   2.292   1.587  12.109 -0.0571  0.5295 -0.1569
16394TIP3    H170597   2.266   1.676  12.083  0.9960  0.6996 -0.6853
16394TIP3    H270598   2.238   1.530  12.055 -0.0882  0.8625 -0.4876
16395TIP3   OH270599   5.845   1.504  13.396 -0.3958 -0.1566 -0.1054
16395TIP3    H170600   5.897   1.575  13.435  0.9877 -0.6784 -0.9303
16395TIP3    H270601   5.762   1.546  13.371 -0.5456  0.6253  1.5310
16396TIP3   OH270602   4.733   1.288   2.132  0.2969  0.1701  0.1204
16396TIP3    H170603   4.650   1.261   2.173  0.5980  0.2458  0.7984
16396TIP3    H270604   4.798   1.230   2.172  0.3302 -1.1883 -1.7972
16397TIP3   OH270605   1.848   6.495   3.364 -0.0509  0.0517 -0.1618
16397TIP3    H170606   1.933   6.487   3.409  0.1658 -0.9452 -0.7341
16397TIP3    H270607   1.871   6.504   3.272 -0.4970  2.1125 -0.1291
16398TIP3   OH270608   3.155   1.538  14.277 -0.1590  0.1810  0.2420
16398TIP3    H170609   3.092   1.608  14.260 -0.1163  0.1886  0.1177
16398TIP3    H270610   3.166   1.495  14.192  1.4254  1.3281 -0.1613
16399TIP3   OH270611   3.623   5.061  16.251 -0.5226  0.0654  0.2595
16399TIP3    H170612   3.553   5.067  16.186 -0.3824 -0.6203  0.0411
16399TIP3    H270613   3.577   5.045  16.334 -0.6508  0.1158  0.1989
16400TIP3   OH270614   2.936   1.040   1.730 -0.3252  0.0833  0.5325
16400TIP3    H170615   3.026   1.006   1.730 -0.1148  0.6231  0.0276
16400TIP3    H270616   2.883   0.966   1.698 -0.0225 -0.1330  0.5259
16401TIP3   OH270617   1.866   5.125   3.935  0.4839  0.3907  0.6298
16401TIP3    H170618   1.912   5.204   3.905  2.2614 -1.2174 -1.1489
16401TIP3    H270619   1.782   5.127   3.888  0.9554  0.6935 -0.2211
16402TIP3   OH270620   6.207   1.787   2.927 -0.2701  0.2784  0.3986
16402TIP3    H170621   6.245   1.828   3.005 -0.6164 -0.9177  1.2224
16402TIP3    H270622   6.269   1.807   2.857 -0.6131  2.5149  0.6504
16403TIP3   OH270623   2.468   4.482   3.708 -0.0302  0.2636  0.8191
16403TIP3    H170624   2.549   4.461   3.755 -0.1208 -1.5915  0.2556
16403TIP3    H270625   2.398   4.446   3.764 -0.1766 -1.4308 -0.3745
16404TIP3   OH270626   2.123   6.495   1.869  0.5754 -0.5213 -0.4234
16404TIP3    H170627   2.115   6.536   1.783 -2.1316  0.8050  0.3375
16404TIP3    H270628   2.197   6.435   1.861  1.7462  1.0972 -3.0185
16405TIP3   OH270629   6.780   1.400  13.236 -0.1810  0.0592 -0.4300
16405TIP3    H170630   6.754   1.311  13.215 -0.8840  0.3320 -0.7537
16405TIP3    H270631   6.764   1.449  13.155 -1.6108  0.8563  0.3116
16406TIP3   OH270632   6.495   5.963   4.009  0.1828  0.4009  0.2725
16406TIP3    H170633   6.447   5.989   4.088 -0.8112  0.5368 -0.3530
16406TIP3    H270634   6.470   6.028   3.943  1.9806  1.0356  0.1584
16407TIP3   OH270635   0.847   6.237   3.501 -0.7861  0.1555 -0.6091
16407TIP3    H170636   0.873   6.294   3.573  2.1261 -1.0101 -0.6127
16407TIP3    H270637   0.818   6.156   3.543 -0.5098  0.0053 -0.7049
16408TIP3   OH270638   0.552   5.456  17.096  0.0527  0.6653 -0.1001
16408TIP3    H170639   0.630   5.411  17.127  0.1812  0.2735 -0.9535
16408TIP3    H270640   0.531   5.519  17.165  0.8221  0.4219  0.3674
16409TIP3   OH270641   4.375   6.355  15.886  0.5515 -0.4008 -0.2153
16409TIP3    H170642   4.347   6.331  15.798 -0.5793  1.2708 -0.3367
16409TIP3    H270643   4.455   6.303  15.900  0.3032 -1.3082 -1.8821
16410TIP3   OH270644   2.456   5.295  12.423 -0.0505 -0.6419 -0.2640
16410TIP3    H170645   2.422   5.380  12.452  2.7649  0.4402  0.2581
16410TIP3    H270646   2.495   5.314  12.337  3.1715 -0.5435  1.0644
16411TIP3   OH270647   3.154   0.584   3.820  0.3064  0.1531  0.4321
16411TIP3    H170648   3.103   0.503   3.830  1.4593 -0.8776 -1.5071
16411TIP3    H270649   3.195   0.597   3.905 -0.7357 -0.6969  1.0959
16412TIP3   OH270650   0.645   0.828   1.699 -0.1521  0.7056  0.1115
16412TIP3    H170651   0.687   0.796   1.619  0.2124  2.7831 -0.5721
16412TIP3    H270652   0.551   0.815   1.683 -0.0271  0.0424 -0.1413
16413TIP3   OH270653   3.584   2.920  16.206 -0.4938 -0.4143 -0.4686
16413TIP3    H170654   3.518   2.858  16.237  2.3264 -2.0190  2.9401
16413TIP3    H270655   3.550   3.006  16.232 -1.9968 -1.0146 -0.3677
16414TIP3   OH270656   2.910   0.668   0.366  0.0894  0.1715  0.9900
16414TIP3    H170657   2.906   0.634   0.276  2.3705 -4.2030  2.2549
16414TIP3    H270658   2.818   0.679   0.391 -0.6405  0.0677 -1.3295
16415TIP3   OH270659   5.882   1.691  10.835 -0.4123  0.2583  0.2180
16415TIP3    H170660   5.925   1.729  10.913 -0.2562  0.7259 -0.0921
16415TIP3    H270661   5.887   1.760  10.769 -0.5913 -0.1201 -0.1946
16416TIP3   OH270662   1.061   4.417  13.897  0.7546 -0.1959  0.4362
16416TIP3    H170663   1.069   4.465  13.815 -3.4319 -0.0824 -0.1238
16416TIP3    H270664   1.150   4.413  13.932  2.1374  2.9807 -2.2556
16417TIP3   OH270665   3.027   0.346   3.777  0.2882 -0.0549 -0.1795
16417TIP3    H170666   2.938   0.319   3.797  0.5065  1.3851  3.5670
16417TIP3    H270667   3.078   0.265   3.779 -0.4002 -0.4859  1.6727
16418TIP3   OH270668   4.457   4.272  16.610 -0.3302 -0.3251  0.2382
16418TIP3    H170669   4.464   4.235  16.522  0.9829 -0.5942  0.4298
16418TIP3    H270670   4.397   4.214  16.656  0.0069 -0.9514 -0.1045
16419TIP3   OH270671   5.422   0.618   1.998 -0.2943  0.4124 -0.0063
16419TIP3    H170672   5.390   0.707   2.008 -2.5228  0.0190 -2.5061
16419TIP3    H270673   5.432   0.585   2.087 -2.3052  2.2137  0.9422
16420TIP3   OH270674   6.050   0.368   0.524  0.4259 -0.0962  0.2796
16420TIP3    H170675   6.034   0.441   0.464 -1.3734 -0.2005  0.6015
16420TIP3    H270676   6.142   0.380   0.551  0.4693  1.4650 -0.4338
16421TIP3   OH270677   3.606   6.111   3.719  0.3154  0.5982 -0.4359
16421TIP3    H170678   3.696   6.144   3.723  0.4996  0.1692 -0.9476
16421TIP3    H270679   3.552   6.190   3.711  0.8082  0.7738 -2.5722
16422TIP3   OH270680   3.063   4.450   2.932 -0.3194  0.2878 -0.1073
16422TIP3    H170681   3.148   4.469   2.974 -1.0808 -0.4333  1.8936
16422TIP3    H270682   3.012   4.530   2.945  0.6372  1.5609 -3.1963
16423TIP3   OH270683   1.768   0.788  12.486  0.2047  0.1529 -0.3369
16423TIP3    H170684   1.756   0.778  12.581 -0.1018  0.7537 -0.3042
16423TIP3    H270685   1.863   0.787  12.475  0.2378 -0.1456 -0.0488
16424TIP3   OH270686   2.796   3.326  17.017  0.1397 -0.0195  0.3382
16424TIP3    H170687   2.867   3.342  17.079  0.7890 -1.4148 -0.0114
16424TIP3    H270688   2.838   3.285  16.942 -0.8974  0.0467 -0.2997
16425TIP3   OH270689   0.205   2.031   0.240  0.4828  0.7055  0.0677
16425TIP3    H170690   0.139   2.060   0.179  0.6692 -1.4819 -1.2912
16425TIP3    H270691   0.157   2.011   0.320 -0.4574 -0.3778 -0.7387
16426TIP3   OH270692   2.720   0.193  15.338 -0.3104 -0.4951 -0.8079
16426TIP3    H170693   2.659   0.154  15.401 -1.9504  2.5716 -0.3049
16426TIP3    H270694   2.805   0.154  15.360 -1.5052 -2.4747  0.6485
16427TIP3   OH270695   4.579   1.235  17.245 -0.0813 -0.1950  0.0849
16427TIP3    H170696   4.574   1.193  17.159  0.3954 -1.4692  0.6650
16427TIP3    H270697   4.643   1.305  17.233 -0.2461 -0.1586 -0.6653
16428TIP3   OH270698   0.301   3.543  11.709 -0.6814 -0.0620 -0.4112
16428TIP3    H170699   0.324   3.496  11.629  0.5356  0.1253 -0.1850
16428TIP3    H270700   0.205   3.548  11.706 -0.6188  1.2626 -2.6026
16429TIP3   OH270701   2.229   1.760  15.646  0.0590  0.1681  0.2390
16429TIP3    H170702   2.239   1.835  15.704  1.3778 -0.4485  0.8707
16429TIP3    H270703   2.206   1.687  15.704 -0.3230 -0.1014 -0.2448
16430TIP3   OH270704   2.777   3.405   2.650 -0.2145  0.5040  0.5350
16430TIP3    H170705   2.707   3.340   2.650  0.5843 -0.4295 -1.0882
16430TIP3    H270706   2.845   3.367   2.706  0.5754 -0.5080 -1.0278
16431TIP3   OH270707   4.037   4.701   0.400  0.3894 -0.4452 -0.4277
16431TIP3    H170708   3.993   4.751   0.331 -0.2419 -1.4030 -0.7459
16431TIP3    H270709   3.966   4.658   0.447  0.8005  0.3352  0.9593
16432TIP3   OH270710   1.168   3.893  16.537 -0.5250  0.5403 -0.5156
16432TIP3    H170711   1.211   3.885  16.452  0.4387 -0.8981  0.0687
16432TIP3    H270712   1.201   3.975  16.574  1.4479 -0.3307 -0.2516
16433TIP3   OH270713   3.521   5.778  13.026 -0.1839  0.3945  0.1697
16433TIP3    H170714   3.444   5.827  12.996 -1.0196  0.1208  1.7896
16433TIP3    H270715   3.575   5.769  12.947 -1.3533  1.4107 -0.7976
16434TIP3   OH270716   5.133   4.664   3.625  0.0434  0.4793 -0.0834
16434TIP3    H170717   5.135   4.569   3.612 -0.4331  0.4732 -0.1405
16434TIP3    H270718   5.224   4.692   3.614 -0.1306  0.3250 -2.3523
16435TIP3   OH270719   1.340   0.917  11.677 -0.1404 -0.6861 -0.2583
16435TIP3    H170720   1.311   0.917  11.585  2.1480 -1.5010 -1.0367
16435TIP3    H270721   1.309   0.834  11.712 -0.4256 -0.6820 -0.4940
16436TIP3   OH270722   5.752   5.282   3.490 -0.2281 -0.1174 -0.0774
16436TIP3    H170723   5.759   5.365   3.538  1.6880  0.2947 -0.9610
16436TIP3    H270724   5.813   5.223   3.535  1.5091  0.2390 -1.8129
16437TIP3   OH270725   0.887   4.355   0.338 -0.1772 -0.1870  0.5416
16437TIP3    H170726   0.957   4.371   0.276 -0.1047 -0.0679  0.6535
16437TIP3    H270727   0.931   4.349   0.423 -0.2039 -0.9513  0.5074
16438TIP3   OH270728   5.899   1.036   0.508 -0.2209 -0.2434 -1.0728
16438TIP3    H170729   5.968   1.002   0.451  1.9457  1.7276  0.2082
16438TIP3    H270730   5.908   0.984   0.588  1.0369  1.1215 -0.2651
16439TIP3   OH270731   5.248   6.638   0.284  0.4218 -0.0206 -0.4310
16439TIP3    H170732   5.285   6.582   0.352  0.3228  2.0455  1.4427
16439TIP3    H270733   5.319   6.700   0.264 -0.3211  0.8203 -0.5165
16440TIP3   OH270734   0.576   0.004  16.977  0.3017 -0.4405 -0.0299
16440TIP3    H170735   0.643   0.069  16.956 -0.1668  0.5229  1.2806
16440TIP3    H270736   0.625  -0.071  17.012  0.7108  0.4078  1.2926
16441TIP3   OH270737   5.501   4.196  13.118 -0.4250  0.5089 -0.0022
16441TIP3    H170738   5.410   4.169  13.104  0.0317 -0.4601 -1.3665
16441TIP3    H270739   5.501   4.241  13.202 -2.4663  1.9338 -0.6944
16442TIP3   OH270740   5.057   0.956   6.690 -0.1611 -0.4050 -0.1406
16442TIP3    H170741   5.017   0.897   6.754  0.0541 -0.5075 -0.0996
16442TIP3    H270742   4.992   1.024   6.677 -0.4843 -0.7453 -0.3185
16443TIP3   OH270743   1.795   5.628   4.538 -0.2291 -0.4075  0.0003
16443TIP3    H170744   1.707   5.658   4.563  0.0775  1.3512 -0.8794
16443TIP3    H270745   1.782   5.538   4.508 -1.8954  0.0822 -0.8723
16444TIP3   OH270746   5.722   5.066   6.740  0.4736 -0.0464 -0.3500
16444TIP3    H170747   5.664   5.017   6.683 -2.0136  1.7524  0.4813
16444TIP3    H270748   5.764   4.999   6.795 -0.4487 -1.4290 -1.2764
16445TIP3   OH270749   0.911   4.490  11.883  0.5346 -0.2498  0.5241
16445TIP3    H170750   0.925   4.553  11.954 -0.0864 -0.2281  0.6268
16445TIP3    H270751   0.839   4.527  11.833  0.2361 -0.8329  0.5256
16446TIP3   OH270752   3.351   3.199  16.655  0.4758 -0.3050 -0.2628
16446TIP3    H170753   3.413   3.268  16.633  0.2068 -0.1374 -0.5025
16446TIP3    H270754   3.320   3.222  16.743  0.4936 -0.1981 -0.2846
16447TIP3   OH270755   5.938   5.866  11.431  0.0126 -0.5514  0.5437
16447TIP3    H170756   5.889   5.813  11.494  1.4969 -2.1637  0.4200
16447TIP3    H270757   5.898   5.844  11.346  0.7403 -1.7031  0.4685
16448TIP3   OH270758   5.552   0.769  11.355 -0.5235 -0.1689 -0.0106
16448TIP3    H170759   5.518   0.830  11.289 -0.7620 -2.0628 -1.7405
16448TIP3    H270760   5.497   0.691  11.346 -0.7507 -0.4156  2.6841
16449TIP3   OH270761   3.713   3.684  14.707 -0.1131  0.7303  0.0378
16449TIP3    H170762   3.693   3.765  14.754  0.8442 -0.1859  2.1283
16449TIP3    H270763   3.806   3.689  14.688 -0.1893  0.4197 -0.4551
16450TIP3   OH270764   5.719   0.905  12.303  0.0968 -0.1170 -0.6055
16450TIP3    H170765   5.682   0.851  12.372 -1.1696 -0.2980 -1.4039
16450TIP3    H270766   5.722   0.993  12.339 -0.6373 -0.1973 -0.3428
16451TIP3   OH270767   1.585   0.222   5.248  0.0682  0.1507  0.9981
16451TIP3    H170768   1.566   0.308   5.284  0.4888 -0.0220  1.6611
16451TIP3    H270769   1.582   0.234   5.153 -0.0612  0.8513  1.0866
16452TIP3   OH270770   4.815   1.924  16.129 -0.1029  0.4965 -0.2153
16452TIP3    H170771   4.836   1.894  16.041  0.3985 -0.0232  0.0705
16452TIP3    H270772   4.842   2.016  16.130 -0.0167  0.4766 -0.5758
16453TIP3   OH270773   5.434   0.717  16.762  0.1928  0.0761 -0.2060
16453TIP3    H170774   5.385   0.661  16.702 -0.6119  1.0809 -0.5106
16453TIP3    H270775   5.434   0.669  16.845 -2.5217  0.6116  0.1915
16454TIP3   OH270776   6.515   5.776   2.825 -0.1681 -0.1622 -0.1666
16454TIP3    H170777   6.464   5.856   2.818  0.5885  0.3629  0.1694
16454TIP3    H270778   6.510   5.735   2.738 -0.0922  0.5350 -0.5002
16455TIP3   OH270779   5.521   6.143  13.962 -0.1001  0.2494  0.3148
16455TIP3    H170780   5.614   6.160  13.946  0.0421  1.1743  1.8604
16455TIP3    H270781   5.514   6.136  14.057 -1.3174 -1.8490  0.1364
16456TIP3   OH270782   5.303   3.082   0.388  0.3622  0.0326  0.0881
16456TIP3    H170783   5.254   3.017   0.439  0.2923  1.1594  1.5090
16456TIP3    H270784   5.242   3.110   0.320  0.4914 -1.5631 -0.7390
16457TIP3   OH270785   1.166   5.016  14.968 -0.6748 -0.0621  0.0239
16457TIP3    H170786   1.139   5.106  14.984  0.8693  0.4168  0.0997
16457TIP3    H270787   1.143   4.969  15.048 -0.2534  0.5822  0.5369
16458TIP3   OH270788   1.863   5.924  13.115 -0.6206 -0.1582  0.5180
16458TIP3    H170789   1.930   5.911  13.182  2.0577  1.5224 -1.6123
16458TIP3    H270790   1.837   6.015  13.125 -0.2396  0.0900 -0.6143
16459TIP3   OH270791   6.122   2.132   0.511 -0.1811  0.1407 -0.6892
16459TIP3    H170792   6.208   2.160   0.479 -0.1850 -1.2620 -2.0456
16459TIP3    H270793   6.062   2.198   0.478  0.1951  0.2962 -1.0815
16460TIP3   OH270794   4.394   4.984   3.607  0.0823 -0.0348  0.0881
16460TIP3    H170795   4.472   4.950   3.650  1.2217  0.7328 -1.2801
16460TIP3    H270796   4.406   5.079   3.608 -1.5588  0.1924  1.1421
16461TIP3   OH270797   6.426   6.475  13.161  0.0605  0.3816  0.8051
16461TIP3    H170798   6.362   6.430  13.106 -0.4782  1.0353  0.8768
16461TIP3    H270799   6.395   6.460  13.251  0.0719  0.5880  0.8450
16462TIP3   OH270800   3.135   5.855   0.955 -0.2342 -0.1678 -0.3930
16462TIP3    H170801   3.109   5.941   0.987  1.5441  0.2841 -0.0609
16462TIP3    H270802   3.109   5.794   1.025  0.0401  0.3171  0.1357
16463TIP3   OH270803   2.775   2.166  16.091 -0.2899  0.2719 -0.1484
16463TIP3    H170804   2.699   2.189  16.144 -0.1350  1.0511 -0.2466
16463TIP3    H270805   2.810   2.251  16.062 -0.6995 -0.1307 -1.9533
16464TIP3   OH270806   1.042   0.055   5.751  0.6840  0.2183 -0.1226
16464TIP3    H170807   1.120   0.015   5.713  0.7027 -0.3865  0.5383
16464TIP3    H270808   0.969   0.018   5.700  0.7680  0.0765 -0.1414
16465TIP3   OH270809   1.981   6.110  15.466 -0.0270  0.3317  0.5826
16465TIP3    H170810   2.040   6.061  15.525 -1.3225 -0.7625  1.0264
16465TIP3    H270811   1.913   6.145  15.524  1.1917  3.3104  0.3730
16466TIP3   OH270812   0.969   1.573   1.758  0.0053  0.3121 -0.2191
16466TIP3    H170813   0.971   1.494   1.812 -2.3469  0.8099  0.7314
16466TIP3    H270814   0.977   1.542   1.668  0.6599 -0.8571  0.2275
16467TIP3   OH270815   4.327   4.527  17.100 -0.1554  0.0311  0.1424
16467TIP3    H170816   4.345   4.473  17.176 -2.2521  0.6741  1.1525
16467TIP3    H270817   4.256   4.585  17.127 -0.3135  0.9463 -2.0015
16468TIP3   OH270818   4.349   4.044  16.866  0.2088 -0.0512  0.0847
16468TIP3    H170819   4.260   4.046  16.899 -0.1684  1.4434 -0.9162
16468TIP3    H270820   4.392   4.118  16.909  0.5734  0.0531 -0.4507
16469TIP3   OH270821   6.055   6.455   0.994  0.1337  0.1059  0.1216
16469TIP3    H170822   6.055   6.548   0.971  1.5738  0.1253  0.0968
16469TIP3    H270823   6.007   6.450   1.076 -0.9204  0.7063 -0.4361
16470TIP3   OH270824   3.696   6.652  15.345  0.1138 -0.3709  0.2589
16470TIP3    H170825   3.752   6.691  15.279 -0.0928 -0.4837  0.0156
16470TIP3    H270826   3.617   6.706  15.345  0.5789  0.3437  1.2426
16471TIP3   OH270827   0.745   5.557  12.472 -0.0709 -0.2893  0.3529
16471TIP3    H170828   0.787   5.642  12.481 -0.4116 -0.2040  1.1721
16471TIP3    H270829   0.652   5.577  12.463  0.0024 -0.4934 -1.1185
16472TIP3   OH270830   5.542   0.513   0.445  0.2094 -0.1039 -1.3417
16472TIP3    H170831   5.477   0.573   0.409 -0.0685  0.1710 -0.4024
16472TIP3    H270832   5.503   0.426   0.434 -1.9434  0.2096  2.2272
16473TIP3   OH270833   1.365   0.748  11.320 -0.0171 -0.2188  0.2305
16473TIP3    H170834   1.361   0.838  11.353 -0.9658 -0.9360  2.1656
16473TIP3    H270835   1.408   0.699  11.389 -0.1671 -1.4093 -0.4978
16474TIP3   OH270836   0.504   4.656   3.850  0.0997  0.5237 -0.1745
16474TIP3    H170837   0.437   4.616   3.906  0.2877  0.4342 -0.0132
16474TIP3    H270838   0.529   4.736   3.896  1.3457 -0.3088  0.6408
16475TIP3   OH270839   1.468   1.835  16.652 -0.3227  0.1189  0.0357
16475TIP3    H170840   1.463   1.925  16.683 -1.2432 -0.2667  1.0481
16475TIP3    H270841   1.517   1.789  16.719 -0.4259 -0.2737 -0.1573
16476TIP3   OH270842   1.247   5.702  15.688 -0.5302 -0.0026 -0.1856
16476TIP3    H170843   1.248   5.678  15.596 -0.9429  1.4735 -0.5862
16476TIP3    H270844   1.339   5.719  15.709 -0.4207 -0.4517 -0.2736
16477TIP3   OH270845   6.140   6.072  12.105 -0.3138 -0.8346  0.2354
16477TIP3    H170846   6.052   6.063  12.143  0.1213  0.8698  1.8067
16477TIP3    H270847   6.135   6.154  12.055  0.4870 -0.4526  0.7540
16478TIP3   OH270848   2.460   4.448  14.395 -0.0607  0.1162  0.5771
16478TIP3    H170849   2.374   4.433  14.354  1.3204  0.3496 -2.7121
16478TIP3    H270850   2.462   4.542  14.413  0.1546  0.4914 -1.1878
16479TIP3   OH270851   2.162   2.017  16.329  0.4637 -0.5656  0.3159
16479TIP3    H170852   2.210   2.099  16.344 -0.4239 -0.0091  0.1744
16479TIP3    H270853   2.141   2.018  16.236  0.5739 -1.0281  0.2853
16480TIP3   OH270854   3.258   1.814  14.969 -0.3039 -0.2366  0.2051
16480TIP3    H170855   3.210   1.874  14.912 -2.1171 -1.5081  0.2968
16480TIP3    H270856   3.213   1.819  15.053  1.1233  0.1475  0.9795
16481TIP3   OH270857   4.187   5.980  13.849 -0.3910  0.3755  0.1771
16481TIP3    H170858   4.113   6.009  13.902 -0.6154 -0.5814  0.4085
16481TIP3    H270859   4.243   5.932  13.909 -2.1757 -3.4911 -0.9296
16482TIP3   OH270860   2.643   1.183  14.929  0.1856  0.3788 -0.0389
16482TIP3    H170861   2.560   1.229  14.944 -0.8514 -1.8433  1.8485
16482TIP3    H270862   2.635   1.147  14.841 -1.0022  0.0238  0.1865
16483TIP3   OH270863   0.408   5.669   2.885 -0.4480 -0.3696  0.1332
16483TIP3    H170864   0.463   5.602   2.844 -2.2356 -0.9973 -1.4194
16483TIP3    H270865   0.443   5.752   2.853 -0.4829 -0.7695 -1.0019
16484TIP3   OH270866   4.576   5.130   5.371  0.1860  0.5807  0.0352
16484TIP3    H170867   4.627   5.128   5.290  0.8316 -1.5391  0.4487
16484TIP3    H270868   4.607   5.055   5.421 -1.1856  1.0415  1.6564
16485TIP3   OH270869   2.796   1.301  13.369  0.5474  0.2454  0.3084
16485TIP3    H170870   2.783   1.216  13.328  1.6276 -1.0351  2.4749
16485TIP3    H270871   2.857   1.346  13.310  0.9895 -0.9846 -0.2102
16486TIP3   OH270872   1.619   2.481   0.077 -0.2103 -0.1420 -0.1682
16486TIP3    H170873   1.699   2.428   0.070  0.3717  0.7716 -0.6247
16486TIP3    H270874   1.563   2.431   0.136  0.1875 -1.4205 -0.8302
16487TIP3   OH270875   2.746   1.217  14.637 -0.0870  0.0178 -0.5589
16487TIP3    H170876   2.743   1.159  14.561  1.0471  0.7412 -1.1786
16487TIP3    H270877   2.719   1.302  14.603 -0.3842  0.1597  0.0318
16488TIP3   OH270878   5.496   6.681  11.848 -0.6253  0.4625 -0.8103
16488TIP3    H170879   5.509   6.769  11.884  1.5520 -0.3163  0.5332
16488TIP3    H270880   5.523   6.688  11.757 -0.4224  1.1851 -0.7045
16489TIP3   OH270881   2.173   4.052  11.538  0.0116 -0.0671 -0.4109
16489TIP3    H170882   2.130   4.121  11.488  0.1786  0.1479 -0.2607
16489TIP3    H270883   2.166   4.080  11.629 -0.9759 -0.8447 -0.2391
16490TIP3   OH270884   2.742   5.697   2.656 -0.5594 -0.4387  0.2698
16490TIP3    H170885   2.651   5.690   2.628 -0.0591  2.5338 -2.7407
16490TIP3    H270886   2.737   5.749   2.737 -1.5181  0.6973 -0.4808
16491TIP3   OH270887   4.769   5.123  13.419 -0.1890  0.2152 -0.0323
16491TIP3    H170888   4.674   5.132  13.404 -0.3180 -1.0772 -0.0611
16491TIP3    H270889   4.781   5.153  13.509 -0.7904 -0.5451  0.3171
16492TIP3   OH270890   1.967   2.813  12.619 -0.0502 -0.0027 -0.3469
16492TIP3    H170891   1.937   2.803  12.710  1.3346 -0.4544  0.0798
16492TIP3    H270892   1.906   2.759  12.568  0.2444 -1.2261  0.5490
16493TIP3   OH270893   5.063   2.077   3.630 -0.4683 -0.7278  0.1749
16493TIP3    H170894   5.036   2.094   3.540  0.8916  0.6544 -0.0060
16493TIP3    H270895   4.999   2.123   3.684 -0.6856 -0.6981 -0.1057
16494TIP3   OH270896   5.472   3.482  12.534 -0.1155 -0.3707  0.2246
16494TIP3    H170897   5.542   3.458  12.595 -0.5647 -0.9437  0.5196
16494TIP3    H270898   5.476   3.416  12.465 -2.5293 -2.5405  1.9583
16495TIP3   OH270899   6.615   1.919   1.177  0.4091 -0.2579  0.1248
16495TIP3    H170900   6.643   1.887   1.263  0.1448 -0.7908  0.0102
16495TIP3    H270901   6.664   2.001   1.166  2.4418 -1.4684 -0.3414
16496TIP3   OH270902   4.721   0.490  11.586 -0.0489  0.1467 -0.2289
16496TIP3    H170903   4.726   0.493  11.490 -0.4750  1.4413 -0.2290
16496TIP3    H270904   4.776   0.562  11.615 -0.5857  0.2864  0.4650
16497TIP3   OH270905   5.317   2.508  11.113  0.4696 -0.2773  0.1647
16497TIP3    H170906   5.225   2.531  11.096  1.0697  0.1506 -3.1713
16497TIP3    H270907   5.365   2.589  11.100  1.3481 -0.4319  2.1747
16498TIP3   OH270908   5.451   2.049   3.151 -0.3168  0.7618  0.2542
16498TIP3    H170909   5.449   2.113   3.080 -1.6820 -0.6724 -1.0975
16498TIP3    H270910   5.461   2.101   3.230  1.3288  2.4202 -0.9635
16499TIP3   OH270911   4.574   4.894   3.806  0.1942  0.3448 -0.1396
16499TIP3    H170912   4.589   4.816   3.752  0.2303  0.3905 -0.1953
16499TIP3    H270913   4.600   4.867   3.894  2.1220  0.8812 -0.4942
16500TIP3   OH270914   4.018   6.264   2.603  0.0175  0.3978 -0.1981
16500TIP3    H170915   3.930   6.231   2.589  0.0863  0.7526 -1.6529
16500TIP3    H270916   4.012   6.316   2.683 -0.6630 -1.0020  0.6965
16501TIP3   OH270917   2.581   3.364  15.548 -0.3975 -0.3654  0.3842
16501TIP3    H170918   2.503   3.417  15.561 -0.4289  0.0909 -1.4033
16501TIP3    H270919   2.557   3.277  15.580 -1.2225  0.0559  0.9477
16502TIP3   OH270920   2.677   3.316  12.756  0.5688  1.1759 -0.1705
16502TIP3    H170921   2.725   3.376  12.699 -0.1940  3.4423  1.4271
16502TIP3    H270922   2.699   3.344  12.844 -0.5314 -0.3751  0.6515
16503TIP3   OH270923   3.754   6.120   5.725 -0.4612 -0.3565  0.3024
16503TIP3    H170924   3.687   6.052   5.712 -0.1230 -0.2902 -2.4873
16503TIP3    H270925   3.836   6.078   5.698 -0.1137  0.8858 -0.6690
16504TIP3   OH270926   2.403   1.084   4.087  0.0093 -0.0982 -0.6791
16504TIP3    H170927   2.371   1.107   3.999 -2.4467 -0.1305  0.1381
16504TIP3    H270928   2.390   0.990   4.093 -0.1105 -0.0493 -0.1691
16505TIP3   OH270929   5.699   3.675  13.273 -0.3762  0.1706 -0.4389
16505TIP3    H170930   5.753   3.738  13.226  0.3683 -0.7950 -0.8994
16505TIP3    H270931   5.621   3.725  13.299  0.6544  1.5451  0.1095
16506TIP3   OH270932   1.480   1.551   5.316  0.2841 -0.5050 -0.3399
16506TIP3    H170933   1.386   1.538   5.318  0.1123  0.6670 -0.1690
16506TIP3    H270934   1.498   1.616   5.384  1.2075 -0.6611 -0.4128
16507TIP3   OH270935   4.193   2.585   4.978 -0.5918 -0.0625  0.0931
16507TIP3    H170936   4.195   2.580   5.073  1.9621 -1.3249  0.0437
16507TIP3    H270937   4.229   2.671   4.957  1.6533 -0.8915  0.2901
16508TIP3   OH270938   2.580   2.205  13.441 -0.0284  0.1418 -0.4894
16508TIP3    H170939   2.491   2.199  13.407 -1.4182 -0.0780  2.7970
16508TIP3    H270940   2.598   2.299  13.446 -0.4736  0.2198 -0.3004
16509TIP3   OH270941   4.285   5.955   4.073  0.2285  0.1943  0.2367
16509TIP3    H170942   4.256   6.020   4.010 -1.4904 -1.1494 -0.4619
16509TIP3    H270943   4.365   5.991   4.111 -1.3247  3.3094  0.8548
16510TIP3   OH270944   5.861   6.022  12.142 -0.2483 -0.2362  0.1529
16510TIP3    H170945   5.890   5.933  12.166  0.2501 -0.5193 -1.3947
16510TIP3    H270946   5.770   6.011  12.115  0.1020 -0.4784 -0.9859
16511TIP3   OH270947   4.374   5.566  15.833  0.0139  0.0497  0.5035
16511TIP3    H170948   4.418   5.649  15.815  1.8909 -0.8674  0.6070
16511TIP3    H270949   4.433   5.500  15.798 -0.5625 -1.3348  2.0102
16512TIP3   OH270950   1.776   6.353   5.865  0.6072 -0.2165  0.0766
16512TIP3    H170951   1.864   6.348   5.901  1.4480 -1.8722 -2.0066
16512TIP3    H270952   1.788   6.382   5.775 -1.0865  0.4322  0.0259
16513TIP3   OH270953   1.625   0.744   2.351 -0.2705  0.0899 -0.5689
16513TIP3    H170954   1.707   0.762   2.305 -0.3764 -1.5248 -1.4404
16513TIP3    H270955   1.596   0.660   2.317 -2.8827  1.1386 -1.1097
16514TIP3   OH270956   1.324   2.527   1.538 -0.1228 -0.4632  0.1467
16514TIP3    H170957   1.273   2.606   1.520 -0.6016 -0.7497  0.2390
16514TIP3    H270958   1.261   2.455   1.534  0.2329 -0.8033  0.4648
16515TIP3   OH270959   4.289   2.460  11.824 -0.7196 -0.2294  0.3201
16515TIP3    H170960   4.329   2.394  11.767 -0.7560 -0.0318  0.0652
16515TIP3    H270961   4.359   2.522  11.841 -1.0122  0.3139 -0.4232
16516TIP3   OH270962   1.192   1.169  13.086 -0.1590 -0.3757  0.3218
16516TIP3    H170963   1.280   1.176  13.048  0.2587  0.1805  1.3468
16516TIP3    H270964   1.175   1.075  13.091  0.0698 -0.4729 -0.5545
16517TIP3   OH270965   0.745   1.556  14.246  0.4962  0.0155 -0.0778
16517TIP3    H170966   0.683   1.531  14.177  1.2259 -1.7816 -0.1302
16517TIP3    H270967   0.691   1.595  14.314 -0.7240 -1.4481 -0.1487
16518TIP3   OH270968   0.797   1.089   2.272  0.1125 -0.1927  0.0357
16518TIP3    H170969   0.887   1.110   2.296  0.0634 -1.6312  1.6875
16518TIP3    H270970   0.803   1.058   2.182  1.5158 -1.5166  0.5280
16519TIP3   OH270971   3.380   3.352  15.642  0.4848 -0.2513 -0.0892
16519TIP3    H170972   3.325   3.426  15.668  0.3301 -0.1101 -0.7993
16519TIP3    H270973   3.401   3.308  15.724  1.2068  1.0143  0.4261
16520TIP3   OH270974   6.221   4.821   0.397  0.3093  0.3141 -0.2169
16520TIP3    H170975   6.221   4.916   0.392  2.0211  0.3802  0.2758
16520TIP3    H270976   6.251   4.792   0.311  1.6180  0.3209  0.2135
16521TIP3   OH270977   3.163   4.280   0.485  0.4034 -0.0891 -0.3282
16521TIP3    H170978   3.085   4.336   0.488  1.1855  1.0269 -0.3445
16521TIP3    H270979   3.137   4.200   0.531  0.2771  1.6207  2.8227
16522TIP3   OH270980   0.475   1.523  16.516  0.1946  0.1362  0.6079
16522TIP3    H170981   0.518   1.438  16.516 -1.1918 -0.5977  1.7213
16522TIP3    H270982   0.450   1.538  16.425 -0.9740 -1.4151  0.6407
16523TIP3   OH270983   2.233   2.993   0.436  0.0267 -0.0330  0.1536
16523TIP3    H170984   2.212   3.013   0.527 -1.7009 -1.0702  0.0295
16523TIP3    H270985   2.204   2.903   0.424  1.1452 -0.2536 -1.1750
16524TIP3   OH270986   5.743   5.530  13.178  0.6208  0.2629 -0.5858
16524TIP3    H170987   5.791   5.604  13.140  1.2035  0.1266 -0.1304
16524TIP3    H270988   5.731   5.470  13.104 -0.0090  0.8754 -0.9976
16525TIP3   OH270989   3.426   0.431   2.131 -0.0725 -0.1261  0.1053
16525TIP3    H170990   3.504   0.381   2.156  0.2393 -0.8131 -2.0965
16525TIP3    H270991   3.435   0.514   2.179  0.8913 -1.0199  1.5522
16526TIP3   OH270992   3.593   2.396   5.845 -0.1851  0.3385  0.5001
16526TIP3    H170993   3.548   2.471   5.885 -0.5442  0.1441  0.4671
16526TIP3    H270994   3.654   2.365   5.912 -1.5894 -0.7009  1.3574
16527TIP3   OH270995   1.485   5.637  11.397 -0.7922  0.2766 -0.7860
16527TIP3    H170996   1.394   5.666  11.387 -0.5632  0.8891 -1.1893
16527TIP3    H270997   1.486   5.548  11.363 -1.2687  0.2246 -0.6680
16528TIP3   OH270998   0.511   1.088   0.758 -0.0732  0.1415 -0.0540
16528TIP3    H170999   0.428   1.134   0.743 -0.0690  0.5866  1.1596
16528TIP3    H271000   0.560   1.145   0.817  1.1090 -0.1198 -0.7425
16529TIP3   OH271001   0.596   6.644   1.532 -0.1332  0.4593  0.6740
16529TIP3    H171002   0.675   6.644   1.585 -0.3410  1.9250  1.0306
16529TIP3    H271003   0.550   6.564   1.557  2.1680 -1.5335 -1.0516
16530TIP3   OH271004   1.780   6.448  13.403 -0.5332 -0.3143 -0.2724
16530TIP3    H171005   1.873   6.441  13.423 -0.7882 -1.5287  0.5858
16530TIP3    H271006   1.776   6.509  13.329  0.8862  0.1482 -0.0038
16531TIP3   OH271007   4.300   6.023  16.292  0.3397 -0.2589 -0.2302
16531TIP3    H171008   4.305   6.113  16.260 -1.6581  0.0618  0.2382
16531TIP3    H271009   4.320   5.969  16.215  0.0996  0.5528 -0.8742
16532TIP3   OH271010   4.716   3.829   2.180  0.0071  0.0273 -0.5045
16532TIP3    H171011   4.804   3.866   2.184  0.5640 -1.3491  0.4860
16532TIP3    H271012   4.724   3.752   2.124  0.1143 -1.7404  1.7858
16533TIP3   OH271013   2.557   4.594   1.413  0.2662  0.2061  0.5231
16533TIP3    H171014   2.624   4.542   1.456 -0.0186  0.4603  1.2817
16533TIP3    H271015   2.598   4.624   1.332  0.3279 -1.4626 -0.0900
16534TIP3   OH271016   6.434   0.538  15.377 -0.4448 -0.3880  0.1549
16534TIP3    H171017   6.432   0.551  15.472 -2.2815 -0.1402  0.1237
16534TIP3    H271018   6.390   0.454  15.364  0.4490 -0.7789 -0.4529
16535TIP3   OH271019   5.457   5.904  13.314  0.0041  0.6938 -0.1922
16535TIP3    H171020   5.473   5.810  13.304 -0.3974  0.7848 -2.0405
16535TIP3    H271021   5.417   5.930  13.231 -2.8437  1.8796  1.4057
16536TIP3   OH271022   3.729   4.769   2.857 -0.1092  0.3316  0.6910
16536TIP3    H171023   3.816   4.800   2.831 -0.9391  1.7655 -0.5315
16536TIP3    H271024   3.675   4.783   2.780 -1.9001  1.4486  2.0731
16537TIP3   OH271025   6.466   5.643   1.825  0.0345  0.6609 -0.1624
16537TIP3    H171026   6.394   5.682   1.776 -2.2032 -1.6959  1.0178
16537TIP3    H271027   6.452   5.549   1.818  0.0563  0.1485  4.1282
16538TIP3   OH271028   6.297   3.431  15.860 -0.6134 -0.5366  0.2469
16538TIP3    H171029   6.229   3.437  15.792  1.3633 -0.6122 -1.8516
16538TIP3    H271030   6.352   3.508  15.846  0.6637 -1.2998  0.8278
16539TIP3   OH271031   2.910   0.281  14.637  0.4342 -0.3911  0.7154
16539TIP3    H171032   2.895   0.374  14.619 -3.3427 -0.3842  2.7946
16539TIP3    H271033   2.971   0.280  14.710  1.3702  0.3715 -0.0373
16540TIP3   OH271034   2.413   0.852   4.758  0.0937 -0.4886 -0.4907
16540TIP3    H171035   2.413   0.786   4.828 -4.4630  0.1116  0.4375
16540TIP3    H271036   2.349   0.819   4.695  0.7154  1.1518 -2.0553
16541TIP3   OH271037   2.409   6.591   1.280 -0.2348  0.1503  0.2176
16541TIP3    H171038   2.353   6.624   1.209  0.2393 -0.6545 -0.5446
16541TIP3    H271039   2.348   6.568   1.350 -0.8709 -0.6261 -0.5697
16542TIP3   OH271040   5.443   3.413  11.641 -0.3015 -0.1849  0.1248
16542TIP3    H171041   5.388   3.352  11.593  0.3257  0.3873 -1.4033
16542TIP3    H271042   5.520   3.424  11.585 -0.3864  1.9697  0.3590
16543TIP3   OH271043   4.787   0.308  13.248 -0.8451  0.1596 -0.5442
16543TIP3    H171044   4.872   0.274  13.278 -0.6753  0.6856 -0.4173
16543TIP3    H271045   4.798   0.319  13.154 -0.8473  0.0079 -0.5618
16544TIP3   OH271046   6.027   6.322  15.836  0.2303 -0.1374 -0.3708
16544TIP3    H171047   5.965   6.287  15.901  0.5585  1.4854  0.8695
16544TIP3    H271048   5.985   6.306  15.752 -1.8135  0.7155  0.4201
16545TIP3   OH271049   5.416   6.730   1.246 -0.3247 -0.6866 -0.0945
16545TIP3    H171050   5.459   6.792   1.305 -0.4966 -0.3733 -0.2908
16545TIP3    H271051   5.438   6.644   1.280  0.6024 -0.5341 -0.2996
16546TIP3   OH271052   2.489   2.703   3.823  0.4906 -0.1753  0.5062
16546TIP3    H171053   2.534   2.782   3.793  1.3028 -0.5987  0.5671
16546TIP3    H271054   2.481   2.715   3.918  1.1093 -0.3991  0.5929
16547TIP3   OH271055   5.598   2.202   3.857 -0.0554  0.4424 -0.3928
16547TIP3    H171056   5.654   2.235   3.928  0.9866 -0.7242 -0.6372
16547TIP3    H271057   5.613   2.263   3.785 -1.8246  2.1918  0.5968
16548TIP3   OH271058   3.729   3.175  16.938 -0.8177  0.3406 -0.0887
16548TIP3    H171059   3.742   3.126  17.019 -1.5407 -0.1509 -0.2610
16548TIP3    H271060   3.808   3.228  16.930  1.7005 -3.2007 -1.5934
16549TIP3   OH271061   5.997   5.276  11.392  0.4699  0.3735  0.2431
16549TIP3    H171062   5.960   5.200  11.438  1.5123 -0.7068 -0.6421
16549TIP3    H271063   5.931   5.299  11.327  0.0353  0.3838  0.6843
16550TIP3   OH271064   0.412   6.532  15.542 -0.1274  0.9056  0.2896
16550TIP3    H171065   0.368   6.455  15.505  0.4565  0.8415 -0.3052
16550TIP3    H271066   0.361   6.554  15.619 -0.0747 -0.3263  0.7056
16551TIP3   OH271067   1.190   4.582  15.786 -0.1325 -0.1085 -0.3909
16551TIP3    H171068   1.106   4.559  15.746  0.1342  1.3542 -1.8989
16551TIP3    H271069   1.208   4.671  15.756  0.6474  0.6909  2.1692
16552TIP3   OH271070   1.342   6.035   2.029 -0.5436  0.0534  0.5051
16552TIP3    H171071   1.385   6.072   2.106  2.1904  0.1954 -0.9619
16552TIP3    H271072   1.362   6.096   1.958 -2.0243 -0.6546 -0.5813
16553TIP3   OH271073   3.537   2.988  11.216 -0.0826  0.4423 -0.0816
16553TIP3    H171074   3.542   2.904  11.262 -0.4201 -0.3328 -1.4061
16553TIP3    H271075   3.606   3.041  11.255 -1.1157  0.2636  2.1461
16554TIP3   OH271076   5.839   5.215  14.526 -0.4099 -0.5041  0.1084
16554TIP3    H171077   5.821   5.132  14.569  0.5347 -0.3798  0.7842
16554TIP3    H271078   5.847   5.278  14.597  1.1796 -0.2891 -0.2218
16555TIP3   OH271079   5.308   2.028   1.017  0.0334 -0.0007  0.2051
16555TIP3    H171080   5.354   2.087   1.077  0.0781  0.9119 -0.6996
16555TIP3    H271081   5.268   1.963   1.074  0.7748  0.3547  1.1608
16556TIP3   OH271082   1.083   2.232  13.238  0.0893 -0.7337 -0.5056
16556TIP3    H171083   1.029   2.182  13.177  1.0687 -0.9215 -1.2484
16556TIP3    H271084   1.020   2.278  13.294 -0.8289 -1.0006 -1.2865
16557TIP3   OH271085   5.430   5.184  15.097 -0.2260 -0.0743  0.0249
16557TIP3    H171086   5.340   5.183  15.066  0.3105  0.0610 -1.6026
16557TIP3    H271087   5.474   5.250  15.043  0.5041  1.0116  1.8558
16558TIP3   OH271088   5.510   1.951  14.765 -0.1382 -0.3652 -0.1815
16558TIP3    H171089   5.546   2.021  14.820 -0.8416  0.4157 -0.6762
16558TIP3    H271090   5.567   1.876  14.781  0.5241  0.2615  0.5175
16559TIP3   OH271091   5.228   5.684   3.144 -0.4025  0.5780 -0.7696
16559TIP3    H171092   5.229   5.664   3.238  0.5201  2.6248 -0.2802
16559TIP3    H271093   5.192   5.773   3.139 -0.6973  0.4031 -2.3985
16560TIP3   OH271094   6.686   1.552  10.845 -0.1884  0.1549  0.1583
16560TIP3    H171095   6.736   1.541  10.765  1.5261  2.2571  0.8188
16560TIP3    H271096   6.687   1.647  10.861 -0.9992 -0.1291  2.3203
16561TIP3   OH271097   5.021   2.042   2.815 -0.4534  0.2103 -0.0427
16561TIP3    H171098   5.028   2.062   2.722 -0.6086  0.1022 -0.0772
16561TIP3    H271099   5.112   2.026   2.843 -0.5725 -1.4594 -0.5505
16562TIP3   OH271100   0.995   2.267   0.750 -0.4398  0.1393  0.4084
16562TIP3    H171101   0.952   2.352   0.747 -1.7044 -0.4882 -1.6035
16562TIP3    H271102   1.029   2.260   0.839 -2.6461  1.6221  1.4732
16563TIP3   OH271103   4.302   4.512   2.564  0.0488  0.3787 -0.4608
16563TIP3    H171104   4.291   4.419   2.582  1.2368  0.2993 -0.0177
16563TIP3    H271105   4.213   4.548   2.565 -0.2619 -0.1671  2.7563
16564TIP3   OH271106   4.052   4.445   1.289  0.2574  0.3463  0.5253
16564TIP3    H171107   4.122   4.510   1.286 -0.2046  0.8851  1.0724
16564TIP3    H271108   4.013   4.456   1.376 -2.1112  1.7811 -0.6297
16565TIP3   OH271109   4.882   0.252  11.478  0.3652 -0.4446  0.3759
16565TIP3    H171110   4.885   0.327  11.418  0.0850 -1.4704 -0.9563
16565TIP3    H271111   4.789   0.228  11.481  0.7123 -2.1007 -0.9907
16566TIP3   OH271112   5.507   2.351   4.180  0.0739 -0.0676  0.2444
16566TIP3    H171113   5.507   2.428   4.236 -1.9669  0.0655  0.1275
16566TIP3    H271114   5.455   2.376   4.103 -0.9240 -1.6122  0.3543
16567TIP3   OH271115   2.444   1.474  14.196  0.0512  0.5016  0.7586
16567TIP3    H171116   2.487   1.551  14.157  2.1135 -0.7723  0.3566
16567TIP3    H271117   2.492   1.461  14.278 -1.2088  0.4408  1.4961
16568TIP3   OH271118   0.872   3.604   5.916 -0.6806 -0.0773  0.3500
16568TIP3    H171119   0.894   3.655   5.994 -0.4137 -0.9641  0.8697
16568TIP3    H271120   0.954   3.601   5.866 -0.5062 -0.5483  0.6507
16569TIP3   OH271121   3.355   6.328   0.050  0.8094  0.1102 -0.3780
16569TIP3    H171122   3.354   6.233   0.045  1.4321  0.0672  0.1683
16569TIP3    H271123   3.400   6.347   0.132 -1.9203  0.8256  1.0900
16570TIP3   OH271124   4.937   2.189  12.265  0.2477 -0.6841 -0.2997
16570TIP3    H171125   5.023   2.167  12.229  0.4070 -1.5815  0.5819
16570TIP3    H271126   4.947   2.278  12.299  1.6787 -1.6721  2.1827
16571TIP3   OH271127   4.734   4.433  15.076  0.1171 -0.1731  0.8861
16571TIP3    H171128   4.810   4.376  15.069 -0.0855 -0.5321  1.5229
16571TIP3    H271129   4.684   4.417  14.996  0.8198  0.2335  0.3591
16572TIP3   OH271130   3.616   5.343  14.190  0.8892 -0.5903 -0.0682
16572TIP3    H171131   3.615   5.428  14.234 -0.1022 -1.4686  1.6821
16572TIP3    H271132   3.548   5.350  14.123  0.4430 -0.1899  0.4220
16573TIP3   OH271133   5.408   5.687  15.379  0.1608  0.4317 -0.1792
16573TIP3    H171134   5.327   5.638  15.367  0.8764 -0.8541  0.0600
16573TIP3    H271135   5.387   5.776  15.351 -1.2396  0.0444 -0.4078
16574TIP3   OH271136   3.363   2.235   4.023  0.2040  0.1245 -0.1599
16574TIP3    H171137   3.337   2.144   4.041 -1.4270  0.7156  0.6526
16574TIP3    H271138   3.436   2.251   4.081  1.1497 -0.9425 -0.9917
16575TIP3   OH271139   2.226   1.940  15.123  0.0018 -0.7809 -0.8966
16575TIP3    H171140   2.176   1.868  15.086 -2.4126  0.0748  0.4993
16575TIP3    H271141   2.246   1.912  15.213 -1.6783  0.5235 -0.0547
16576TIP3   OH271142   5.290   0.492  12.073 -0.0131  0.2005  0.1024
16576TIP3    H171143   5.353   0.422  12.057  3.0266  3.2763 -3.3008
16576TIP3    H271144   5.227   0.484  12.002  0.1676  0.7255 -0.1193
16577TIP3   OH271145   5.670   6.352   3.461  0.3401  0.1090  0.5287
16577TIP3    H171146   5.696   6.372   3.551  0.3676 -0.3716  0.6292
16577TIP3    H271147   5.593   6.295   3.470  1.3789 -1.3937  0.2850
16578TIP3   OH271148   4.456   0.241   2.007 -0.3903 -0.7094  0.2987
16578TIP3    H171149   4.391   0.282   2.063  0.0270 -0.8821  0.9164
16578TIP3    H271150   4.506   0.315   1.971  0.5456 -0.6648  1.6345
16579TIP3   OH271151   5.983   6.692   2.732 -0.4132 -0.2150 -0.2078
16579TIP3    H171152   5.979   6.604   2.694 -2.0219  0.1234 -0.9302
16579TIP3    H271153   6.075   6.717   2.727 -0.2968 -0.9138 -2.2214
16580TIP3   OH271154   4.133   6.752  12.549 -0.0315 -0.2342  0.3346
16580TIP3    H171155   4.215   6.704  12.535  0.2083 -0.2934  1.7659
16580TIP3    H271156   4.160   6.843  12.560 -0.2416 -0.1319  0.0032
16581TIP3   OH271157   1.331   4.366  14.315 -0.2539 -0.6804 -0.1904
16581TIP3    H171158   1.375   4.423  14.378  1.4159  0.3234 -2.1370
16581TIP3    H271159   1.379   4.283  14.320  0.1994 -0.4398 -0.4703
16582TIP3   OH271160   3.129   3.393  13.324  0.1977  0.3404 -0.2695
16582TIP3    H171161   3.174   3.317  13.362  0.6970 -0.2075 -1.8407
16582TIP3    H271162   3.127   3.458  13.394  0.2624 -0.9143  0.9472
16583TIP3   OH271163   5.826   4.342  16.039  0.1486  0.5794  0.2252
16583TIP3    H171164   5.743   4.300  16.061 -0.1372  0.8073 -0.4071
16583TIP3    H271165   5.875   4.344  16.122 -0.0765 -0.4475  0.3899
16584TIP3   OH271166   5.399   5.494   4.435 -0.2368 -0.6819  0.0444
16584TIP3    H171167   5.455   5.568   4.462  0.3219 -1.3576  0.7837
16584TIP3    H271168   5.314   5.513   4.475 -0.9717  0.9971 -2.1178
16585TIP3   OH271169   0.858   1.277   4.585  0.3240 -0.3711  0.0905
16585TIP3    H171170   0.837   1.370   4.575  1.5076 -0.2886 -2.1720
16585TIP3    H271171   0.777   1.231   4.564 -0.1626  0.1209  0.8533
16586TIP3   OH271172   2.989   5.888  14.939  0.1682 -0.2215 -0.0443
16586TIP3    H171173   2.916   5.931  14.896 -0.1213 -0.2850  0.3726
16586TIP3    H271174   3.065   5.941  14.916 -0.2401  0.7712  0.8033
16587TIP3   OH271175   1.654   1.188  15.699 -0.0602 -0.5277  0.0056
16587TIP3    H171176   1.747   1.197  15.677  0.4534  1.3205  2.4553
16587TIP3    H271177   1.651   1.114  15.758  0.1773  0.4011  1.2222
16588TIP3   OH271178   3.122   3.904   2.752 -0.0108  0.7762 -0.8903
16588TIP3    H171179   3.112   3.965   2.679 -1.7440  0.8809 -0.6013
16588TIP3    H271180   3.195   3.848   2.726  0.2701  1.6552 -2.0910
16589TIP3   OH271181   4.803   3.675  11.076  0.9527  0.1016  0.2632
16589TIP3    H171182   4.715   3.668  11.040  0.7005  1.4306  0.5737
16589TIP3    H271183   4.845   3.591  11.054 -0.2361 -0.3768 -0.2578
16590TIP3   OH271184   5.721   6.159   3.154  0.3466 -0.1971  0.6262
16590TIP3    H171185   5.657   6.152   3.082  0.4370  1.1617  0.3846
16590TIP3    H271186   5.667   6.166   3.233  0.2360 -2.9771  0.9136
16591TIP3   OH271187   2.972   2.113  14.350  0.0580  0.4475  0.0810
16591TIP3    H171188   3.006   2.166  14.421  1.4389  1.9254 -1.5785
16591TIP3    H271189   2.944   2.176  14.284 -1.1706 -0.8553 -0.7112
16592TIP3   OH271190   3.887   6.316  13.869  0.5130 -0.3032 -0.1241
16592TIP3    H171191   3.829   6.391  13.857  0.0895 -0.7654 -1.1235
16592TIP3    H271192   3.969   6.353  13.903  0.3586  0.6310 -0.7361
16593TIP3   OH271193   4.990   1.752  13.619  0.6204 -0.4460 -0.0202
16593TIP3    H171194   4.954   1.837  13.646 -0.1897 -0.5892 -0.6081
16593TIP3    H271195   4.917   1.691  13.627  1.1125 -1.0295  0.0982
16594TIP3   OH271196   1.540   5.290   3.192 -0.3106 -0.3587  0.1088
16594TIP3    H171197   1.558   5.233   3.267  1.1987  1.7350  1.4540
16594TIP3    H271198   1.459   5.335   3.215 -0.6262 -0.7618 -0.2027
16595TIP3   OH271199   4.843   1.611  14.554  0.4831  0.3890  0.2690
16595TIP3    H171200   4.856   1.585  14.462  1.3167 -0.1887  0.5351
16595TIP3    H271201   4.931   1.611  14.591  0.0417 -0.6367  1.3915
16596TIP3   OH271202   4.839   2.331   5.271 -0.3267 -0.7602 -0.1292
16596TIP3    H171203   4.832   2.391   5.346 -0.0000  0.5620 -1.1064
16596TIP3    H271204   4.769   2.358   5.212  1.3949  0.4407 -1.7544
16597TIP3   OH271205   6.713   4.072  14.209 -0.1645  0.3257  0.5121
16597TIP3    H171206   6.732   4.104  14.121 -0.7444  0.1354  0.3116
16597TIP3    H271207   6.737   3.980  14.207 -1.1058  0.0769  0.2482
16598TIP3   OH271208   5.280   5.456   2.319  0.1243 -0.0881  0.3149
16598TIP3    H171209   5.295   5.535   2.269  1.2200  0.1129  0.9184
16598TIP3    H271210   5.193   5.466   2.356 -1.6796 -1.1974 -3.2010
16599TIP3   OH271211   3.713   2.713   4.341 -0.2325  0.9267 -1.0771
16599TIP3    H171212   3.619   2.702   4.327  0.1038 -1.4119 -2.0142
16599TIP3    H271213   3.743   2.761   4.264 -0.6158  1.3761 -0.9473
16600TIP3   OH271214   6.754   3.022   3.785  0.0067 -0.0608  0.6148
16600TIP3    H171215   6.700   2.956   3.829  0.7307 -0.1799  1.3540
16600TIP3    H271216   6.843   3.001   3.812  0.5228 -0.3355 -1.1745
16601TIP3   OH271217   4.339   3.507  12.928  0.2014  0.0052  0.5182
16601TIP3    H171218   4.320   3.509  12.834 -2.6210 -0.4196  1.0144
16601TIP3    H271219   4.384   3.423  12.941  2.0211  0.7307 -0.6160
16602TIP3   OH271220   3.078   0.791  12.163  0.0895  0.1767  0.6001
16602TIP3    H171221   3.062   0.881  12.136  2.9099 -0.0001 -2.2867
16602TIP3    H271222   2.999   0.744  12.138 -0.4588  1.4392 -0.1302
16603TIP3   OH271223   1.548   6.493   3.671 -0.1154  0.0084 -0.4611
16603TIP3    H171224   1.617   6.540   3.623 -0.7638  0.3836 -1.0462
16603TIP3    H271225   1.497   6.450   3.602 -1.5441  1.2043 -0.1852
16604TIP3   OH271226   2.308   1.689   2.429  0.4717  0.0434 -0.0379
16604TIP3    H171227   2.374   1.666   2.363 -0.0773  0.7669 -0.8464
16604TIP3    H271228   2.317   1.783   2.440 -0.0641  0.0619  0.2527
16605TIP3   OH271229   4.560   4.457   4.526  0.1759  0.6822  0.2746
16605TIP3    H171230   4.584   4.370   4.493  1.4592  0.9077  0.5607
16605TIP3    H271231   4.625   4.516   4.488  0.9248  1.1408  2.1561
16606TIP3   OH271232   2.623   3.765   6.666 -0.2144  0.0204  0.2720
16606TIP3    H171233   2.629   3.850   6.709 -0.0919 -0.6798  1.6789
16606TIP3    H271234   2.680   3.708   6.717 -1.2487 -1.2116  0.1066
16607TIP3   OH271235   6.704   3.890   5.958 -0.4320  0.0910 -0.2140
16607TIP3    H171236   6.724   3.820   6.019  1.1179  2.1898  1.8659
16607TIP3    H271237   6.621   3.864   5.919  0.0251 -2.8155  0.4825
16608TIP3   OH271238   5.296   1.785  11.839  0.1830  0.2597  0.5784
16608TIP3    H171239   5.252   1.712  11.882  1.1920 -0.0448  1.1461
16608TIP3    H271240   5.384   1.752  11.821  0.1816  0.8289 -0.5563
16609TIP3   OH271241   5.668   5.522   1.519  0.3455  0.7027  0.7011
16609TIP3    H171242   5.575   5.531   1.497 -0.0817 -1.4749  1.3410
16609TIP3    H271243   5.669   5.468   1.598  2.1812 -0.4398 -0.0241
16610TIP3   OH271244   0.438   4.373  14.402  0.1468  0.1612  0.1141
16610TIP3    H171245   0.351   4.372  14.364  0.2726 -3.7416 -0.4791
16610TIP3    H271246   0.478   4.454  14.370 -2.3971  0.8386 -1.6015
16611TIP3   OH271247   2.040   5.691  16.894 -0.1297 -0.2979  0.1648
16611TIP3    H171248   2.029   5.769  16.840 -0.1911 -0.7307 -0.4616
16611TIP3    H271249   1.957   5.643  16.885 -0.2176 -0.2790  0.8061
16612TIP3   OH271250   2.549   3.792   4.859  0.2070  0.2995  0.1524
16612TIP3    H171251   2.455   3.804   4.847  0.4970  2.4871 -0.5683
16612TIP3    H271252   2.558   3.706   4.898 -1.9974 -0.5706 -1.0481
16613TIP3   OH271253   5.428   0.260   1.090 -0.3565  0.1407 -0.1453
16613TIP3    H171254   5.489   0.198   1.050  0.5137  0.5629  0.4965
16613TIP3    H271255   5.464   0.346   1.070 -0.6196  0.3919  0.4331
16614TIP3   OH271256   1.129   6.447  11.162  0.4029 -0.0271 -0.5427
16614TIP3    H171257   1.186   6.483  11.230 -2.0162 -0.7377  2.0663
16614TIP3    H271258   1.178   6.459  11.081  2.8004  2.3676  1.0758
16615TIP3   OH271259   0.124   5.735  11.586 -0.3139 -0.7476 -0.7748
16615TIP3    H171260   0.089   5.762  11.501 -1.6433  0.0724 -0.0124
16615TIP3    H271261   0.093   5.803  11.646  0.0062 -1.6812  0.4722
16616TIP3   OH271262   2.469   1.705  12.882 -0.0826 -0.1704  0.1689
16616TIP3    H171263   2.550   1.747  12.909  0.4280 -0.6797 -0.5401
16616TIP3    H271264   2.425   1.771  12.828  0.3722 -0.2632 -0.3316
16617TIP3   OH271265   6.026   5.499   5.888 -0.3989 -0.0510  0.4044
16617TIP3    H171266   6.059   5.582   5.923  1.9655 -0.2429 -1.1519
16617TIP3    H271267   6.002   5.519   5.798  1.4809 -1.2634 -0.4296
16618TIP3   OH271268   2.449   0.249   0.562 -0.0745  0.0786  0.3120
16618TIP3    H171269   2.446   0.161   0.525  1.4171 -0.2232  0.8125
16618TIP3    H271270   2.516   0.294   0.512  2.1501 -0.4047  2.6124
16619TIP3   OH271271   1.161   5.397  14.494  0.1431  0.3216 -0.1670
16619TIP3    H171272   1.230   5.387  14.560 -2.3216 -2.5803  2.2927
16619TIP3    H271273   1.198   5.361  14.414  1.5491 -1.0192  1.0235
16620TIP3   OH271274   4.052   5.267   6.501 -0.2192 -0.1942 -0.6909
16620TIP3    H171275   3.973   5.252   6.554 -0.0787  0.0243 -0.4184
16620TIP3    H271276   4.106   5.190   6.518  0.1363  0.2052  0.0505
16621TIP3   OH271277   5.401   5.133  12.759  0.0187  0.7909  0.1020
16621TIP3    H171278   5.457   5.193  12.709 -1.1651  0.3620 -1.8427
16621TIP3    H271279   5.454   5.053  12.768  0.6438  1.2418  0.4701
16622TIP3   OH271280   0.708   0.629   2.074  0.1685  0.2134  0.2583
16622TIP3    H171281   0.702   0.679   2.155  2.8007 -0.5123  1.0028
16622TIP3    H271282   0.660   0.548   2.092  0.6583  0.0987  1.0777
16623TIP3   OH271283   5.667   3.972  10.975 -0.5521  0.2599 -0.1242
16623TIP3    H171284   5.585   3.968  10.926 -1.2878  2.1204  0.8328
16623TIP3    H271285   5.643   3.943  11.063 -0.1257  0.6023  0.1063
16624TIP3   OH271286   5.609   1.705   1.275 -0.1540 -0.1706 -0.2010
16624TIP3    H171287   5.704   1.712   1.279 -0.2304  1.0332 -0.1759
16624TIP3    H271288   5.582   1.682   1.364  0.1634 -1.4428 -0.4126
16625TIP3   OH271289   4.477   6.520   0.275  1.0404 -0.1597 -0.2239
16625TIP3    H171290   4.568   6.509   0.303  0.9694 -0.1973 -0.0000
16625TIP3    H271291   4.426   6.472   0.341  0.6996  1.6170  0.8648
16626TIP3   OH271292   1.474   2.701   2.679  0.0508  0.4168 -1.3677
16626TIP3    H171293   1.401   2.763   2.674 -0.8048 -0.2562  1.1402
16626TIP3    H271294   1.535   2.741   2.741 -0.2306 -0.9300 -0.1683
16627TIP3   OH271295   0.551   5.952  12.376 -0.5025  0.0989  0.1621
16627TIP3    H171296   0.625   5.992  12.423  0.5350  0.1748 -1.4577
16627TIP3    H271297   0.473   5.989  12.418  0.3943  2.4271 -0.0655
16628TIP3   OH271298   0.348   0.285  15.809  0.4233  0.6696 -0.0676
16628TIP3    H171299   0.394   0.227  15.869  0.7310  0.5503 -0.4161
16628TIP3    H271300   0.260   0.293  15.846  0.8969  1.3862  0.9301
16629TIP3   OH271301   4.511   0.257   4.624 -0.2047  0.0224  0.1462
16629TIP3    H171302   4.596   0.233   4.661 -0.0029  2.7608  1.7746
16629TIP3    H271303   4.448   0.236   4.693 -0.6772 -0.7405 -0.5130
16630TIP3   OH271304   2.963   1.097   2.827 -0.9746 -0.2989 -0.2241
16630TIP3    H171305   2.893   1.102   2.763 -0.2007  1.3525 -0.9920
16630TIP3    H271306   3.000   1.185   2.831  0.6457 -0.9581  0.6166
16631TIP3   OH271307   3.525   3.156  14.591 -0.5459  0.2532  0.4010
16631TIP3    H171308   3.459   3.097  14.630 -1.8882  0.0173 -2.0492
16631TIP3    H271309   3.475   3.232  14.563  0.4433  0.6250 -0.3971
16632TIP3   OH271310   3.685   0.832  14.943  0.5653  0.1306 -0.0210
16632TIP3    H171311   3.763   0.830  14.887 -0.1834 -1.8409 -1.1134
16632TIP3    H271312   3.634   0.755  14.915 -1.5535  1.0983  0.9763
16633TIP3   OH271313   2.861   4.868  12.663  0.9067  0.1500  0.5327
16633TIP3    H171314   2.956   4.869  12.674  0.9581 -0.9613  0.3414
16633TIP3    H271315   2.847   4.845  12.571  0.4443  1.8308  0.1542
16634TIP3   OH271316   3.783   5.287   1.719  0.0844 -0.2339  0.3644
16634TIP3    H171317   3.745   5.207   1.684 -0.9741  0.8575 -1.0987
16634TIP3    H271318   3.794   5.344   1.643 -0.1577  1.3996  1.4928
16635TIP3   OH271319   1.799   3.250   2.324 -0.1182 -0.2409 -0.3943
16635TIP3    H171320   1.720   3.197   2.310  1.5150 -2.2039 -3.3130
16635TIP3    H271321   1.867   3.186   2.345  0.8845  1.3556  1.6302
16636TIP3   OH271322   3.393   0.992  14.555 -0.3628  0.2869  0.4911
16636TIP3    H171323   3.356   0.938  14.485 -0.6843 -0.6311  1.3530
16636TIP3    H271324   3.341   0.970  14.633  0.2005  1.0497  1.0950
16637TIP3   OH271325   5.733   5.074  13.201  0.0197  0.6498  0.6382
16637TIP3    H171326   5.768   5.129  13.271  0.6162 -0.9733  1.6715
16637TIP3    H271327   5.655   5.121  13.170 -0.5404  1.1955  2.7176
16638TIP3   OH271328   4.460   1.573   1.783  0.2286  0.4750  0.4839
16638TIP3    H171329   4.428   1.508   1.719 -0.9166 -0.2844  1.7796
16638TIP3    H271330   4.426   1.657   1.751 -2.8300 -0.2240  1.5134
16639TIP3   OH271331   4.740   5.438   4.822  0.6031 -0.1251  0.4570
16639TIP3    H171332   4.790   5.452   4.903  0.8286 -0.9744  0.4803
16639TIP3    H271333   4.757   5.347   4.800  0.6394  0.1366 -0.6242
16640TIP3   OH271334   4.830   1.771  11.622  0.1314  0.3010  0.1970
16640TIP3    H171335   4.862   1.827  11.693  1.3709  0.7034 -0.6316
16640TIP3    H271336   4.902   1.770  11.559 -1.2593  0.6949 -1.4763
16641TIP3   OH271337   1.715   1.927  14.503  0.8906 -0.0802  0.4143
16641TIP3    H171338   1.703   1.886  14.417 -0.4626 -0.7705  0.9107
16641TIP3    H271339   1.720   1.854  14.564 -2.8878  0.3790  1.5011
16642TIP3   OH271340   1.449   6.370  13.183 -0.2796  0.4700 -0.0794
16642TIP3    H171341   1.434   6.341  13.093  2.9288 -1.3697 -0.1686
16642TIP3    H271342   1.515   6.439  13.176 -0.6352  0.9298  0.8339
16643TIP3   OH271343   6.262   1.493  16.526  0.5533  0.0435 -0.6164
16643TIP3    H171344   6.349   1.488  16.486  0.5812 -0.2047 -0.5313
16643TIP3    H271345   6.235   1.401  16.534  1.2141 -0.0255  1.3834
16644TIP3   OH271346   0.474   2.512  15.292 -0.2649  0.1631  0.4947
16644TIP3    H171347   0.489   2.588  15.348  0.5712 -0.1254  0.6836
16644TIP3    H271348   0.552   2.457  15.305 -1.3384 -1.2388  1.1815
16645TIP3   OH271349   5.853   2.873  16.943 -0.1864  0.4079  0.4176
16645TIP3    H171350   5.919   2.938  16.919 -1.0358  1.5679  1.1100
16645TIP3    H271351   5.770   2.919  16.933 -0.9100 -0.9955 -0.3475
16646TIP3   OH271352   5.476   2.602  13.373 -0.0619 -0.0538  0.1250
16646TIP3    H171353   5.463   2.528  13.314 -0.4731  1.0528 -1.2214
16646TIP3    H271354   5.488   2.562  13.459 -0.9368 -1.6550 -0.4529
16647TIP3   OH271355   4.693   5.887  12.900 -0.0702  0.0013  0.3601
16647TIP3    H171356   4.598   5.895  12.896  0.0166  1.3352  0.4907
16647TIP3    H271357   4.720   5.949  12.968  0.7268 -2.1390  2.1315
16648TIP3   OH271358   2.301   4.006   1.316  0.2920  0.3351 -0.0147
16648TIP3    H171359   2.343   3.928   1.351  0.6920  1.2273  1.6007
16648TIP3    H271360   2.280   3.984   1.225 -1.1180 -2.2227  0.8531
16649TIP3   OH271361   4.835   4.028   0.074  0.1345 -0.0202 -0.9151
16649TIP3    H171362   4.860   3.937   0.057  0.4415 -0.3431  1.0007
16649TIP3    H271363   4.910   4.065   0.121 -1.9149 -0.3354  2.9658
16650TIP3   OH271364   1.862   4.019  16.637  0.5834  0.2824 -0.4042
16650TIP3    H171365   1.947   3.976  16.647  0.3047 -0.8103 -2.3226
16650TIP3    H271366   1.803   3.949  16.608 -1.1626  0.8640  1.5015
16651TIP3   OH271367   0.028   4.559   5.753  0.0890 -0.0517  0.6875
16651TIP3    H171368  -0.064   4.548   5.728  0.0488 -1.4821  1.3536
16651TIP3    H271369   0.051   4.646   5.721 -2.2520  1.4969  2.8031
16652TIP3   OH271370   2.298   0.113  12.850  0.6955 -0.3121  0.6425
16652TIP3    H171371   2.347   0.193  12.831 -1.4183  0.7831 -0.6323
16652TIP3    H271372   2.299   0.065  12.767 -0.6515 -0.0839  0.4740
16653TIP3   OH271373   1.311   4.139  14.058 -0.0668  0.0947 -0.3903
16653TIP3    H171374   1.366   4.135  14.136 -0.1731  1.6741 -0.2009
16653TIP3    H271375   1.222   4.138  14.093 -0.1909 -1.4162 -0.6454
16654TIP3   OH271376   0.168   2.433   4.198 -0.3122  0.4960 -0.0444
16654TIP3    H171377   0.129   2.500   4.254 -1.2367 -0.0857  0.0204
16654TIP3    H271378   0.156   2.466   4.109 -1.2385  0.1927 -0.0441
16655TIP3   OH271379   3.336   2.005  14.686  0.3913  0.2188 -0.5156
16655TIP3    H171380   3.290   1.986  14.604 -0.1660 -1.6047  0.1593
16655TIP3    H271381   3.426   1.979  14.668  0.4661  0.6794 -0.8240
16656TIP3   OH271382   3.054   2.876   2.659  0.8856  0.1095  0.2179
16656TIP3    H171383   3.099   2.946   2.707  1.5781 -0.8823  1.0472
16656TIP3    H271384   3.095   2.796   2.689  0.2923 -0.6558 -0.9342
16657TIP3   OH271385   4.417   3.686  13.957 -0.2441 -0.3610  0.0579
16657TIP3    H171386   4.407   3.746  14.031 -0.1270 -0.4352  0.1323
16657TIP3    H271387   4.331   3.687  13.914 -0.0362  0.4131 -0.3533
16658TIP3   OH271388   2.203   6.697   1.167 -0.0468  0.0782  0.5044
16658TIP3    H171389   2.147   6.663   1.097  0.6178  0.1174 -0.0553
16658TIP3    H271390   2.141   6.725   1.235 -0.7169  0.3637 -0.2033
16659TIP3   OH271391   4.353   2.387   4.864 -0.3950 -0.0968 -0.0022
16659TIP3    H171392   4.401   2.339   4.932 -1.2035 -1.4330 -0.3430
16659TIP3    H271393   4.285   2.434   4.912 -2.1178 -2.4604  0.0207
16660TIP3   OH271394   2.821   6.706  12.666  0.6188  0.6540 -0.1435
16660TIP3    H171395   2.845   6.796  12.646 -0.5659  0.7028 -1.5592
16660TIP3    H271396   2.881   6.653  12.614  1.0238  0.6358  0.3405
16661TIP3   OH271397   3.913   6.451   3.953 -0.1317  0.3001 -0.4924
16661TIP3    H171398   4.004   6.477   3.941  0.4292 -0.1644  2.1485
16661TIP3    H271399   3.871   6.526   3.995 -1.0600  0.5455 -1.7603
16662TIP3   OH271400   4.201   0.560  15.591  0.8708  0.1456  0.0072
16662TIP3    H171401   4.285   0.591  15.625  1.8423  0.9137 -2.7953
16662TIP3    H271402   4.154   0.641  15.569 -0.8083 -0.2621  1.7918
16663TIP3   OH271403   2.250   0.633  11.764 -0.3752 -0.3174  0.2493
16663TIP3    H171404   2.304   0.556  11.745 -1.2496 -0.5750 -1.3698
16663TIP3    H271405   2.163   0.598  11.780 -0.8458  0.3312 -0.7987
16664TIP3   OH271406   2.691   2.933   5.619  0.3293 -0.1802 -0.0324
16664TIP3    H171407   2.753   2.996   5.656  2.5110 -1.0739 -1.8973
16664TIP3    H271408   2.612   2.983   5.602  1.3698  1.6268  0.2001
16665TIP3   OH271409   6.613   1.737   3.775 -0.3928  0.6391  0.3981
16665TIP3    H171410   6.547   1.731   3.844  0.1611 -0.3188  0.8641
16665TIP3    H271411   6.609   1.652   3.731  0.3144  0.6818  0.2387
16666TIP3   OH271412   3.915   4.217  14.124  0.0154  0.0387  0.5325
16666TIP3    H171413   3.850   4.265  14.175  1.0494  0.7095  1.2416
16666TIP3    H271414   3.962   4.285  14.075  1.0617 -0.2847  1.0551
16667TIP3   OH271415   1.667   1.856   5.126 -0.5005  0.1816 -0.5062
16667TIP3    H171416   1.747   1.857   5.074 -0.6702  0.3218 -0.7662
16667TIP3    H271417   1.605   1.807   5.073 -0.5695  0.0183 -0.2757
16668TIP3   OH271418   4.567   1.812   5.740  0.2495  0.7014  0.4719
16668TIP3    H171419   4.482   1.769   5.732  0.1135  1.1225 -0.4372
16668TIP3    H271420   4.614   1.760   5.806  0.8243 -2.0853 -1.9262
16669TIP3   OH271421   2.389   3.337   5.447 -0.0124  0.1980  0.5545
16669TIP3    H171422   2.426   3.414   5.403 -0.9754  0.2951 -0.1150
16669TIP3    H271423   2.322   3.372   5.505  0.2175 -0.0645  0.9878
16670TIP3   OH271424   0.470   2.759   2.993  0.0426  0.1039 -0.6243
16670TIP3    H171425   0.533   2.752   2.921  1.2067  0.8834  0.2946
16670TIP3    H271426   0.519   2.799   3.064 -1.3357  0.1511  0.3295
16671TIP3   OH271427   4.559   2.738   2.309  0.3558  0.8967 -0.1022
16671TIP3    H171428   4.533   2.751   2.218 -2.1236 -0.1436  0.4028
16671TIP3    H271429   4.507   2.802   2.358 -2.0879 -1.7333  1.0147
16672TIP3   OH271430   0.983   1.667   6.020 -0.4396  0.8169 -0.1457
16672TIP3    H171431   0.960   1.618   6.099 -0.6319  0.2122 -0.5716
16672TIP3    H271432   0.903   1.715   5.998 -0.0140  1.9519  0.7163
16673TIP3   OH271433   6.781   1.443  16.433 -0.4841 -0.6242  0.0577
16673TIP3    H171434   6.859   1.398  16.466 -1.3765 -0.8412  2.0121
16673TIP3    H271435   6.802   1.536  16.439 -0.6021 -0.6634  1.2287
16674TIP3   OH271436   0.783   0.183   1.388  0.2770  0.5872  0.0778
16674TIP3    H171437   0.697   0.158   1.355  0.7853 -0.2686 -0.6446
16674TIP3    H271438   0.766   0.222   1.474 -0.7658 -0.1236  0.2027
16675TIP3   OH271439   5.064   4.185   4.540 -0.2543  1.0399 -0.4380
16675TIP3    H171440   4.993   4.121   4.532  0.2108  0.6282 -1.4403
16675TIP3    H271441   5.137   4.145   4.493  0.6293  1.4901  0.4984
16676TIP3   OH271442   2.932   2.768   4.896 -0.1340  0.1657 -0.1574
16676TIP3    H171443   3.026   2.786   4.893 -0.3113  1.5892  1.4783
16676TIP3    H271444   2.926   2.673   4.885  1.4662  0.0792 -0.5824
16677TIP3   OH271445   1.494   5.985  14.562  0.1550 -0.5336  0.4753
16677TIP3    H171446   1.449   5.902  14.576  0.9983 -1.0405  0.2727
16677TIP3    H271447   1.574   5.961  14.515  0.0350  0.4873 -0.2867
16678TIP3   OH271448   4.630   0.091  13.793  0.3696 -0.0914  0.4066
16678TIP3    H171449   4.580   0.016  13.824 -1.5385  1.0271  0.2000
16678TIP3    H271450   4.721   0.062  13.795 -0.3058 -2.3748  0.3498
16679TIP3   OH271451   5.420   2.061  16.208  0.6595  0.5731  0.1855
16679TIP3    H171452   5.402   2.135  16.267  0.0027  0.6722 -0.1299
16679TIP3    H271453   5.508   2.078  16.174 -0.0097  1.9677 -0.9675
16680TIP3   OH271454   1.427   0.695  12.788  0.1445 -0.0181 -0.0506
16680TIP3    H171455   1.504   0.651  12.825 -1.3861 -3.2016 -0.3508
16680TIP3    H271456   1.456   0.723  12.701  1.1291 -0.7675  0.0082
16681TIP3   OH271457   4.429   4.967   0.532 -0.1504 -0.1999  0.0420
16681TIP3    H171458   4.490   4.906   0.491  0.8548  0.7439  0.0750
16681TIP3    H271459   4.344   4.944   0.496  0.3871 -0.8147 -0.8859
16682TIP3   OH271460   3.560   0.820   1.285 -0.2061  0.1136  0.1111
16682TIP3    H171461   3.655   0.821   1.292 -0.3045 -0.3207  2.1806
16682TIP3    H271462   3.542   0.822   1.191  1.8881 -1.9782 -0.4188
16683TIP3   OH271463   3.928   5.034  16.328 -0.2869 -0.4643  0.2899
16683TIP3    H171464   3.852   5.021  16.271 -0.4501 -0.7912  0.5765
16683TIP3    H271465   4.001   4.996  16.279 -0.5465 -1.3772  0.5853
16684TIP3   OH271466   1.149   1.566   2.365  0.1507 -0.7126  0.0371
16684TIP3    H171467   1.167   1.503   2.295 -0.8615  0.0917 -0.9852
16684TIP3    H271468   1.184   1.649   2.332 -3.0531  0.3931 -1.0133
16685TIP3   OH271469   6.100   4.731   1.861  0.1957  0.2809  0.2621
16685TIP3    H171470   6.007   4.753   1.856  0.4908  1.3487 -1.5239
16685TIP3    H271471   6.114   4.672   1.786  0.6262 -1.3791  1.5794
16686TIP3   OH271472   3.716   6.354  14.281 -0.2606  0.3403 -0.6598
16686TIP3    H171473   3.702   6.420  14.213  0.2734 -1.0350 -2.1855
16686TIP3    H271474   3.735   6.274  14.232  0.4974 -0.6309  1.1364
16687TIP3   OH271475   6.249   1.394   4.330 -0.2135 -0.2440 -0.1656
16687TIP3    H171476   6.298   1.320   4.366  2.3538  0.9842 -0.9035
16687TIP3    H271477   6.232   1.450   4.406 -0.0508 -0.4812  0.0472
16688TIP3   OH271478   4.755   3.250  12.489 -0.1678 -0.2306  0.8106
16688TIP3    H171479   4.774   3.183  12.424  0.5905  0.9070 -0.1927
16688TIP3    H271480   4.837   3.299  12.499 -0.2471 -0.3969  2.6790
16689TIP3   OH271481   0.497   0.331  16.738  0.1561 -0.1226 -0.8891
16689TIP3    H171482   0.554   0.397  16.776 -2.8674  2.0515  0.2275
16689TIP3    H271483   0.475   0.365  16.652 -1.2380  0.2535 -0.4003
16690TIP3   OH271484   0.006   1.142   0.084 -0.5941 -0.0177 -0.2806
16690TIP3    H171485   0.018   1.223   0.035 -1.7826  0.7734  0.6906
16690TIP3    H271486   0.066   1.080   0.042  0.6257  1.4456 -0.8079
16691TIP3   OH271487   0.483   0.614   3.478 -0.1010 -0.0513  0.2518
16691TIP3    H171488   0.462   0.521   3.474 -0.9453  0.1511 -2.9554
16691TIP3    H271489   0.577   0.617   3.496 -0.3323 -1.4163  1.9161
16692TIP3   OH271490   1.824   3.759   2.020 -0.2767 -0.5704 -0.3419
16692TIP3    H171491   1.877   3.727   2.093 -2.1039 -2.8334  0.1298
16692TIP3    H271492   1.821   3.854   2.031 -0.2984 -0.8220  2.4088
16693TIP3   OH271493   3.437   4.465   0.889 -0.2063 -0.8065  0.0957
16693TIP3    H171494   3.387   4.506   0.959  0.5553 -1.4552  1.0395
16693TIP3    H271495   3.522   4.445   0.928  0.4316 -0.7040 -1.1632
16694TIP3   OH271496   5.415   4.392  14.352  0.7604  0.1095 -0.3142
16694TIP3    H171497   5.458   4.360  14.273  0.8253 -0.9409  0.1364
16694TIP3    H271498   5.466   4.355  14.424  1.0604  1.5272  0.2417
16695TIP3   OH271499   5.134   2.156  17.064 -0.0621 -0.5674  0.1575
16695TIP3    H171500   5.187   2.234  17.050 -0.7333  0.1937  1.6220
16695TIP3    H271501   5.138   2.140  17.158 -0.4077 -1.9764 -0.0372
16696TIP3   OH271502   2.737   3.738   3.489  0.0602 -0.2546  0.0138
16696TIP3    H171503   2.772   3.826   3.493  0.9873 -0.5719 -0.8548
16696TIP3    H271504   2.667   3.737   3.555  0.0799  1.0914  0.0695
16697TIP3   OH271505   1.547   4.578   5.397  0.3592  0.3018 -0.0170
16697TIP3    H171506   1.484   4.632   5.348 -0.2378 -0.0728  0.3390
16697TIP3    H271507   1.579   4.635   5.467  1.0904  0.7857 -0.7165
16698TIP3   OH271508   4.994   5.441   5.979 -0.5708 -0.2083  0.2876
16698TIP3    H171509   4.974   5.474   5.892  1.1618  2.4575  0.7969
16698TIP3    H271510   5.073   5.388   5.967  0.7232  1.5953  0.3936
16699TIP3   OH271511   4.134   0.505  13.971  0.1018 -0.0166 -0.3555
16699TIP3    H171512   4.042   0.481  13.979  0.0632  0.2395  0.0234
16699TIP3    H271513   4.141   0.588  14.020  0.4916  0.0600 -0.5409
16700TIP3   OH271514   5.426   3.042  14.392 -0.6166  0.1753 -0.8372
16700TIP3    H171515   5.515   3.078  14.394 -0.6309  0.2548 -1.4353
16700TIP3    H271516   5.392   3.058  14.480  0.5799 -1.4309 -0.0372
16701TIP3   OH271517   3.465   3.205  16.256  0.1486  0.3000 -0.7090
16701TIP3    H171518   3.483   3.294  16.287  0.2511 -0.8218  2.8800
16701TIP3    H271519   3.383   3.180  16.300  0.1894 -1.4412 -1.5304
16702TIP3   OH271520   2.430   1.419  11.522 -0.2990  0.3424  0.0016
16702TIP3    H171521   2.466   1.381  11.602 -1.9493  0.6313  0.9317
16702TIP3    H271522   2.360   1.478  11.553 -0.4815  1.0227 -1.6155
16703TIP3   OH271523   0.970   0.948   4.041  0.2189  0.0796  0.3381
16703TIP3    H171524   0.989   1.006   4.115 -0.0995 -0.5466  0.9198
16703TIP3    H271525   0.877   0.928   4.049  0.2381 -0.1850 -0.0930
16704TIP3   OH271526   6.644   4.001   4.522  0.1733 -0.0202  0.7556
16704TIP3    H171527   6.712   3.935   4.526 -0.5680 -1.0559 -1.6677
16704TIP3    H271528   6.688   4.079   4.486  0.0612 -0.8865 -1.4469
16705TIP3   OH271529   3.197   5.408  11.079  0.3064  0.3772  0.0045
16705TIP3    H171530   3.124   5.384  11.023  0.9001 -1.7518  0.0399
16705TIP3    H271531   3.265   5.439  11.019 -0.2846  1.4900 -0.1043
16706TIP3   OH271532   1.353   1.469   0.233 -0.1138 -0.3085  0.7961
16706TIP3    H171533   1.367   1.559   0.263  1.5043 -0.2120 -0.1277
16706TIP3    H271534   1.258   1.462   0.222 -0.1741  1.8746 -0.8099
16707TIP3   OH271535   5.305   2.835  11.762 -0.1481  0.3330 -0.4692
16707TIP3    H171536   5.225   2.782  11.767 -0.1174  0.1715 -1.5251
16707TIP3    H271537   5.275   2.925  11.780 -0.5750  0.2755 -0.8721
16708TIP3   OH271538   5.643   0.806  11.808 -0.3995  0.6736  0.1412
16708TIP3    H171539   5.617   0.764  11.891  4.2171 -2.4114  0.3907
16708TIP3    H271540   5.718   0.861  11.831 -0.6154  1.8000 -1.6847
16709TIP3   OH271541   3.308   4.804   4.513  0.6612 -0.5331  0.0125
16709TIP3    H171542   3.296   4.808   4.608 -1.1073  1.1013 -0.2326
16709TIP3    H271543   3.354   4.886   4.492 -0.5389 -0.0135 -0.7021
16710TIP3   OH271544   2.628   4.889   0.327  0.0733  0.5610  0.3091
16710TIP3    H171545   2.568   4.817   0.310  0.0242  0.5943  0.3387
16710TIP3    H271546   2.572   4.961   0.356  0.1918  0.3698  1.0329
16711TIP3   OH271547   0.089   5.999  15.864 -0.1739 -0.1833 -0.0487
16711TIP3    H171548   0.078   6.071  15.926  1.3398  0.4499 -0.4538
16711TIP3    H271549   0.157   5.944  15.903  1.7899  0.9320 -1.6647
16712TIP3   OH271550   6.213   3.951  14.775  0.3740 -0.5661 -0.0612
16712TIP3    H171551   6.219   3.860  14.803 -0.1307 -0.5001  0.2637
16712TIP3    H271552   6.234   4.002  14.853 -2.5038 -0.3523  0.7048
16713TIP3   OH271553   6.017   2.696  17.048  0.1567 -0.0867 -0.4147
16713TIP3    H171554   5.960   2.766  17.018 -0.5552 -0.6244 -0.3366
16713TIP3    H271555   6.046   2.653  16.967  0.0922 -0.0923 -0.4348
16714TIP3   OH271556   2.217   2.398  15.024  0.4015  0.0909 -0.0239
16714TIP3    H171557   2.244   2.486  15.050 -0.4263  0.6644 -1.0888
16714TIP3    H271558   2.250   2.388  14.935  0.2864 -0.5929  0.0074
16715TIP3   OH271559   4.942   1.877  15.627 -0.5145 -0.1747 -1.0026
16715TIP3    H171560   4.911   1.883  15.536  1.8401 -1.0825 -1.9559
16715TIP3    H271561   4.945   1.967  15.657 -0.2637  0.2669 -2.2631
16716TIP3   OH271562   4.761   2.936   6.055  0.2604  0.0274 -0.0393
16716TIP3    H171563   4.684   2.993   6.059 -1.2439 -1.8345 -0.3024
16716TIP3    H271564   4.785   2.922   6.146 -0.5306 -0.3398  0.1290
16717TIP3   OH271565   3.622   4.417   0.258 -0.3906 -0.3517  0.3317
16717TIP3    H171566   3.544   4.422   0.312 -1.5215 -3.0038 -0.9132
16717TIP3    H271567   3.600   4.466   0.179  0.4427  1.5880  1.2297
16718TIP3   OH271568   1.635   2.275   2.793  0.1986  0.6480 -0.1281
16718TIP3    H171569   1.540   2.259   2.789  0.2424  0.6446 -1.7294
16718TIP3    H271570   1.670   2.199   2.839 -0.5223  0.3551 -0.0455
16719TIP3   OH271571   0.799   1.862   3.383 -0.1997  0.3138 -0.2931
16719TIP3    H171572   0.789   1.775   3.344 -0.4862  0.4493 -0.5278
16719TIP3    H271573   0.764   1.853   3.472  0.5966 -0.0347 -0.0059
16720TIP3   OH271574   5.465   1.335   0.601 -0.2586  0.5852  0.1065
16720TIP3    H171575   5.502   1.287   0.527  1.8365  0.3654  1.2065
16720TIP3    H271576   5.542   1.372   0.646 -1.4255  0.5614  2.2532
16721TIP3   OH271577   2.215   2.818  14.665 -0.0963 -0.1896  0.3003
16721TIP3    H171578   2.152   2.886  14.686  0.7998  0.3581  1.2796
16721TIP3    H271579   2.285   2.864  14.619 -0.2526 -0.7456 -0.5274
16722TIP3   OH271580   2.300   3.270   2.020  0.4752  0.1512  0.9587
16722TIP3    H171581   2.314   3.249   2.112 -1.2699  0.5965  1.3461
16722TIP3    H271582   2.294   3.184   1.977 -1.0504 -0.1279  1.6576
16723TIP3   OH271583   0.057   5.528   2.015 -0.1776  0.5260  0.1459
16723TIP3    H171584   0.026   5.447   1.976 -2.1303  0.7211  1.1573
16723TIP3    H271585   0.104   5.573   1.944 -1.4574 -0.2306 -1.2325
16724TIP3   OH271586   0.055   3.692   2.760 -0.1624 -0.7329 -0.3314
16724TIP3    H171587   0.039   3.730   2.673  0.6099  0.9549  0.2398
16724TIP3    H271588   0.150   3.682   2.764  0.1790  2.1748  1.4528
16725TIP3   OH271589   1.520   0.843   6.325  0.9139 -0.1720 -0.0980
16725TIP3    H171590   1.588   0.819   6.262 -0.2201  0.9809 -1.8436
16725TIP3    H271591   1.443   0.862   6.272  0.0035  1.2692  1.6010
16726TIP3   OH271592   4.224   0.020   3.699  0.1977  0.2044  0.7084
16726TIP3    H171593   4.266  -0.026   3.626 -1.5886  0.2975 -0.4438
16726TIP3    H271594   4.296   0.069   3.740  1.9139 -2.4883  1.1782
16727TIP3   OH271595   0.888   3.952  12.074 -0.4130  0.6759 -0.4952
16727TIP3    H171596   0.889   3.999  11.991  1.1517  0.4885 -0.6039
16727TIP3    H271597   0.971   3.904  12.076 -0.4477  0.6319  1.1431
16728TIP3   OH271598   1.665   6.640  12.614 -0.4681  0.1128  0.3365
16728TIP3    H171599   1.647   6.557  12.570  2.1612 -0.1580 -0.4187
16728TIP3    H271600   1.690   6.700  12.543  1.3028  0.4181  1.1635
16729TIP3   OH271601   5.345   2.756   5.818  0.1651 -0.0928  0.2335
16729TIP3    H171602   5.383   2.835   5.780 -0.7860  0.8493  1.1535
16729TIP3    H271603   5.252   2.777   5.828 -0.3294 -1.7673 -0.5590
16730TIP3   OH271604   1.966   0.809  16.627  0.0687  0.4587 -0.1094
16730TIP3    H171605   1.980   0.728  16.676  0.7118  0.3511 -0.4607
16730TIP3    H271606   2.054   0.848  16.620  0.1917 -0.0898 -2.1467
16731TIP3   OH271607   1.844   4.950  11.290  0.0678 -0.2155 -0.5975
16731TIP3    H171608   1.851   5.033  11.337  0.4757 -1.2859  1.3901
16731TIP3    H271609   1.908   4.893  11.334  0.0425 -1.4844 -2.1207
16732TIP3   OH271610   3.455   5.095  13.489  0.0334 -0.4057 -0.0747
16732TIP3    H171611   3.512   5.057  13.556  1.4451 -0.8701 -1.5019
16732TIP3    H271612   3.367   5.064  13.512  0.1581  0.9579  2.6250
16733TIP3   OH271613   6.228   0.596   3.389  0.0430 -0.2716  0.4275
16733TIP3    H171614   6.195   0.522   3.338 -0.5468  0.1420  0.1949
16733TIP3    H271615   6.201   0.577   3.479 -0.1782 -0.3033  0.3562
16734TIP3   OH271616   3.079   1.572  13.782 -0.1297  0.3145  0.1709
16734TIP3    H171617   3.069   1.666  13.766 -0.5788  0.6185  2.0294
16734TIP3    H271618   3.012   1.532  13.728 -1.0884  1.2084  0.6571
16735TIP3   OH271619   4.373   0.747   3.034  0.1494 -0.3771  0.1737
16735TIP3    H171620   4.326   0.711   2.958 -1.8988 -0.8807  1.5926
16735TIP3    H271621   4.457   0.776   2.998 -1.1455  0.4385 -2.5196
16736TIP3   OH271622   3.160   6.704   0.412 -0.1539 -0.0873  0.1386
16736TIP3    H171623   3.073   6.720   0.374  0.7700 -0.4838 -2.2868
16736TIP3    H271624   3.199   6.791   0.417 -1.4377  0.4631  3.5071
16737TIP3   OH271625   0.606   5.568  15.143  0.0212  0.7581 -0.2216
16737TIP3    H171626   0.555   5.579  15.224  2.0260  1.3536  1.0476
16737TIP3    H271627   0.683   5.519  15.170  0.1344 -0.1779 -2.0949
16738TIP3   OH271628   0.854   0.284  16.166  0.3608  0.3782  0.1382
16738TIP3    H171629   0.860   0.379  16.160  0.6611  0.2782 -2.6700
16738TIP3    H271630   0.941   0.255  16.194  0.0907  0.9046  1.6194
16739TIP3   OH271631   0.876   3.572  16.576  0.4142 -0.3614 -0.5276
16739TIP3    H171632   0.862   3.481  16.550 -1.3247 -0.5565  0.8863
16739TIP3    H271633   0.803   3.620  16.536 -0.1833 -0.0613  0.8657
16740TIP3   OH271634   2.078   0.242  14.169 -0.0951 -0.6456  0.4705
16740TIP3    H171635   2.041   0.167  14.122  1.9849 -0.9412 -0.8567
16740TIP3    H271636   2.172   0.235  14.154  0.1053  3.2422 -1.3420
16741TIP3   OH271637   1.256   5.485  11.171 -0.2454  0.4348 -1.0232
16741TIP3    H171638   1.172   5.530  11.159 -1.7923 -1.4659  1.7074
16741TIP3    H271639   1.320   5.543  11.130 -2.3830  3.8411  0.0319
16742TIP3   OH271640   4.358   4.234   2.496  0.4141 -0.4220 -0.2449
16742TIP3    H171641   4.427   4.196   2.441 -0.0966 -3.0824  0.7557
16742TIP3    H271642   4.399   4.242   2.582 -0.6667 -3.0123  0.6257
16743TIP3   OH271643   6.070   5.124  16.193 -0.2048  0.7047 -0.4130
16743TIP3    H171644   6.091   5.200  16.248  2.3174  0.0806 -0.4290
16743TIP3    H271645   6.097   5.150  16.105  1.9177 -0.5932 -0.2090
16744TIP3   OH271646   5.669   2.264  10.546 -0.5359  0.1996  0.1976
16744TIP3    H171647   5.725   2.193  10.516  1.1879  0.8551  1.6849
16744TIP3    H271648   5.671   2.257  10.642  0.4248  2.7525  0.4249
16745TIP3   OH271649   6.133   0.880  12.430 -0.1037 -0.1558 -0.8235
16745TIP3    H171650   6.140   0.946  12.499  0.9424 -1.0380 -0.0511
16745TIP3    H271651   6.132   0.930  12.348  0.0231  0.8331 -0.2306
16746TIP3   OH271652   0.324   2.021  14.582 -0.3120 -0.4770  0.1908
16746TIP3    H171653   0.333   2.072  14.501 -0.1954 -2.2977 -1.0084
16746TIP3    H271654   0.233   1.991  14.581  0.2815 -2.3708 -0.4791
16747TIP3   OH271655   2.482   1.935   4.430  0.4668  0.6164  0.5572
16747TIP3    H171656   2.448   1.965   4.345  0.8479  0.1689  0.2447
16747TIP3    H271657   2.437   1.852   4.446  2.2676 -0.6014 -0.4362
16748TIP3   OH271658   0.252   6.242   4.616 -0.1671  0.1163 -0.0242
16748TIP3    H171659   0.201   6.318   4.646 -0.1769 -0.9083  2.8638
16748TIP3    H271660   0.239   6.176   4.684  2.9383 -1.1247 -0.4813
16749TIP3   OH271661   4.595   2.640  12.313 -0.2809  0.0608  0.1552
16749TIP3    H171662   4.609   2.608  12.402  0.6563  0.9325  0.3416
16749TIP3    H271663   4.589   2.735  12.323  0.9213  0.2587 -0.8348
16750TIP3   OH271664   4.156   4.044   4.420 -0.0119  0.0315  0.2964
16750TIP3    H171665   4.198   3.968   4.458 -0.1469 -0.8420 -1.2212
16750TIP3    H271666   4.072   4.011   4.386 -0.2879  0.9530  0.0409
16751TIP3   OH271667   0.401   4.843   5.799 -0.3502  0.4283  0.0945
16751TIP3    H171668   0.366   4.854   5.888 -2.1150  0.9138 -0.6202
16751TIP3    H271669   0.477   4.786   5.810 -0.6303  0.3425  1.8981
16752TIP3   OH271670   4.486   0.295  15.762  0.1506  0.0005  0.6766
16752TIP3    H171671   4.420   0.292  15.693  1.1131  2.0407 -0.3809
16752TIP3    H271672   4.522   0.206  15.764 -0.8395 -0.4518 -0.4837
16753TIP3   OH271673   0.237   5.875  17.234 -0.0212  0.1003 -0.2299
16753TIP3    H171674   0.144   5.877  17.212 -0.3727 -0.9794  1.0075
16753TIP3    H271675   0.267   5.964  17.220 -1.3708  0.5958 -0.1272
16754TIP3   OH271676   3.239   1.387   1.912  0.0683 -0.1416  0.2196
16754TIP3    H171677   3.168   1.336   1.875 -0.3303  0.6059 -0.0714
16754TIP3    H271678   3.290   1.416   1.836 -0.9916  1.7531  0.1817
16755TIP3   OH271679   4.037   4.346   4.314  0.1157 -0.2727 -0.2446
16755TIP3    H171680   3.958   4.401   4.320 -0.0680 -0.6012  0.5550
16755TIP3    H271681   4.052   4.318   4.404  1.2235 -0.1176 -0.3766
16756TIP3   OH271682   1.573   0.450  11.206  0.2800 -0.0808 -0.2624
16756TIP3    H171683   1.653   0.421  11.250  0.7010 -0.2382 -1.1157
16756TIP3    H271684   1.523   0.369  11.193  0.0882 -0.0141  0.0585
16757TIP3   OH271685   3.829   6.651  16.942 -0.2116 -0.0173 -0.3351
16757TIP3    H171686   3.922   6.658  16.964  0.3797  0.5269 -2.6971
16757TIP3    H271687   3.828   6.611  16.855 -2.1926  0.0969 -0.4122
16758TIP3   OH271688   0.715   3.853   1.291 -0.1748  0.0852 -0.8388
16758TIP3    H171689   0.756   3.869   1.376 -0.3803  0.6356 -0.8393
16758TIP3    H271690   0.686   3.940   1.262 -0.7507 -0.2020 -1.1335
16759TIP3   OH271691   0.985   1.215   5.736 -0.1136 -0.7620  0.2891
16759TIP3    H171692   0.932   1.141   5.708 -1.1438 -1.3431  3.3784
16759TIP3    H271693   1.060   1.176   5.781  0.2517  0.0728  0.4352
16760TIP3   OH271694   5.274   6.206  11.872 -0.0486  0.3116  0.2757
16760TIP3    H171695   5.365   6.201  11.903  0.8313  0.6401 -2.0574
16760TIP3    H271696   5.277   6.271  11.802 -1.9057 -0.3900 -0.5004
16761TIP3   OH271697   6.722   6.109  13.325 -0.3420 -0.2082  0.1701
16761TIP3    H171698   6.676   6.121  13.408 -0.8444  0.9130 -0.2483
16761TIP3    H271699   6.781   6.035  13.340 -0.8539 -0.3941  1.3323
16762TIP3   OH271700   2.561   3.747  13.746  0.0003 -0.2717  0.1325
16762TIP3    H171701   2.505   3.763  13.823 -1.1019 -2.4581 -0.1069
16762TIP3    H271702   2.650   3.760  13.778 -0.5232  1.3290  1.0781
16763TIP3   OH271703   1.108   0.035   3.066  0.0919  0.0789 -0.0407
16763TIP3    H171704   1.114   0.130   3.062  1.8871  0.0187  0.6090
16763TIP3    H271705   1.059   0.017   3.146  1.6922  0.4391  1.0568
16764TIP3   OH271706   1.840   1.036  16.888  0.1218 -1.0281 -0.1826
16764TIP3    H171707   1.930   1.053  16.918  0.2990 -1.3645 -0.5098
16764TIP3    H271708   1.811   1.120  16.852  0.6529 -1.1551 -0.9341
16765TIP3   OH271709   1.026   0.048   1.383 -0.3000 -0.6587 -0.6490
16765TIP3    H171710   0.943   0.096   1.384  1.7181  3.2318  1.3326
16765TIP3    H271711   1.012  -0.026   1.442 -1.9013  0.9039  1.0470
16766TIP3   OH271712   2.227   0.056   4.892 -0.0164 -0.1679 -0.1952
16766TIP3    H171713   2.152   0.090   4.940 -0.0567  1.4019 -1.2862
16766TIP3    H271714   2.279   0.011   4.958 -1.6636 -0.8930  0.6677
16767TIP3   OH271715   0.693   3.319   5.362  0.1445  0.8462  0.6472
16767TIP3    H171716   0.679   3.309   5.456 -0.4918 -2.0597  0.3261
16767TIP3    H271717   0.782   3.285   5.347 -0.4491 -0.4839  0.0003
16768TIP3   OH271718   0.939   0.889  12.356  0.2538  0.2595 -0.0651
16768TIP3    H171719   1.000   0.850  12.418  0.1118  1.3975  0.8229
16768TIP3    H271720   0.890   0.815  12.320  0.7739 -0.4753  0.7228
16769TIP3   OH271721   6.110   0.185  15.940 -0.0402 -0.3447  0.6791
16769TIP3    H171722   6.206   0.190  15.933  0.1263  3.4054  3.0568
16769TIP3    H271723   6.095   0.121  16.010  0.6068 -1.4994 -0.1910
16770TIP3   OH271724   2.251   2.018  14.857  0.6848 -0.0801 -0.0476
16770TIP3    H171725   2.165   2.036  14.818  1.0757 -2.6358 -2.3545
16770TIP3    H271726   2.232   2.000  14.949 -1.3645 -1.0719 -0.6011
16771TIP3   OH271727   6.467   5.738   0.398  0.2114  0.4119 -0.4061
16771TIP3    H171728   6.510   5.726   0.313 -1.0164  0.9746 -1.1281
16771TIP3    H271729   6.374   5.737   0.378 -0.1655 -1.1991  1.1749
16772TIP3   OH271730   1.656   6.056  15.919 -0.2755  0.1555 -0.0767
16772TIP3    H171731   1.734   6.031  15.870  0.1142  1.3883 -0.1167
16772TIP3    H271732   1.636   6.145  15.890 -0.8668  0.3798  0.9602
16773TIP3   OH271733   0.922   3.605   1.219  0.0973 -0.0892 -0.1610
16773TIP3    H171734   0.847   3.635   1.269  0.9751  0.9023  0.5895
16773TIP3    H271735   0.900   3.514   1.196 -0.5814 -0.3909  1.5212
16774TIP3   OH271736   3.758   0.515  13.269  0.0417  0.0487 -0.0109
16774TIP3    H171737   3.724   0.602  13.250  2.6250  1.3800  0.9621
16774TIP3    H271738   3.758   0.509  13.365  1.7559 -0.1527  0.0162
16775TIP3   OH271739   5.653   3.783  16.251 -0.6486  0.0493  0.1944
16775TIP3    H171740   5.577   3.725  16.261 -1.4218  0.7889 -1.0207
16775TIP3    H271741   5.726   3.725  16.231 -0.7755 -0.7159  1.8630
16776TIP3   OH271742   3.947   5.231   2.546 -0.1240 -0.4130  0.1237
16776TIP3    H171743   4.035   5.196   2.561 -0.0448 -0.2352  0.0677
16776TIP3    H271744   3.894   5.153   2.530  0.0790 -0.5017 -0.1274
16777TIP3   OH271745   4.425   3.136   1.800 -0.1203  0.2631  0.2840
16777TIP3    H171746   4.440   3.107   1.889 -0.4651 -2.2011 -0.3964
16777TIP3    H271747   4.329   3.141   1.792 -0.3871 -3.4868 -0.9665
16778TIP3   OH271748   5.722   1.838  11.711  0.3904  0.5024 -0.5549
16778TIP3    H171749   5.789   1.903  11.732  0.7828  0.7353 -2.3949
16778TIP3    H271750   5.654   1.887  11.664 -0.8392  0.1579  0.7817
16779TIP3   OH271751   4.717   2.112  13.265 -0.6851  0.3453  0.3628
16779TIP3    H171752   4.707   2.019  13.284  0.9285  0.0914  0.1747
16779TIP3    H271753   4.658   2.156  13.325 -0.1030 -0.7194  1.7671
16780TIP3   OH271754   2.970   4.084   5.381  0.5452 -0.9343  0.0322
16780TIP3    H171755   2.920   4.104   5.460 -0.0132 -1.1251 -0.2676
16780TIP3    H271756   3.056   4.124   5.396 -0.2613  1.0198 -0.1947
16781TIP3   OH271757   3.914   3.253  11.811  0.1550 -0.5038 -0.0366
16781TIP3    H171758   3.997   3.205  11.804  0.8267  0.6458 -0.1765
16781TIP3    H271759   3.853   3.189  11.847  0.9080 -1.5914 -0.6259
16782TIP3   OH271760   4.209   2.149  14.753 -0.2324 -0.2802  0.0811
16782TIP3    H171761   4.235   2.058  14.766  3.2279  0.8409  2.9013
16782TIP3    H271762   4.125   2.157  14.797 -0.6936 -2.0888 -0.3911
16783TIP3   OH271763   2.744   6.209   4.402 -0.1219  0.5903 -0.2383
16783TIP3    H171764   2.806   6.159   4.349 -0.6368 -0.3224 -0.0051
16783TIP3    H271765   2.669   6.223   4.344  0.2074  1.5048 -0.4511
16784TIP3   OH271766   6.094   0.410  14.285 -0.6854 -0.1368 -0.0385
16784TIP3    H171767   6.097   0.329  14.336 -0.4162 -0.2235 -0.1867
16784TIP3    H271768   6.025   0.462  14.326  0.1976  0.2137  1.0470
16785TIP3   OH271769   5.984   4.647  11.516 -0.9601  1.2279  0.2407
16785TIP3    H171770   6.027   4.676  11.435  0.9693 -0.8314  0.4170
16785TIP3    H271771   5.891   4.644  11.494 -0.4137 -0.4666 -2.3730
16786TIP3   OH271772   6.231   0.921   5.690  0.1018 -0.4197 -0.3179
16786TIP3    H171773   6.231   0.988   5.758 -0.4094 -1.2324  0.5076
16786TIP3    H271774   6.288   0.956   5.621 -0.3075  0.9312  0.0060
16787TIP3   OH271775   4.240   2.733  11.087  0.1321  0.3062  0.0840
16787TIP3    H171776   4.279   2.647  11.070 -1.5968 -0.2319 -1.5627
16787TIP3    H271777   4.244   2.742  11.182 -1.7268 -2.7244  0.6107
16788TIP3   OH271778   3.264   5.319  15.682 -0.2136  0.0542 -0.0412
16788TIP3    H171779   3.179   5.281  15.660  0.2268  0.1662 -2.1398
16788TIP3    H271780   3.280   5.291  15.772 -2.3776 -0.1014  0.3449
16789TIP3   OH271781   0.686   3.749   5.507 -0.2231  0.4574  0.3149
16789TIP3    H171782   0.655   3.836   5.482 -0.2919  1.0894  2.3861
16789TIP3    H271783   0.760   3.732   5.449 -1.6555  0.8210 -1.7256
16790TIP3   OH271784   0.394   6.150   0.653 -0.1505 -0.3223  0.4666
16790TIP3    H171785   0.317   6.179   0.701 -0.3546  0.3116 -0.2083
16790TIP3    H271786   0.398   6.209   0.577  1.1679 -0.1439  0.6515
16791TIP3   OH271787   4.097   4.277  13.351  0.0873  0.2691  0.2762
16791TIP3    H171788   4.167   4.339  13.329 -0.0032  0.6555  1.0564
16791TIP3    H271789   4.044   4.323  13.416 -0.5252 -0.2727  0.1672
16792TIP3   OH271790   3.252   5.421  12.368 -0.5597  0.0833 -0.2656
16792TIP3    H171791   3.172   5.474  12.368 -0.7539 -0.1804  0.7894
16792TIP3    H271792   3.222   5.331  12.355 -0.7819 -0.3923  2.7100
16793TIP3   OH271793   4.803   5.762   5.717 -0.1742 -0.1663  0.6302
16793TIP3    H171794   4.808   5.666   5.722  1.5887 -0.0714  1.3241
16793TIP3    H271795   4.764   5.788   5.800  0.7038 -0.2383  1.0862
16794TIP3   OH271796   1.486   2.797   4.927  0.0372 -0.2202  0.1910
16794TIP3    H171797   1.543   2.732   4.967 -0.1295 -1.4663 -1.4905
16794TIP3    H271798   1.464   2.761   4.841 -0.8308  1.6240 -0.4317
16795TIP3   OH271799   0.067   5.863   2.748  0.0734  0.1449 -0.1481
16795TIP3    H171800   0.157   5.863   2.715  0.0577  1.1583 -0.2238
16795TIP3    H271801   0.068   5.801   2.821  1.0177  0.6862  0.3144
16796TIP3   OH271802   3.986   1.576  10.475  0.1754  0.4220 -0.1980
16796TIP3    H171803   3.912   1.586  10.416  1.7944  0.2375 -2.3882
16796TIP3    H271804   3.991   1.660  10.521 -0.7640  0.8012 -0.7668
16797TIP3   OH271805   0.334   0.549   2.920 -0.0330 -0.0948 -0.4594
16797TIP3    H171806   0.334   0.614   2.990 -1.9147 -1.4023  0.8571
16797TIP3    H271807   0.412   0.496   2.936 -0.7613 -0.7546  1.0807
16798TIP3   OH271808   3.453   4.990  14.717  0.1386 -0.1544  0.1820
16798TIP3    H171809   3.403   4.930  14.773 -1.2678 -0.5993 -1.4448
16798TIP3    H271810   3.421   4.972  14.628  3.0193 -0.2632 -0.9549
16799TIP3   OH271811   6.401   5.651   1.490  0.1130  0.0308 -0.3503
16799TIP3    H171812   6.487   5.685   1.465  0.3245 -0.2328  0.0149
16799TIP3    H271813   6.408   5.557   1.477 -0.3527  0.0805 -0.9965
16800TIP3   OH271814   2.786   4.334  16.795 -0.0159  0.1365  0.5878
16800TIP3    H171815   2.712   4.344  16.734 -1.0257  0.8592  1.8796
16800TIP3    H271816   2.797   4.239  16.804 -1.0599  0.0116  0.6768
16801TIP3   OH271817   6.423   0.453  11.256  0.1540  0.1752 -0.4943
16801TIP3    H171818   6.415   0.411  11.171 -2.4962  2.3958 -1.4760
16801TIP3    H271819   6.389   0.388  11.318  0.2400 -0.7200 -1.3646
16802TIP3   OH271820   0.453   0.697   3.139  0.2439  0.1520 -0.6274
16802TIP3    H171821   0.510   0.753   3.086  1.8727  0.5249  1.4055
16802TIP3    H271822   0.416   0.756   3.205 -0.6462 -0.5569 -0.4736
16803TIP3   OH271823   1.626   2.840  11.825 -0.3816  0.6540  0.2029
16803TIP3    H171824   1.633   2.870  11.735  1.7669 -0.1603  0.0459
16803TIP3    H271825   1.535   2.812  11.834 -0.7613  1.2302 -1.5426
16804TIP3   OH271826   1.382   6.041  13.229 -0.7679  0.0706  0.6279
16804TIP3    H171827   1.316   6.107  13.207 -2.2161 -1.7642 -0.9687
16804TIP3    H271828   1.421   6.072  13.310 -1.6598  2.6484  0.1656
16805TIP3   OH271829   3.700   5.219  17.179 -0.3661  0.6432 -0.0676
16805TIP3    H171830   3.733   5.168  17.106 -1.0232 -0.7364  0.5712
16805TIP3    H271831   3.622   5.173  17.208 -0.7748  1.8044  0.7832
16806TIP3   OH271832   3.933   5.103  10.890 -0.3162  0.1850 -0.7040
16806TIP3    H171833   3.978   5.175  10.844 -1.1439  0.9235 -0.3911
16806TIP3    H271834   3.960   5.024  10.844 -1.3104  0.9129 -2.6294
16807TIP3   OH271835   4.463   6.773   2.578 -0.0255 -0.0604 -0.0199
16807TIP3    H171836   4.456   6.846   2.517 -0.9723  0.6379  0.8974
16807TIP3    H271837   4.545   6.730   2.555  0.2182  0.8973 -0.9973
16808TIP3   OH271838   1.661   3.090  12.672  0.2359 -0.0489  0.1449
16808TIP3    H171839   1.683   3.110  12.763 -0.0935 -0.3079  0.2852
16808TIP3    H271840   1.609   3.009  12.677  1.2637 -0.7668 -0.3706
16809TIP3   OH271841   2.609   4.276   2.512 -0.3799 -0.1312 -0.8516
16809TIP3    H171842   2.541   4.341   2.493 -0.9683 -0.8562 -1.2676
16809TIP3    H271843   2.689   4.328   2.523 -1.1220  0.8217  0.4389
16810TIP3   OH271844   4.104   0.052   5.507  0.4410  0.7711  0.4317
16810TIP3    H171845   4.165  -0.021   5.495  0.8660  1.0707  0.7358
16810TIP3    H271846   4.031   0.032   5.448  0.8202  0.3963  0.0816
16811TIP3   OH271847   6.210   3.688  14.867 -0.1296 -0.1848  0.1577
16811TIP3    H171848   6.254   3.613  14.906 -0.8619 -0.2125  0.9510
16811TIP3    H271849   6.119   3.681  14.897  0.1165  1.8918  1.5692
16812TIP3   OH271850   0.487   1.887   6.403  0.4857 -0.0541 -0.2442
16812TIP3    H171851   0.465   1.949   6.334 -1.1366 -0.5972 -0.2446
16812TIP3    H271852   0.459   1.931   6.484 -1.9165 -1.2697 -0.3524
16813TIP3   OH271853   2.673   1.302   3.530  0.4518 -0.0046 -0.0624
16813TIP3    H171854   2.646   1.217   3.496  0.1460  0.5673 -1.3025
16813TIP3    H271855   2.719   1.282   3.612 -1.4470 -1.1786  0.7615
16814TIP3   OH271856   4.583   4.312  10.755 -0.3960 -0.3432 -0.0916
16814TIP3    H171857   4.586   4.234  10.699 -1.2169 -1.1924  1.0084
16814TIP3    H271858   4.489   4.329  10.766 -0.2372  1.3099 -0.9706
16815TIP3   OH271859   4.650   6.373   3.822 -0.2584  0.1081 -0.3963
16815TIP3    H171860   4.648   6.465   3.798  1.8111  0.2841 -0.0633
16815TIP3    H271861   4.632   6.372   3.916  0.9768  0.3091 -0.1479
16816TIP3   OH271862   2.621   5.795  15.265 -0.0404  0.2254 -0.0610
16816TIP3    H171863   2.603   5.702  15.271 -0.4140  0.3375  0.7479
16816TIP3    H271864   2.579   5.833  15.342  1.5151  0.8402  0.5408
16817TIP3   OH271865   1.874   3.629  12.601 -0.0243 -0.0456  0.5421
16817TIP3    H171866   1.833   3.649  12.685 -1.1769  0.5853 -0.1531
16817TIP3    H271867   1.962   3.667  12.608  0.1130 -0.5464  1.6815
16818TIP3   OH271868   1.792   5.579   0.045 -0.2785 -0.2100 -0.2271
16818TIP3    H171869   1.714   5.549   0.090  0.1511 -1.1238 -0.0593
16818TIP3    H271870   1.847   5.617   0.114  0.2755 -1.3912  0.0074
16819TIP3   OH271871   0.751   2.518   4.715 -0.4944 -0.2289 -0.3804
16819TIP3    H171872   0.680   2.568   4.674 -0.4875  0.0383 -0.0707
16819TIP3    H271873   0.787   2.578   4.781  0.9407  0.1623 -1.4854
16820TIP3   OH271874   6.599   6.469   2.614 -0.7370 -0.2407  0.1489
16820TIP3    H171875   6.634   6.453   2.702  2.2631 -0.4319 -0.9832
16820TIP3    H271876   6.551   6.551   2.622  2.5448  1.7421  1.2981
16821TIP3   OH271877   1.096   0.311   3.103 -0.2306  0.3115 -0.2004
16821TIP3    H171878   1.131   0.384   3.052  2.8570 -1.2355 -0.4876
16821TIP3    H271879   1.096   0.344   3.193 -1.3174  1.4687 -0.5811
16822TIP3   OH271880   3.967   4.779  12.705 -0.7682 -0.5204  0.1802
16822TIP3    H171881   4.006   4.834  12.773 -2.0402 -0.3064  0.7571
16822TIP3    H271882   3.959   4.837  12.629  1.1007 -0.8897 -0.3516
16823TIP3   OH271883   2.116   1.309   1.602 -0.2485  0.1008  0.5530
16823TIP3    H171884   2.056   1.279   1.670 -0.6446  1.6223  0.9309
16823TIP3    H271885   2.140   1.230   1.554 -0.3435 -0.9431  2.1408
16824TIP3   OH271886   4.747   1.832  13.061 -0.0504 -0.1454 -0.1595
16824TIP3    H171887   4.667   1.816  13.112 -0.4904  0.9332 -0.4782
16824TIP3    H271888   4.722   1.816  12.970 -0.0125  0.5548 -0.2981
16825TIP3   OH271889   1.812   3.175  12.909 -0.3988  0.1331 -0.4964
16825TIP3    H171890   1.886   3.117  12.930 -0.0902  1.1877  1.6112
16825TIP3    H271891   1.845   3.234  12.842  0.9720  1.0996  0.9821
16826TIP3   OH271892   6.244   2.748   1.672 -0.8624 -0.5735  0.3738
16826TIP3    H171893   6.193   2.691   1.730 -0.3310 -0.4641  0.9582
16826TIP3    H271894   6.335   2.730   1.694 -0.6081 -1.2136 -1.0834
16827TIP3   OH271895   5.332   2.323   5.290  0.3760  0.0164  0.4933
16827TIP3    H171896   5.258   2.375   5.257  0.3640 -0.2023  0.1680
16827TIP3    H271897   5.387   2.309   5.213  0.3934 -0.4298  0.5856
16828TIP3   OH271898   0.762   6.750  16.248 -0.0322  0.5959 -0.3673
16828TIP3    H171899   0.794   6.838  16.267 -0.5735  1.2571 -2.2954
16828TIP3    H271900   0.814   6.693  16.304  3.1232  1.7730 -1.8629
16829TIP3   OH271901   0.713   5.527  10.493 -0.3372 -0.2420 -0.1821
16829TIP3    H171902   0.799   5.497  10.522 -0.9135 -0.6018  1.2429
16829TIP3    H271903   0.708   5.618  10.524 -0.0618  0.1355 -1.2103
16830TIP3   OH271904   6.146   1.739   0.506 -0.0454  0.2436  0.1525
16830TIP3    H171905   6.185   1.663   0.463  0.7843  0.3042  0.7705
16830TIP3    H271906   6.205   1.758   0.579 -0.2077  1.5077 -0.0208
16831TIP3   OH271907   1.606   5.087  13.608 -0.2337 -0.8149  0.0507
16831TIP3    H171908   1.630   5.086  13.515  1.2089 -0.9495  0.3971
16831TIP3    H271909   1.599   4.995  13.632 -2.0127 -0.7792 -0.2405
16832TIP3   OH271910   5.174   6.364   2.326  0.0592 -0.7277 -0.4128
16832TIP3    H171911   5.142   6.452   2.306  1.7207  0.0717  0.2128
16832TIP3    H271912   5.257   6.357   2.277  0.5562 -1.4612  0.4995
16833TIP3   OH271913   1.074   3.935  13.886  0.1042 -0.3071  0.1469
16833TIP3    H171914   1.034   3.984  13.958  0.4530  1.6811 -0.9504
16833TIP3    H271915   1.145   3.886  13.927 -1.0146 -0.8947  1.4802
16834TIP3   OH271916   3.033   1.218  13.616 -1.0458  0.1501  0.1412
16834TIP3    H171917   2.968   1.288  13.608 -0.8776  0.1103 -2.1295
16834TIP3    H271918   2.999   1.161  13.685 -0.4790  3.1277  3.1430
16835TIP3   OH271919   6.505   6.538   5.309 -0.1242  0.1796  0.1909
16835TIP3    H171920   6.540   6.509   5.224 -0.4658  0.7039 -0.1340
16835TIP3    H271921   6.499   6.458   5.361  1.5729  0.0579  0.2713
16836TIP3   OH271922   6.238   5.403   3.227  0.1366  0.1191  0.5163
16836TIP3    H171923   6.265   5.477   3.173 -1.9975 -1.7655 -3.4953
16836TIP3    H271924   6.143   5.410   3.234 -0.0879 -1.9873  0.3702
16837TIP3   OH271925   4.833   3.132  16.268 -0.4513  0.0968 -0.0968
16837TIP3    H171926   4.790   3.119  16.183  0.0919  0.9181 -0.5092
16837TIP3    H271927   4.919   3.169  16.247 -0.8206  1.6151  0.8469
16838TIP3   OH271928   0.969   1.547  14.751 -0.3815 -0.2711 -0.5535
16838TIP3    H171929   1.017   1.506  14.823  0.8134 -1.4256 -1.9438
16838TIP3    H271930   0.879   1.518  14.763  0.3511 -3.2104 -1.2892
16839TIP3   OH271931   2.470   3.765  15.742  0.3668 -0.4345 -0.9077
16839TIP3    H171932   2.401   3.702  15.762 -3.2125  3.1079 -0.8539
16839TIP3    H271933   2.457   3.786  15.650 -0.1467  1.8701 -0.3601
16840TIP3   OH271934   3.100   4.526  13.249 -0.0045  0.1104 -0.0094
16840TIP3    H171935   3.030   4.545  13.311 -0.0516 -3.9392  1.4706
16840TIP3    H271936   3.177   4.512  13.303  0.5818 -0.9632 -1.0763
16841TIP3   OH271937   0.761   5.246   2.486 -0.9217 -0.2949 -0.1757
16841TIP3    H171938   0.819   5.280   2.418  0.7799  0.5358  1.5935
16841TIP3    H271939   0.816   5.240   2.564 -2.6860 -1.6060  1.0503
16842TIP3   OH271940   2.785   4.120   0.521 -0.5702 -0.2819  0.1122
16842TIP3    H171941   2.809   4.195   0.575  0.6899  0.3881 -1.3159
16842TIP3    H271942   2.776   4.048   0.584 -1.4170  0.9305  1.4619
16843TIP3   OH271943   2.167   5.545  11.764 -0.3299 -0.4582  0.2890
16843TIP3    H171944   2.127   5.507  11.686  0.6172 -1.5303  0.3064
16843TIP3    H271945   2.165   5.475  11.829 -1.4500  0.5406  1.3738
16844TIP3   OH271946   2.220   5.246  11.846  0.3482 -0.7473  0.1220
16844TIP3    H171947   2.210   5.152  11.828 -0.9167 -0.8859  1.3627
16844TIP3    H271948   2.265   5.249  11.931  1.6083 -0.1955 -0.5451
16845TIP3   OH271949   4.971   1.921  12.899  0.2209 -0.3891  0.3824
16845TIP3    H171950   4.919   1.871  12.962 -0.7298 -0.3806 -0.3678
16845TIP3    H271951   5.055   1.876  12.895  0.0026 -0.8631  1.0526
16846TIP3   OH271952   2.269   3.644  17.062 -0.0571 -0.2426  0.3984
16846TIP3    H171953   2.304   3.591  16.990  2.2259 -1.6496  2.4110
16846TIP3    H271954   2.328   3.628  17.135 -2.9434  0.1541  3.0266
16847TIP3   OH271955   2.177   5.747   5.228 -0.5876  0.2155  0.3870
16847TIP3    H171956   2.159   5.697   5.149  0.9419  0.3071 -0.0436
16847TIP3    H271957   2.268   5.775   5.219 -0.9859  1.9363  1.2389
16848TIP3   OH271958   1.102   6.737   4.389 -0.2182  0.1649  0.2385
16848TIP3    H171959   1.072   6.819   4.349 -1.8637 -0.1139  0.8391
16848TIP3    H271960   1.032   6.712   4.448  1.0356 -0.7963  1.3777
16849TIP3   OH271961   1.648   4.139   1.916 -0.8344 -0.0993  0.7085
16849TIP3    H171962   1.744   4.140   1.915 -0.5570 -1.5490 -4.5581
16849TIP3    H271963   1.626   4.061   1.967  1.1804 -2.0461 -1.1318
16850TIP3   OH271964   0.888   0.639  12.186 -0.3715 -0.9182  0.5327
16850TIP3    H171965   0.841   0.557  12.200  2.7487 -3.3533 -1.9469
16850TIP3    H271966   0.973   0.626  12.227  0.7139  0.5074 -1.1261
16851TIP3   OH271967   1.959   3.396  12.404  0.0924 -0.3754  0.2681
16851TIP3    H171968   1.890   3.330  12.410  0.0955 -0.2496  3.6286
16851TIP3    H271969   2.024   3.368  12.468  1.4471  1.4114 -0.2532
16852TIP3   OH271970   2.366   0.371   4.560 -0.7233  0.0197  0.2756
16852TIP3    H171971   2.329   0.287   4.534  1.4771 -1.0362  0.2621
16852TIP3    H271972   2.361   0.371   4.656  0.0766 -0.5846  0.3353
16853TIP3   OH271973   1.802   2.240   6.043 -0.5646  0.2862 -0.4254
16853TIP3    H171974   1.838   2.153   6.026  1.9016  0.8918  1.0921
16853TIP3    H271975   1.809   2.286   5.959 -0.5514 -0.5402 -0.8855
16854TIP3   OH271976   3.307   1.391  11.079  0.2814 -0.4210  0.1348
16854TIP3    H171977   3.278   1.304  11.105  0.7843 -0.9464 -0.9902
16854TIP3    H271978   3.352   1.377  10.996  2.2060  0.6104  0.9532
16855TIP3   OH271979   1.033   3.296   4.497 -0.0937 -0.2125 -0.3557
16855TIP3    H171980   0.989   3.293   4.582  0.3936 -2.4139 -0.1221
16855TIP3    H271981   1.121   3.329   4.517 -0.3233  0.3082 -0.1870
16856TIP3   OH271982   3.217   3.444   3.327 -0.3313  0.3016  0.1734
16856TIP3    H171983   3.282   3.392   3.374 -0.9503  0.6807  1.5131
16856TIP3    H271984   3.188   3.388   3.255  1.2833  0.0424 -0.3061
16857TIP3   OH271985   0.008   0.533  14.647  0.5769  0.2792 -0.3296
16857TIP3    H171986   0.039   0.492  14.566 -0.8824 -0.4171 -0.5722
16857TIP3    H271987  -0.004   0.459  14.707  1.9369  0.8194  0.6530
16858TIP3   OH271988   6.317   1.980   3.472 -0.3738  0.0576 -0.1375
16858TIP3    H171989   6.277   2.067   3.475  0.0255  0.2385  1.7412
16858TIP3    H271990   6.244   1.920   3.488 -0.2806  0.2443  1.1133
16859TIP3   OH271991   1.330   5.205   5.687 -0.3409  0.1959 -0.0205
16859TIP3    H171992   1.399   5.254   5.640 -0.6759 -0.3198 -1.0759
16859TIP3    H271993   1.312   5.259   5.764 -0.2617  1.4351 -0.8317
16860TIP3   OH271994   0.642   6.493  11.779  0.1962  0.7187  0.0064
16860TIP3    H171995   0.718   6.437  11.798 -1.5296 -1.7855 -0.0128
16860TIP3    H271996   0.601   6.508  11.864 -0.7184 -0.2034 -0.2439
16861TIP3   OH271997   5.854   0.967   5.023 -0.2186  0.4619  0.0258
16861TIP3    H171998   5.873   1.016   5.104  1.5254  1.2043 -0.7814
16861TIP3    H271999   5.903   1.012   4.955 -1.1634 -0.5158 -1.3714
16862TIP3   OH272000   6.099   0.308   3.823  0.5278  0.3256 -0.9150
16862TIP3    H172001   6.194   0.300   3.822  0.5960  1.0898 -0.7701
16862TIP3    H272002   6.082   0.396   3.855 -0.2615 -0.4535  1.0074
16863TIP3   OH272003   3.193   3.446  13.071 -0.5756 -0.2103  0.9177
16863TIP3    H172004   3.171   3.368  13.020 -3.2668  0.6796  0.5513
16863TIP3    H272005   3.141   3.439  13.150  0.9941  0.0854  2.0260
16864TIP3   OH272006   4.764   4.563  14.661  0.3056 -0.0063  0.4426
16864TIP3    H172007   4.816   4.578  14.582 -1.4199 -0.4999 -0.8624
16864TIP3    H272008   4.674   4.579  14.633 -0.6156 -2.5271  1.6443
16865TIP3   OH272009   0.500   6.177  11.943 -0.0775  0.2182 -0.2328
16865TIP3    H172010   0.421   6.213  11.902  0.7226  0.5385 -1.5857
16865TIP3    H272011   0.572   6.218  11.895  0.9911  1.5121  2.3064
16866TIP3   OH272012   4.062   4.820  13.798 -0.3178  0.5729 -0.5791
16866TIP3    H172013   3.979   4.806  13.752 -0.8695 -0.7126  0.7451
16866TIP3    H272014   4.053   4.907  13.837 -1.1612  0.3194 -0.1945
16867TIP3   OH272015   5.028   5.050  13.311  0.3360  0.2739  0.0776
16867TIP3    H172016   5.015   5.000  13.230  0.4465  1.6651 -0.8433
16867TIP3    H272017   4.945   5.095  13.324 -0.1841 -1.0358  1.5706
16868TIP3   OH272018   0.691   2.594  16.383  0.1534  0.5938  0.8419
16868TIP3    H172019   0.769   2.540  16.395  0.7521  1.9491  4.3780
16868TIP3    H272020   0.725   2.679  16.353 -0.1375  0.6784  0.7498
16869TIP3   OH272021   3.797   1.863   3.655 -0.1337  0.1630 -0.2729
16869TIP3    H172022   3.802   1.802   3.582  0.0204  1.5800 -1.5051
16869TIP3    H272023   3.878   1.849   3.705 -0.2067 -0.7645 -0.4113
16870TIP3   OH272024   6.109   5.364  16.350 -0.5857  0.0213  0.5445
16870TIP3    H172025   6.159   5.446  16.348  2.0178 -1.4610  1.2006
16870TIP3    H272026   6.135   5.322  16.432 -2.7031 -1.0255  0.7531
16871TIP3   OH272027   6.655   0.338  12.940  0.4672  0.4008  0.3976
16871TIP3    H172028   6.612   0.366  13.021 -0.6576 -0.1954  0.0182
16871TIP3    H272029   6.680   0.247  12.956 -0.2429  0.1103 -0.1114
16872TIP3   OH272030   1.782   3.413  16.662  0.3192  0.2099  0.3456
16872TIP3    H172031   1.840   3.345  16.697  2.4671  1.8383  0.1893
16872TIP3    H272032   1.802   3.416  16.568  1.1081  1.7534  0.5256
16873TIP3   OH272033   5.343   1.126   5.246 -0.0116 -0.7652  0.7491
16873TIP3    H172034   5.358   1.213   5.284 -0.4253 -0.4223  0.1261
16873TIP3    H272035   5.248   1.117   5.243  0.0015 -0.5817 -0.6651
16874TIP3   OH272036   1.204   2.949  16.488  0.0291 -0.4564  0.8212
16874TIP3    H172037   1.150   2.873  16.467 -0.6761  0.3128 -0.2456
16874TIP3    H272038   1.253   2.923  16.566 -1.6154 -1.3172  1.6178
16875TIP3   OH272039   4.901   1.787   3.265  0.6404 -0.4716  0.4511
16875TIP3    H172040   4.915   1.695   3.287  0.1965 -1.0102 -1.3610
16875TIP3    H272041   4.852   1.785   3.183 -2.2345  1.3923  1.9811
16876TIP3   OH272042   4.633   5.322   3.805 -0.1163 -0.4438 -0.1759
16876TIP3    H172043   4.627   5.387   3.875 -1.7375  0.2030 -0.8722
16876TIP3    H272044   4.684   5.364   3.737  1.4302 -1.0589  0.5591
16877TIP3   OH272045   3.264   3.526  16.142  0.2823  0.3703 -0.7496
16877TIP3    H172046   3.203   3.578  16.089 -0.0605  0.5930 -0.1439
16877TIP3    H272047   3.210   3.488  16.211  0.6997 -0.0351 -0.6434
16878TIP3   OH272048   1.365   6.440   2.794  0.7247  0.3994 -0.0709
16878TIP3    H172049   1.322   6.363   2.757  1.8879 -1.1139  1.6124
16878TIP3    H272050   1.312   6.462   2.872  0.5753  1.1533 -0.3694
16879TIP3   OH272051   2.475   3.136  15.692  0.8824 -0.2329  0.1075
16879TIP3    H172052   2.431   3.121  15.608  0.9223  2.7355 -0.5556
16879TIP3    H272053   2.412   3.107  15.758 -0.3806  0.1300 -0.9061
16880TIP3   OH272054   1.170   1.010   5.825  0.2638 -0.4873 -0.2078
16880TIP3    H172055   1.209   0.923   5.820  1.7052  0.1710 -1.4915
16880TIP3    H272056   1.197   1.043   5.911 -1.0811 -1.6251  0.6791
16881TIP3   OH272057   5.531   4.705  11.207 -0.3060 -0.2087 -0.0155
16881TIP3    H172058   5.481   4.647  11.264 -0.3857  1.6645  1.9412
16881TIP3    H272059   5.465   4.756  11.160 -0.2259 -1.0164 -1.0390
16882TIP3   OH272060   2.861   5.886  13.084  0.3325  0.1398  0.5582
16882TIP3    H172061   2.937   5.930  13.048 -0.7207  1.2514 -0.3804
16882TIP3    H272062   2.897   5.813  13.134  1.9455 -0.3191 -1.1623
16883TIP3   OH272063   3.480   4.847  15.451 -0.3136  0.0675  0.4826
16883TIP3    H172064   3.421   4.772  15.440 -0.2530 -0.1408  1.4448
16883TIP3    H272065   3.455   4.908  15.382 -0.3082 -0.8758 -0.3721
16884TIP3   OH272066   2.844   3.055   1.936 -0.0026 -0.1074 -0.0614
16884TIP3    H172067   2.863   2.964   1.914  0.3447 -0.1132  0.2534
16884TIP3    H272068   2.756   3.053   1.973 -1.1046  0.0721 -2.5064
16885TIP3   OH272069   2.472   6.778   0.461 -0.3486 -0.1447 -0.3480
16885TIP3    H172070   2.508   6.701   0.505 -0.9398  0.0017  0.4016
16885TIP3    H272071   2.393   6.746   0.417 -0.0659 -0.1685 -0.8473
16886TIP3   OH272072   0.134   2.364   3.924 -0.0534  0.3638 -0.3688
16886TIP3    H172073   0.040   2.358   3.904  0.3885  0.8068 -2.9618
16886TIP3    H272074   0.167   2.274   3.913  0.2792  0.6835 -2.5672
16887TIP3   OH272075   5.437   1.816  13.353 -0.5796 -0.0080 -0.4164
16887TIP3    H172076   5.433   1.911  13.369 -0.4028 -0.0184 -0.3151
16887TIP3    H272077   5.346   1.787  13.361 -0.5068 -0.0043  0.4971
16888TIP3   OH272078   6.670   1.064  12.044 -0.1176 -0.0346 -0.6652
16888TIP3    H172079   6.687   0.994  12.107  2.1969  2.3666  1.6529
16888TIP3    H272080   6.754   1.077  11.999 -0.8476  0.4605 -1.9498
16889TIP3   OH272081   3.434   6.445  12.648 -0.3178  0.3327 -0.3836
16889TIP3    H172082   3.404   6.369  12.597  0.4700 -0.4804  0.3402
16889TIP3    H272083   3.524   6.459  12.618  0.2799 -0.3661  0.9763
16890TIP3   OH272084   5.256   5.242   2.945 -0.1235 -0.2520 -0.3254
16890TIP3    H172085   5.206   5.324   2.940 -0.7424 -0.6304 -0.3392
16890TIP3    H272086   5.333   5.265   2.997  0.6697  0.8223 -1.8905
16891TIP3   OH272087   5.112   1.618   2.197  0.5243 -0.0020  0.2739
16891TIP3    H172088   5.040   1.601   2.137  0.9751  0.2418 -0.3437
16891TIP3    H272089   5.079   1.589   2.282 -0.5958  0.8665  0.1629
16892TIP3   OH272090   4.136   1.888  15.662 -0.0510  0.4731 -0.3965
16892TIP3    H172091   4.065   1.868  15.724  1.0355  0.3665  0.8684
16892TIP3    H272092   4.104   1.963  15.612 -1.5181 -0.2948 -0.6707
16893TIP3   OH272093   4.737   2.646   1.049  0.0558 -0.0085  0.5078
16893TIP3    H172094   4.816   2.650   0.996 -0.4231 -0.1432 -0.2257
16893TIP3    H272095   4.728   2.734   1.086  0.2213  0.1755  0.1119
16894TIP3   OH272096   1.420   6.110  11.842 -0.1212  0.4602  0.5404
16894TIP3    H172097   1.427   6.206  11.834 -2.0216  0.6544  0.7328
16894TIP3    H272098   1.359   6.085  11.773  0.1349 -0.5846  0.6806
16895TIP3   OH272099   2.727   1.009  16.575 -0.4477 -0.1686 -0.2743
16895TIP3    H172100   2.672   0.931  16.564 -1.5346  0.5602 -0.2330
16895TIP3    H272101   2.780   0.990  16.652 -2.3724  0.0152  1.1909
16896TIP3   OH272102   2.854   1.375   5.239 -0.5706  0.2353  0.1558
16896TIP3    H172103   2.946   1.360   5.261 -0.2283  1.0901 -0.6201
16896TIP3    H272104   2.818   1.288   5.226 -0.0167 -0.1360  1.0262
16897TIP3   OH272105   0.431   4.974   1.527  0.0876 -0.4199 -0.1159
16897TIP3    H172106   0.412   4.909   1.595 -0.5379 -0.4367 -0.3020
16897TIP3    H272107   0.349   5.023   1.517  0.1913 -0.3852 -0.8281
16898TIP3   OH272108   5.575   4.644  12.348  0.1182 -0.6316  0.1837
16898TIP3    H172109   5.546   4.711  12.286 -0.0387  0.5332  1.4644
16898TIP3    H272110   5.502   4.582  12.352 -0.9571  0.6505  1.0976
16899TIP3   OH272111   6.661   5.083   4.178  0.2521  0.4089 -0.1643
16899TIP3    H172112   6.747   5.074   4.138  0.1219  1.2464 -0.6736
16899TIP3    H272113   6.669   5.161   4.234  0.2344 -0.3550  0.9245
16900TIP3   OH272114   4.636   2.576   4.500  0.3495 -0.2565  0.1730
16900TIP3    H172115   4.667   2.654   4.547 -0.9539  0.0210  0.6164
16900TIP3    H272116   4.552   2.556   4.541  0.5290 -1.7362 -0.1353
16901TIP3   OH272117   0.777   6.256  14.164 -0.2737  0.1311  1.0211
16901TIP3    H172118   0.701   6.231  14.216 -0.3649 -0.2296  0.7261
16901TIP3    H272119   0.745   6.325  14.106 -0.3730 -0.0089  0.9098
16902TIP3   OH272120   4.864   4.906  13.699  0.4114  0.0435 -0.1537
16902TIP3    H172121   4.928   4.960  13.746  0.9944  0.3934 -1.3111
16902TIP3    H272122   4.795   4.967  13.674  0.1361 -0.1292  0.1800
16903TIP3   OH272123   1.903   2.307   1.480  0.2610  0.4678 -0.3012
16903TIP3    H172124   1.899   2.378   1.415 -0.3941  3.4358  2.6810
16903TIP3    H272125   1.960   2.341   1.549  0.4629 -2.2725  1.0197
16904TIP3   OH272126   3.491   6.491  15.803  0.1285 -0.7940  0.3301
16904TIP3    H172127   3.446   6.407  15.812 -1.5839  0.2366  2.0453
16904TIP3    H272128   3.563   6.487  15.867  2.3013 -2.2061 -1.9967
16905TIP3   OH272129   2.554   0.840  12.473  0.6328  0.2445  0.7031
16905TIP3    H172130   2.573   0.812  12.383  3.8662  0.6405  1.1298
16905TIP3    H272131   2.466   0.877  12.468 -0.1754 -1.7189 -1.7952
16906TIP3   OH272132   3.161   4.936   6.581 -0.2254  0.0039 -0.3762
16906TIP3    H172133   3.112   4.893   6.510 -2.1454  1.8471 -0.2904
16906TIP3    H272134   3.108   4.920   6.659 -0.2520  1.3065 -0.1062
16907TIP3   OH272135   2.839   3.788  14.678 -0.1598  0.0499  0.3398
16907TIP3    H172136   2.857   3.791  14.585  0.1287  0.1406  0.3994
16907TIP3    H272137   2.770   3.852  14.692  0.1164  0.3630  0.2621
16908TIP3   OH272138   2.095   2.525  12.676 -0.2046 -0.1334  0.2543
16908TIP3    H172139   2.037   2.466  12.724  2.0157 -1.3030  1.7004
16908TIP3    H272140   2.085   2.609  12.720 -1.3155 -0.1204  0.0052
16909TIP3   OH272141   6.453   6.561   4.569 -0.0634  0.2969 -0.1469
16909TIP3    H172142   6.392   6.633   4.551 -2.2280 -1.2996  0.4750
16909TIP3    H272143   6.456   6.511   4.487 -0.9623 -0.5749  0.3353
16910TIP3   OH272144   0.715   0.558   4.018  0.3192 -0.2183 -0.2149
16910TIP3    H172145   0.766   0.556   3.937 -0.0732  1.0086 -0.5048
16910TIP3    H272146   0.777   0.528   4.085  0.8582 -0.5453 -0.8440
16911TIP3   OH272147   6.288   4.887   3.979  0.4957  0.0244 -0.6967
16911TIP3    H172148   6.269   4.797   4.005  0.8670  0.3110  0.6532
16911TIP3    H272149   6.202   4.927   3.969  0.3282 -0.4995 -1.3783
16912TIP3   OH272150   5.771   4.123  14.414 -0.0656 -0.3712  0.1866
16912TIP3    H172151   5.838   4.056  14.402 -0.0810 -0.5578  1.0495
16912TIP3    H272152   5.801   4.175  14.488 -0.0961  0.5407 -0.4220
16913TIP3   OH272153   2.349   4.471   5.035 -0.0159 -0.5067  0.1532
16913TIP3    H172154   2.290   4.422   5.093  0.4881  0.8038  1.8498
16913TIP3    H272155   2.321   4.562   5.044  1.8337  0.0567  0.4743
16914TIP3   OH272156   6.478   0.351  10.989 -0.0097 -0.5551  0.1935
16914TIP3    H172157   6.424   0.386  10.918 -0.0829  1.2974  1.1014
16914TIP3    H272158   6.565   0.340  10.950 -0.1752 -0.0838 -0.3259
16915TIP3   OH272159   2.435   5.628  13.778  0.4771  0.3752 -0.0175
16915TIP3    H172160   2.452   5.565  13.848  0.4991 -2.2834 -2.2592
16915TIP3    H272161   2.512   5.684  13.778  1.4589 -0.9125  0.7294
16916TIP3   OH272162   3.977   0.886   1.970  0.1673  0.4106  0.3999
16916TIP3    H172163   4.057   0.887   2.022  0.4366  0.5176 -0.0163
16916TIP3    H272164   3.922   0.953   2.011  0.3790  0.4989  0.5450
16917TIP3   OH272165   1.700   5.153  10.596  0.8296 -0.1620  0.5007
16917TIP3    H172166   1.637   5.082  10.610  0.7262  0.2595  2.6072
16917TIP3    H272167   1.727   5.178  10.685  1.7958  1.6010 -0.2418
16918TIP3   OH272168   5.639   0.984   1.476 -0.2736 -0.6169  0.0476
16918TIP3    H172169   5.676   1.036   1.405 -0.1711  0.4766  0.8760
16918TIP3    H272170   5.698   0.997   1.549 -1.3676 -0.2067  0.8867
16919TIP3   OH272171   0.086   4.837   0.277 -0.0870 -0.2794 -0.2809
16919TIP3    H172172   0.067   4.755   0.232 -0.5450 -0.2077 -0.2263
16919TIP3    H272173   0.148   4.883   0.221  0.7628 -0.9928  0.0532
16920TIP3   OH272174   4.185   5.324   1.448 -0.0655  0.1651  0.3155
16920TIP3    H172175   4.184   5.407   1.400  1.1075 -0.0642 -0.1564
16920TIP3    H272176   4.094   5.297   1.454 -0.2978  0.5798 -1.1550
16921TIP3   OH272177   5.448   4.433   5.305  0.5605 -0.4819 -0.4325
16921TIP3    H172178   5.501   4.476   5.238  0.2248 -0.4521 -0.6805
16921TIP3    H272179   5.399   4.503   5.347  1.5878 -0.3494  0.6057
16922TIP3   OH272180   2.223   6.128   2.535 -0.0204  0.1223 -0.0303
16922TIP3    H172181   2.300   6.145   2.590 -0.2013 -0.8831  0.5563
16922TIP3    H272182   2.222   6.200   2.473  1.4923  0.0889 -0.1432
16923TIP3   OH272183   0.890   5.427   3.250 -0.1568  0.0799 -0.5542
16923TIP3    H172184   0.970   5.374   3.247  1.2004  2.0076 -2.8793
16923TIP3    H272185   0.839   5.397   3.175 -0.3784  0.6049 -0.6169
16924TIP3   OH272186   6.155   5.648   3.401 -0.3053  0.3052 -0.3559
16924TIP3    H172187   6.103   5.684   3.474 -0.1690  0.1009 -0.1550
16924TIP3    H272188   6.143   5.710   3.330  0.1258  0.8891  0.0651
16925TIP3   OH272189   0.020   2.876  11.700 -0.1845 -0.2143 -0.3029
16925TIP3    H172190   0.059   2.805  11.648  1.7274 -0.0497  0.7942
16925TIP3    H272191   0.044   2.956  11.653 -0.3742 -0.1797 -0.3407
16926TIP3   OH272192   3.339   5.702   1.121  0.3572 -0.5830 -0.0111
16926TIP3    H172193   3.329   5.648   1.200 -0.6779  0.8881  0.9202
16926TIP3    H272194   3.304   5.647   1.051  1.2503 -1.9073  0.5373
16927TIP3   OH272195   1.592   3.223   1.810 -0.1444 -0.1108 -0.2635
16927TIP3    H172196   1.577   3.268   1.727 -0.1087  0.2843 -0.0624
16927TIP3    H272197   1.510   3.176   1.827  0.1963 -0.9985 -0.9996
16928TIP3   OH272198   1.824   2.313  17.231  0.1036 -0.3593  0.0473
16928TIP3    H172199   1.901   2.354  17.191 -0.3430  0.2157 -0.2389
16928TIP3    H272200   1.830   2.221  17.208  0.1375 -0.1277 -0.8807
16929TIP3   OH272201   0.738   4.347  11.596 -0.3886  0.0962 -0.8762
16929TIP3    H172202   0.709   4.362  11.506 -3.6149  0.3509  0.0721
16929TIP3    H272203   0.737   4.252  11.606  0.2884  0.0524 -1.1757
16930TIP3   OH272204   4.668   2.907  15.479  0.0233 -0.2196 -0.6321
16930TIP3    H172205   4.680   2.946  15.566  0.1567 -2.1203  0.2613
16930TIP3    H272206   4.647   2.980  15.422  1.9599  1.3897  0.5898
16931TIP3   OH272207   0.722   5.152  11.225  0.1656  0.0510 -0.2591
16931TIP3    H172208   0.626   5.151  11.218  0.2261 -1.2027 -1.3847
16931TIP3    H272209   0.739   5.157  11.319 -1.0157 -0.6662  0.0176
16932TIP3   OH272210   0.792   5.849   2.478  0.2599 -0.0774 -0.1017
16932TIP3    H172211   0.834   5.766   2.502 -0.6086 -0.0642  1.6657
16932TIP3    H272212   0.710   5.849   2.528 -1.0741  0.6458 -2.1240
16933TIP3   OH272213   4.319   5.156  16.870  0.1071  0.0053  0.3407
16933TIP3    H172214   4.350   5.246  16.881  0.5765 -0.0853 -0.2304
16933TIP3    H272215   4.397   5.106  16.847 -0.7264  0.2256 -3.6680
16934TIP3   OH272216   3.888   0.148  16.011  0.1645  0.5234 -0.1932
16934TIP3    H172217   3.939   0.146  15.930 -1.4872  1.1149 -1.2687
16934TIP3    H272218   3.894   0.238  16.042 -0.8321  0.7825 -0.7297
16935TIP3   OH272219   3.087   3.055   2.100  0.0528  0.7032 -0.3151
16935TIP3    H172220   3.110   2.962   2.106 -0.7945  0.3989 -1.4310
16935TIP3    H272221   3.000   3.056   2.059  0.5503  2.0370 -1.3987
16936TIP3   OH272222   4.881   5.297   5.260 -0.0891 -0.5244 -0.5894
16936TIP3    H172223   4.931   5.374   5.235  0.3372 -0.9512 -1.0687
16936TIP3    H272224   4.865   5.308   5.354 -0.1950  0.2307 -0.6927
16937TIP3   OH272225   6.708   5.649   4.173 -0.5925  0.2877 -0.1460
16937TIP3    H172226   6.755   5.732   4.181  1.6894 -0.8777 -0.6443
16937TIP3    H272227   6.652   5.660   4.096 -0.5473  1.4460 -0.0318
16938TIP3   OH272228   4.782   0.442  12.358  0.2070  0.5208 -0.4328
16938TIP3    H172229   4.855   0.414  12.303 -0.9310  1.2756 -2.4222
16938TIP3    H272230   4.815   0.519  12.405  0.8565  0.5168 -0.8794
16939TIP3   OH272231   6.032   3.932  13.703  0.0859 -0.5338  0.0246
16939TIP3    H172232   5.937   3.931  13.692  0.0520 -0.8370  0.3284
16939TIP3    H272233   6.050   4.012  13.751 -0.0238 -0.5026  0.0143
16940TIP3   OH272234   0.431   4.530  11.750  0.2513  0.1479  0.1446
16940TIP3    H172235   0.374   4.569  11.684 -0.2603 -0.5956  0.1332
16940TIP3    H272236   0.422   4.436  11.736  1.4667  0.0186  0.1698
16941TIP3   OH272237   6.218   6.313   2.769 -0.0109 -0.0925 -0.6055
16941TIP3    H172238   6.250   6.233   2.730  0.1895  0.4796 -1.6482
16941TIP3    H272239   6.297   6.361   2.795 -0.1250 -0.1849 -0.0793
16942TIP3   OH272240   4.562   0.202  12.818  0.3424 -0.4598 -0.2386
16942TIP3    H172241   4.552   0.154  12.901  2.1463 -0.1789  0.1827
16942TIP3    H272242   4.581   0.134  12.753 -2.4664 -0.8457 -0.7780
16943TIP3   OH272243   0.617   5.165  15.346  0.1761 -0.3347  0.0243
16943TIP3    H172244   0.655   5.245  15.309 -0.7270  0.0691 -0.0582
16943TIP3    H272245   0.693   5.113  15.374  0.8024  0.1219 -0.7975
16944TIP3   OH272246   5.874   4.080  12.555 -0.7407 -0.3995 -0.6607
16944TIP3    H172247   5.943   4.092  12.620 -0.0023  0.8779 -1.6303
16944TIP3    H272248   5.899   4.001  12.507 -2.3582 -2.5835  1.8088
16945TIP3   OH272249   6.454   6.142   2.936 -0.0956 -0.0679  0.1133
16945TIP3    H172250   6.437   6.110   2.848  2.4706 -2.2937  0.3058
16945TIP3    H272251   6.542   6.110   2.957 -0.4249  0.7682  3.3124
16946TIP3   OH272252   5.521   4.741   5.362  0.0771 -0.0546 -0.2757
16946TIP3    H172253   5.433   4.708   5.379  0.7436 -0.8643  1.9517
16946TIP3    H272254   5.508   4.832   5.337 -1.4283 -0.3747 -0.7600
16947TIP3   OH272255   1.985   4.255   0.962  0.4390 -0.5170 -0.1982
16947TIP3    H172256   1.924   4.316   0.922  0.1171 -0.0371  0.9874
16947TIP3    H272257   1.975   4.269   1.057  0.7566 -2.0073  0.0868
16948TIP3   OH272258   2.957   0.360  11.843 -0.1260  0.3783 -0.4011
16948TIP3    H172259   2.932   0.419  11.772 -1.6409  1.4602  0.9604
16948TIP3    H272260   2.879   0.308  11.861  0.6118 -0.7404 -0.3161
16949TIP3   OH272261   5.274   0.247  15.754  0.4950 -0.0378  0.0426
16949TIP3    H172262   5.228   0.236  15.836  0.7768  0.5324  0.2840
16949TIP3    H272263   5.363   0.216  15.772  1.1210  1.8837  0.5496
16950TIP3   OH272264   0.224   5.375   3.574  0.6692  0.3658  0.9890
16950TIP3    H172265   0.311   5.359   3.611  0.5374 -1.2488  0.6850
16950TIP3    H272266   0.167   5.315   3.622 -0.3050  1.4653  1.2385
16951TIP3   OH272267   6.389   2.121   0.486 -0.3930  0.3143 -0.0470
16951TIP3    H172268   6.461   2.159   0.537  0.5976 -2.8457  1.1508
16951TIP3    H272269   6.404   2.153   0.397  0.9663  1.7625  0.6397
16952TIP3   OH272270   3.886   0.024   4.507 -0.0110 -0.4156  0.4902
16952TIP3    H172271   3.851  -0.001   4.592 -1.0667 -2.9784 -0.6059
16952TIP3    H272272   3.965  -0.030   4.497  3.4760  3.7699  2.0288
16953TIP3   OH272273   0.044   4.834  14.394  0.3934 -0.5667 -0.2503
16953TIP3    H172274  -0.006   4.870  14.320  1.6119 -0.0790 -0.8552
16953TIP3    H272275   0.107   4.902  14.416 -0.9180 -0.0471  2.2705
16954TIP3   OH272276   1.973   6.200  16.127 -0.7229 -0.2645  0.1077
16954TIP3    H172277   2.065   6.176  16.136 -0.7305 -1.0571 -1.5223
16954TIP3    H272278   1.971   6.294  16.145  0.8830  0.3188 -2.2063
16955TIP3   OH272279   0.466   5.309   5.929 -0.1348  0.3088  0.2621
16955TIP3    H172280   0.484   5.392   5.884  0.4322  1.2764  2.1799
16955TIP3    H272281   0.389   5.328   5.983  0.0311 -0.3962  0.7569
16956TIP3   OH272282   5.975   0.300  13.379 -0.5164 -0.0723  0.5249
16956TIP3    H172283   6.032   0.239  13.333 -1.0620  1.4306 -2.4155
16956TIP3    H272284   5.958   0.370  13.315 -2.9693  1.2223  2.3996
16957TIP3   OH272285   1.151   2.271   0.026  0.5559 -0.1938  0.2231
16957TIP3    H172286   1.092   2.256   0.100 -0.5651  1.2076 -0.3483
16957TIP3    H272287   1.206   2.343   0.053  0.0435  0.4245 -0.3332
16958TIP3   OH272288   4.819   2.142   4.570 -0.2562 -0.1128  0.2202
16958TIP3    H172289   4.746   2.200   4.547 -1.6111 -1.7530  0.1703
16958TIP3    H272290   4.843   2.167   4.659 -0.3967  0.9070 -0.0157
16959TIP3   OH272291   4.235   1.948  16.297  0.3119 -0.0703  0.4041
16959TIP3    H172292   4.194   1.979  16.216  0.6322 -0.0315  0.2571
16959TIP3    H272293   4.168   1.894  16.339 -0.5854  1.5057  1.0984
16960TIP3   OH272294   1.979   0.319   5.674 -0.2669 -0.4613  0.0296
16960TIP3    H172295   1.976   0.286   5.764 -2.9466 -0.1185  0.1401
16960TIP3    H272296   1.916   0.266   5.626  1.2253 -0.7351 -1.7507
16961TIP3   OH272297   2.940   4.048   1.758  0.6483  0.1341  0.6031
16961TIP3    H172298   2.960   3.968   1.807  0.4324 -0.4958 -0.3084
16961TIP3    H272299   2.950   4.022   1.666  2.8696  1.7562  0.3125
16962TIP3   OH272300   3.101   6.538  15.578  0.1064 -0.5170  0.8824
16962TIP3    H172301   3.194   6.516  15.579  0.0855 -0.6374  2.7842
16962TIP3    H272302   3.059   6.467  15.625 -0.9155 -0.2856  0.3382
16963TIP3   OH272303   4.351   4.080  10.568  0.0680  0.0182 -0.1329
16963TIP3    H172304   4.393   4.008  10.521  1.7932  0.8876 -0.0098
16963TIP3    H272305   4.399   4.085  10.652 -1.5400 -0.1437  0.8310
16964TIP3   OH272306   1.992   5.200   4.263 -0.0846 -0.5630  0.5738
16964TIP3    H172307   2.027   5.123   4.219 -0.7883 -0.9928  0.7328
16964TIP3    H272308   2.057   5.268   4.249 -0.6531 -0.4366 -1.8553
16965TIP3   OH272309   4.052   6.285  16.476  0.0906  0.3302  0.1776
16965TIP3    H172310   4.118   6.334  16.525 -0.3868 -0.8623  2.1059
16965TIP3    H272311   4.020   6.348  16.412  2.2240  1.3100 -0.0290
16966TIP3   OH272312   3.718   3.196   2.483  0.3666 -0.3865 -0.5436
16966TIP3    H172313   3.760   3.241   2.556  1.7859 -1.0980 -0.8790
16966TIP3    H272314   3.734   3.252   2.407 -2.1813  0.9746 -0.1504
16967TIP3   OH272315   1.837   1.668  14.103 -0.1085  0.3567 -0.1242
16967TIP3    H172316   1.821   1.692  14.012  0.2985  0.8487 -0.0716
16967TIP3    H272317   1.750   1.654  14.140 -0.3001  0.6226 -0.4669
16968TIP3   OH272318   6.609   2.250   0.628  0.5339  0.1668  0.4765
16968TIP3    H172319   6.554   2.305   0.685 -0.0380  1.5053 -1.2926
16968TIP3    H272320   6.657   2.194   0.689 -0.8489  0.7793  2.2193
16969TIP3   OH272321   4.630   6.221  15.614  0.1178 -0.2407 -0.1903
16969TIP3    H172322   4.661   6.292  15.559 -0.7561  0.5211  0.2698
16969TIP3    H272323   4.537   6.211  15.591 -0.2834  0.1404  1.1638
16970TIP3   OH272324   1.928   2.993  13.056  0.3002 -0.5865  0.4610
16970TIP3    H172325   1.874   2.990  13.135  0.3384 -0.5606  0.4882
16970TIP3    H272326   2.004   3.044  13.082 -0.4366  0.8243 -0.0497
16971TIP3   OH272327   4.339   0.709   3.699 -0.1169  0.0863 -0.4113
16971TIP3    H172328   4.353   0.769   3.626  0.5944 -1.1560 -1.3388
16971TIP3    H272329   4.310   0.765   3.771 -0.4203  1.4028 -1.5103
16972TIP3   OH272330   4.362   4.319  12.688 -0.0717 -0.1063 -0.0050
16972TIP3    H172331   4.436   4.352  12.638 -0.6845  0.9501 -0.2470
16972TIP3    H272332   4.368   4.224  12.679  0.8745 -0.0086 -0.5613
16973TIP3   OH272333   4.270   1.311   4.380  0.5809 -0.4147 -0.3395
16973TIP3    H172334   4.227   1.373   4.439  1.3636 -0.4544  0.2995
16973TIP3    H272335   4.248   1.341   4.292 -0.3337 -0.1536 -0.0283
16974TIP3   OH272336   2.270   4.724  14.357 -0.6354 -0.1648 -0.5853
16974TIP3    H172337   2.210   4.798  14.368 -1.2627 -0.8707  1.1348
16974TIP3    H272338   2.316   4.742  14.275 -2.2363  1.0771 -1.2665
16975TIP3   OH272339   5.927   4.265   7.065 -0.1584  0.8238 -0.0062
16975TIP3    H172340   5.837   4.294   7.051 -0.9073 -1.6079 -0.8789
16975TIP3    H272341   5.943   4.202   6.994  0.9859 -1.3780  2.0536
16976TIP3   OH272342   3.300   4.481   3.057 -0.5824  0.0170 -0.2961
16976TIP3    H172343   3.327   4.397   3.020 -0.5988  0.4527 -1.3318
16976TIP3    H272344   3.314   4.471   3.151 -0.2442 -1.0160 -0.4398
16977TIP3   OH272345   5.007   1.052  11.882 -0.1727  0.0304  0.1661
16977TIP3    H172346   4.979   1.143  11.878  0.4296  0.1824 -2.2479
16977TIP3    H272347   4.970   1.012  11.803  1.5408 -1.2000 -0.0758
16978TIP3   OH272348   4.289   1.506  12.075  0.5163 -0.6007  0.3294
16978TIP3    H172349   4.276   1.445  12.002 -0.4167  0.1455 -0.1515
16978TIP3    H272350   4.315   1.588  12.032  0.3745 -0.2725  0.8678
16979TIP3   OH272351   5.493   0.151   4.406  0.0035 -0.8840 -0.3363
16979TIP3    H172352   5.479   0.084   4.473  4.0551  0.0550  1.7948
16979TIP3    H272353   5.563   0.116   4.351 -0.6613 -0.0382 -1.7888
16980TIP3   OH272354   2.069   4.692   5.555  0.3490 -0.6772 -0.3448
16980TIP3    H172355   2.127   4.628   5.596  2.6548 -0.8350 -3.4510
16980TIP3    H272356   2.099   4.777   5.589  1.6159 -0.8561 -0.9603
16981TIP3   OH272357   1.704   1.383  16.655 -0.3171  0.3091  0.0750
16981TIP3    H172358   1.688   1.427  16.571 -0.0911  1.0302  0.4004
16981TIP3    H272359   1.753   1.448  16.706  0.5376 -0.5469  0.3582
16982TIP3   OH272360   3.045   0.492   0.816  0.5989 -0.7973 -0.3408
16982TIP3    H172361   2.966   0.542   0.832  1.4312  0.1912  0.9488
16982TIP3    H272362   3.056   0.492   0.721 -0.1143  0.3685 -0.4355
16983TIP3   OH272363   3.985   4.840   2.905  0.5792 -0.7792  0.0800
16983TIP3    H172364   4.077   4.846   2.881  0.3757  0.1276 -0.4868
16983TIP3    H272365   3.986   4.838   3.001  1.2545 -2.2000  0.0670
16984TIP3   OH272366   2.535   5.558  12.826 -0.1253  0.2080  0.7709
16984TIP3    H172367   2.564   5.474  12.793  1.4910  0.3501  1.7138
16984TIP3    H272368   2.616   5.608  12.839 -1.0316  1.8171  0.4668
16985TIP3   OH272369   4.940   0.839   0.614 -0.6586  0.1839 -0.1452
16985TIP3    H172370   4.990   0.915   0.585 -1.7068  0.9592  0.0637
16985TIP3    H272371   4.923   0.854   0.706 -0.7474 -0.3834 -0.0636
16986TIP3   OH272372   4.652   5.604   5.431  0.0059 -0.1065  0.0032
16986TIP3    H172373   4.734   5.573   5.470  0.3898 -0.6785 -1.2100
16986TIP3    H272374   4.584   5.562   5.483  0.5129 -2.1452 -0.8890
16987TIP3   OH272375   0.076   0.893   2.191 -0.1417 -0.2970  0.1261
16987TIP3    H172376   0.005   0.832   2.167 -0.2470 -0.4568  0.8096
16987TIP3    H272377   0.061   0.911   2.284  0.7970 -0.4455  0.3183
16988TIP3   OH272378   5.898   5.334  14.773  0.8586  0.3300 -0.3534
16988TIP3    H172379   5.883   5.241  14.791 -0.2172  0.5996  0.2295
16988TIP3    H272380   5.986   5.352  14.807  0.2300  0.0163  1.5429
16989TIP3   OH272381   3.850   5.988   6.039  0.2249  0.0086  0.0952
16989TIP3    H172382   3.788   5.941   5.982  0.9061 -0.2912 -0.4115
16989TIP3    H272383   3.819   5.969   6.127  0.9705 -2.1508 -0.0526
16990TIP3   OH272384   5.059   3.086  15.689 -0.0412 -0.1871  0.1078
16990TIP3    H172385   4.964   3.086  15.679  0.1453  0.1927 -1.9248
16990TIP3    H272386   5.075   3.150  15.759 -1.2207  0.6037 -0.3074
16991TIP3   OH272387   1.051   3.176  16.439 -0.6168 -0.5471  0.3137
16991TIP3    H172388   0.980   3.141  16.493 -0.3564 -2.8126 -0.6807
16991TIP3    H272389   1.123   3.114  16.451  0.4248  0.4870 -0.3956
16992TIP3   OH272390   2.597   3.979  11.060  0.3443 -0.4407 -0.7177
16992TIP3    H172391   2.643   3.907  11.104  1.2859 -0.5043 -1.7782
16992TIP3    H272392   2.643   4.057  11.088  1.0630 -0.4976 -1.7261
16993TIP3   OH272393   1.022   6.504  14.093 -0.7518 -0.6680 -0.0896
16993TIP3    H172394   1.096   6.491  14.152  0.3567  3.9176 -0.1416
16993TIP3    H272395   1.046   6.456  14.014  2.8460  1.4663 -0.5194
16994TIP3   OH272396   0.964   2.583  12.524  0.2125 -0.0376  0.4326
16994TIP3    H172397   0.933   2.494  12.509 -1.6988  0.7158 -0.3751
16994TIP3    H272398   0.889   2.630  12.559  1.5863  0.9494  2.2366
16995TIP3   OH272399   5.074   4.016   4.216 -0.2326  0.1015  0.4158
16995TIP3    H172400   5.061   3.922   4.232 -1.2852 -0.1349 -1.5372
16995TIP3    H272401   4.986   4.052   4.209  0.0931  0.5384 -2.3332
16996TIP3   OH272402   1.889   5.982   4.618  0.1268  0.6284  0.6289
16996TIP3    H172403   1.959   6.047   4.619  0.9460 -0.1461 -1.3076
16996TIP3    H272404   1.898   5.938   4.533 -1.9086 -0.3779  0.8766
16997TIP3   OH272405   4.660   4.834  14.474 -0.2135  0.4564  0.4830
16997TIP3    H172406   4.659   4.738  14.475 -3.6570  0.3177 -1.1433
16997TIP3    H272407   4.733   4.857  14.417 -1.1848 -1.4000 -1.6875
16998TIP3   OH272408   1.069   3.110  13.467  0.1359 -0.4006 -0.3107
16998TIP3    H172409   1.017   3.178  13.424  2.4234  1.3398 -0.5170
16998TIP3    H272410   1.035   3.108  13.556 -1.0412 -0.1532 -0.7271
16999TIP3   OH272411   4.501   1.712   5.469  0.1094 -0.2171  0.4564
16999TIP3    H172412   4.543   1.626   5.464 -3.0021 -1.8583 -1.1936
16999TIP3    H272413   4.522   1.745   5.556  0.8979 -2.9993  1.4290
17000TIP3   OH272414   2.167   0.194  16.768 -0.1673  0.6178 -0.0039
17000TIP3    H172415   2.111   0.151  16.832 -0.8999 -2.3608 -2.3845
17000TIP3    H272416   2.106   0.227  16.702  0.6933 -0.2785 -1.3012
17001TIP3   OH272417   3.953   2.006   2.505 -0.0379  0.0818  0.1650
17001TIP3    H172418   3.933   2.089   2.463  0.0594  0.1653  0.2815
17001TIP3    H272419   3.909   1.940   2.451  0.1457  0.1804 -0.1091
17002TIP3   OH272420   1.586   3.514   0.870 -0.3241 -0.3997 -0.2841
17002TIP3    H172421   1.500   3.551   0.890 -0.1893 -0.7316  1.0031
17002TIP3    H272422   1.603   3.452   0.941  2.3340  1.9034  1.2623
17003TIP3   OH272423   0.623   6.084   1.861  0.1114  0.7200 -0.2328
17003TIP3    H172424   0.668   6.166   1.881 -0.1273  1.1595 -1.3839
17003TIP3    H272425   0.576   6.102   1.779  0.2347 -0.6302 -0.6289
17004TIP3   OH272426   1.386   2.386   5.236 -0.1475  0.1826 -0.0159
17004TIP3    H172427   1.438   2.367   5.315  0.7821 -0.9002 -0.8509
17004TIP3    H272428   1.317   2.320   5.237 -1.4547  1.4986  0.9863
17005TIP3   OH272429   1.803   2.627  11.641 -0.6891  0.1671  0.2898
17005TIP3    H172430   1.821   2.647  11.732 -0.7886 -0.9125  0.5599
17005TIP3    H272431   1.798   2.531  11.637 -1.8452  0.2291 -0.6121
17006TIP3   OH272432   2.735   2.134  16.560 -0.0374  0.0089 -0.6547
17006TIP3    H172433   2.801   2.065  16.567 -0.0773  0.1688  2.1905
17006TIP3    H272434   2.658   2.090  16.525  0.0860 -1.3024  0.6463
17007TIP3   OH272435   2.077   1.100  17.004  0.4357  0.0264  0.9137
17007TIP3    H172436   2.151   1.057  16.961  0.4664  0.2171  0.7717
17007TIP3    H272437   2.109   1.188  17.025 -0.4135  0.8701 -1.0827
17008TIP3   OH272438   5.617   5.825  12.860 -0.5353  0.1732 -0.0050
17008TIP3    H172439   5.673   5.828  12.782  1.3742  1.2363  1.3272
17008TIP3    H272440   5.600   5.918  12.880  0.9396  0.0450  2.1253
17009TIP3   OH272441   0.993   1.891  11.810 -0.2712  0.0471  0.4039
17009TIP3    H172442   1.049   1.902  11.733 -0.7369 -1.1859 -0.1351
17009TIP3    H272443   1.039   1.826  11.863 -0.0114  0.8058  1.1313
17010TIP3   OH272444   2.624   5.962  13.796  0.1827 -0.1604  0.2854
17010TIP3    H172445   2.631   6.000  13.883  1.5163 -1.3766  0.7537
17010TIP3    H272446   2.715   5.948  13.768 -0.1727  1.0659 -1.7240
17011TIP3   OH272447   5.559   3.027   3.797 -0.7069 -0.2069 -0.7217
17011TIP3    H172448   5.620   3.032   3.723  0.4728 -3.2289 -0.0992
17011TIP3    H272449   5.473   3.018   3.757 -0.2790 -0.0459 -1.6953
17012TIP3   OH272450   5.096   3.857  14.231  0.3424  0.2652 -0.2954
17012TIP3    H172451   5.166   3.917  14.207 -0.2533  0.2020 -2.3668
17012TIP3    H272452   5.035   3.861  14.158 -1.7183  0.1361  1.3302
17013TIP3   OH272453   0.953   5.499   6.373 -0.3466  0.5363 -0.2795
17013TIP3    H172454   1.014   5.547   6.429 -1.0364  0.6655  0.3880
17013TIP3    H272455   0.894   5.567   6.339 -1.6280  0.1498  1.0548
17014TIP3   OH272456   3.037   5.847  10.364  0.9475  0.3132 -0.3602
17014TIP3    H172457   3.122   5.876  10.397  2.1066  0.4214 -3.1860
17014TIP3    H272458   3.058   5.777  10.302 -1.3276 -2.2009  1.4505
17015TIP3   OH272459   5.848   0.181   1.894  0.9668  0.3712  0.2167
17015TIP3    H172460   5.913   0.224   1.950  1.2436  0.9932 -0.5599
17015TIP3    H272461   5.813   0.252   1.840 -0.4550  0.0698  0.6973
17016TIP3   OH272462   0.652   0.917   3.713  0.0031  0.1605 -0.3434
17016TIP3    H172463   0.648   0.833   3.667 -1.3340  0.8595 -1.5658
17016TIP3    H272464   0.703   0.974   3.655 -0.4930  0.6485 -0.3098
17017TIP3   OH272465   5.089   1.056   0.870  0.0877  0.4645  0.7836
17017TIP3    H172466   5.117   0.981   0.923  0.5532  1.2539  1.6734
17017TIP3    H272467   5.165   1.114   0.870  0.1756  0.3871 -0.9465
17018TIP3   OH272468   1.748   6.185  11.036  0.2853 -0.0435 -0.4015
17018TIP3    H172469   1.820   6.122  11.040  1.8057  1.5527 -1.1034
17018TIP3    H272470   1.707   6.169  10.952  0.0525 -0.7179 -0.1636
17019TIP3   OH272471   1.395   2.284   3.784 -0.1153  0.1847  0.1851
17019TIP3    H172472   1.443   2.248   3.709 -0.7683 -1.0956  0.3666
17019TIP3    H272473   1.438   2.245   3.860 -1.3120 -0.8495  0.3557
17020TIP3   OH272474   0.120   4.285  13.359  0.5402  0.2445 -0.1255
17020TIP3    H172475   0.091   4.211  13.306  1.2231 -0.8763  1.0004
17020TIP3    H272476   0.210   4.301  13.332  1.0835 -0.6921  1.0006
17021TIP3   OH272477   1.675   0.792   1.263  0.4913  0.1806 -0.0345
17021TIP3    H172478   1.689   0.724   1.329 -0.1624  2.3946  2.5613
17021TIP3    H272479   1.604   0.759   1.209 -0.5812 -0.7717  1.8695
17022TIP3   OH272480   4.656   6.416  11.377  0.2373 -0.2453  0.2460
17022TIP3    H172481   4.667   6.375  11.291  0.1599 -0.3777  0.3004
17022TIP3    H272482   4.576   6.379  11.412  0.5244 -0.5557  0.5796
17023TIP3   OH272483   6.303   0.931  16.282  0.1829  0.0597  0.5785
17023TIP3    H172484   6.314   0.918  16.377  0.7816  1.2500  0.6862
17023TIP3    H272485   6.291   1.026  16.273  1.0479  0.0670 -0.6274
17024TIP3   OH272486   4.201   3.933  12.859 -0.4586  0.3790  0.1456
17024TIP3    H172487   4.186   4.020  12.824  1.7911  0.7859  0.0571
17024TIP3    H272488   4.172   3.873  12.790 -1.0172  1.0778 -0.2303
17025TIP3   OH272489   2.094   4.262  11.220 -0.7070  0.1770 -0.2435
17025TIP3    H172490   2.097   4.303  11.134  0.6294 -0.5721 -0.5838
17025TIP3    H272491   2.178   4.216  11.227 -0.6303  0.5330  1.6082
17026TIP3   OH272492   2.216   2.791  13.898 -0.6456 -0.0672 -0.0806
17026TIP3    H172493   2.291   2.738  13.926  1.4993  1.5432 -2.3592
17026TIP3    H272494   2.151   2.727  13.869  0.0155 -1.5030  1.4324
17027TIP3   OH272495   0.721   6.057  13.525  0.5359  0.2239  0.1672
17027TIP3    H172496   0.786   5.990  13.547  0.3720 -0.9242 -2.4792
17027TIP3    H272497   0.637   6.015  13.538  0.4326 -0.3597 -2.0183
17028TIP3   OH272498   6.418   5.472  13.480  0.2523  0.4443 -0.3496
17028TIP3    H172499   6.440   5.557  13.519 -0.3023 -0.8401  3.1150
17028TIP3    H272500   6.338   5.488  13.430  0.3716  2.0185 -0.0814
17029TIP3   OH272501   5.354   4.252  15.857 -0.3537 -0.4024  0.0456
17029TIP3    H172502   5.263   4.235  15.833 -0.4636  0.0798  0.1147
17029TIP3    H272503   5.374   4.337  15.818  0.7244 -1.4105 -1.7758
17030TIP3   OH272504   6.136   6.444  13.813 -0.5148  0.0747 -0.2870
17030TIP3    H172505   6.139   6.539  13.814  0.9356  0.0585 -0.3456
17030TIP3    H272506   6.198   6.418  13.882 -2.1179 -0.8385  0.8896
17031TIP3   OH272507   5.288   6.545  14.091  0.3242  0.3656 -0.3206
17031TIP3    H172508   5.206   6.563  14.137  0.8311  1.4310  0.2055
17031TIP3    H272509   5.352   6.602  14.132  1.7399 -1.6324  0.4241
17032TIP3   OH272510   1.039   4.749   1.558 -0.3244 -0.2525  0.2939
17032TIP3    H172511   0.975   4.795   1.612 -0.8753 -0.7675  0.0857
17032TIP3    H272512   1.025   4.656   1.578 -1.3403 -0.5575 -1.5754
17033TIP3   OH272513   2.370   3.448  13.482 -0.2084  0.2984 -0.2253
17033TIP3    H172514   2.455   3.462  13.439 -0.7529  0.5902 -1.2432
17033TIP3    H272515   2.306   3.460  13.412 -1.0750 -0.2730  0.4529
17034TIP3   OH272516   0.754   2.967  14.876 -0.0007  0.3775 -0.1352
17034TIP3    H172517   0.823   3.019  14.917 -0.2927 -1.5489  3.1569
17034TIP3    H272518   0.788   2.877  14.878 -0.8199 -0.0606 -2.6770
17035TIP3   OH272519   5.323   2.563   0.163  0.1761 -0.0252 -0.4342
17035TIP3    H172520   5.309   2.657   0.148 -0.2685 -0.1740 -1.0153
17035TIP3    H272521   5.407   2.544   0.120 -0.3027 -0.1165 -1.3721
17036TIP3   OH272522   2.735   3.603   3.245  0.1014 -0.3761  0.2950
17036TIP3    H172523   2.647   3.637   3.228  0.2764  0.0269  0.1707
17036TIP3    H272524   2.760   3.644   3.328  0.2441 -0.3459  0.2370
17037TIP3   OH272525   0.331   6.393   6.544 -0.7497 -0.2741  0.2260
17037TIP3    H172526   0.282   6.387   6.462  0.7081 -0.4423 -0.6818
17037TIP3    H272527   0.400   6.327   6.535  0.3512  0.7443  0.9347
17038TIP3   OH272528   5.027   5.160   0.363 -0.2352  0.2233  0.2310
17038TIP3    H172529   5.066   5.227   0.306 -0.8077  0.7012  0.3904
17038TIP3    H272530   4.948   5.133   0.317  0.2834 -0.7685 -0.1073
17039TIP3   OH272531   2.261   6.171   4.475 -0.2047  0.3878  0.5826
17039TIP3    H172532   2.191   6.124   4.521  0.9424 -0.3513  1.6187
17039TIP3    H272533   2.342   6.133   4.508  0.7608  2.6166  0.9338
17040TIP3   OH272534   1.118   4.895  12.083 -0.1539  0.1843  0.0125
17040TIP3    H172535   1.096   4.982  12.117  0.3187 -0.2391  1.4971
17040TIP3    H272536   1.182   4.912  12.014  1.3123  0.9758  1.4814
17041TIP3   OH272537   3.095   4.066  16.805 -0.3419  0.5370 -0.2938
17041TIP3    H172538   3.167   4.004  16.819 -0.3019  0.7355  0.4311
17041TIP3    H272539   3.138   4.151  16.798 -0.3848  0.4748 -1.4440
17042TIP3   OH272540   2.003   2.453  15.184 -0.7314 -0.2035 -0.0048
17042TIP3    H172541   1.957   2.369  15.187  0.3412 -0.8278 -0.4132
17042TIP3    H272542   2.073   2.440  15.120 -0.1953  0.8284  0.3413
17043TIP3   OH272543   2.945   1.910  17.230  0.0769  0.6255  0.0502
17043TIP3    H172544   2.931   1.970  17.304  1.6020 -0.6835  1.4838
17043TIP3    H272545   2.986   1.965  17.163  0.7439  1.4012  1.0434
17044TIP3   OH272546   6.506   2.401  16.380  0.6285  0.6448 -0.0102
17044TIP3    H172547   6.556   2.391  16.461  1.2953  0.8719 -0.3845
17044TIP3    H272548   6.416   2.418  16.409  0.1270 -2.5393  0.6785
17045TIP3   OH272549   5.725   0.271  15.661  0.4019  0.8155 -0.0437
17045TIP3    H172550   5.819   0.287  15.669  0.4322  0.2053  1.0685
17045TIP3    H272551   5.714   0.178  15.680 -0.4397  0.9002 -0.0546
17046TIP3   OH272552   0.798   2.870  14.210 -0.2603 -0.3357 -0.4316
17046TIP3    H172553   0.813   2.904  14.298  1.5116  0.9891 -1.1701
17046TIP3    H272554   0.722   2.919  14.178 -1.3718 -1.3455  0.5745
17047TIP3   OH272555   3.544   2.215  13.590 -0.2765 -0.3110 -0.2079
17047TIP3    H172556   3.552   2.310  13.577  0.7135 -0.2136  0.8955
17047TIP3    H272557   3.450   2.200  13.596 -0.4213  0.9204  1.4886
17048TIP3   OH272558   0.910   5.556  14.215  0.1775 -0.5083 -0.4029
17048TIP3    H172559   0.863   5.524  14.138 -2.0907  1.3703  0.0676
17048TIP3    H272560   0.965   5.627  14.181 -0.3341 -0.1072 -0.4042
17049TIP3   OH272561   3.960   0.552  15.181  0.2808  0.1865 -0.0190
17049TIP3    H172562   3.951   0.647  15.188  0.8403  0.1630  1.2455
17049TIP3    H272563   4.042   0.533  15.226  1.0867 -0.7295 -1.7845
17050TIP3   OH272564   3.157   4.161   4.766  0.1966  0.1717  0.0971
17050TIP3    H172565   3.222   4.198   4.705  0.8657 -0.3116  0.4985
17050TIP3    H272566   3.073   4.176   4.723  0.5217  1.3020 -0.1831
17051TIP3   OH272567   2.406   3.243  11.793  0.3367 -0.2699 -0.1034
17051TIP3    H172568   2.344   3.228  11.865 -0.1294 -1.3961 -0.7074
17051TIP3    H272569   2.492   3.247  11.835  0.0909 -1.0995  0.5017
17052TIP3   OH272570   1.939   5.673   0.277  1.0386 -0.1277 -0.5780
17052TIP3    H172571   1.963   5.718   0.358  1.0119 -0.7753 -0.2100
17052TIP3    H272572   1.896   5.593   0.306  1.2914 -0.5036 -1.2380
17053TIP3   OH272573   5.121   1.568  15.996  0.3022 -0.7089 -0.2304
17053TIP3    H172574   5.079   1.572  15.910 -1.1299 -1.0304  0.4276
17053TIP3    H272575   5.195   1.629  15.989  0.2868 -0.8171 -1.7122
17054TIP3   OH272576   5.507   3.742   3.345  0.1928 -0.0608 -0.1844
17054TIP3    H172577   5.481   3.690   3.421  1.3753  1.2404  1.1811
17054TIP3    H272578   5.570   3.688   3.298 -1.1004 -1.1782 -0.6873
17055TIP3   OH272579   0.328   5.124   2.261 -0.2192  0.0920 -0.4007
17055TIP3    H172580   0.286   5.153   2.180  0.4217 -0.8294 -1.0811
17055TIP3    H272581   0.404   5.181   2.271 -0.9831  1.0274  0.2365
17056TIP3   OH272582   3.743   3.596  12.018 -0.1185 -0.3531  0.4371
17056TIP3    H172583   3.740   3.500  12.017  0.2366 -0.4319  2.4249
17056TIP3    H272584   3.796   3.617  12.094 -5.1596  1.4262  3.9986
17057TIP3   OH272585   6.593   2.451   4.200 -0.4127  0.2940 -0.2475
17057TIP3    H172586   6.666   2.485   4.251  1.3592 -1.2898 -1.6277
17057TIP3    H272587   6.564   2.526   4.148 -0.3489  1.1445  0.8887
17058TIP3   OH272588   0.922   5.320  11.213  0.1013 -0.2963 -0.1789
17058TIP3    H172589   0.882   5.392  11.163  0.3499  0.8033  1.1373
17058TIP3    H272590   0.853   5.255  11.221 -0.4139  0.1840 -0.6425
17059TIP3   OH272591   0.586   2.820  11.685  0.0592  0.2951 -0.2323
17059TIP3    H172592   0.652   2.751  11.682  0.0387  0.2476  0.3285
17059TIP3    H272593   0.567   2.831  11.778  0.4715  1.4317 -0.2632
17060TIP3   OH272594   0.681   2.322  16.281 -0.3661  0.3440 -0.7136
17060TIP3    H172595   0.760   2.344  16.232  1.0235  1.6010  1.8720
17060TIP3    H272596   0.638   2.406  16.297 -1.4130 -0.1657 -0.7484
17061TIP3   OH272597   1.881   4.817   4.343 -0.1585 -0.0493  0.2858
17061TIP3    H172598   1.889   4.863   4.260 -2.2042 -1.9869 -1.0645
17061TIP3    H272599   1.856   4.885   4.406  2.0935  1.5669 -0.4262
17062TIP3   OH272600   3.211   0.890   5.988  0.1499 -0.1801  0.0274
17062TIP3    H172601   3.265   0.823   6.031  2.2695  1.1038 -0.4961
17062TIP3    H272602   3.260   0.971   6.000 -2.0317  1.2031  0.0770
17063TIP3   OH272603   6.413   5.956  17.064  0.7834  0.1417  0.2114
17063TIP3    H172604   6.499   5.976  17.027  0.6351  1.4017  0.5074
17063TIP3    H272605   6.393   6.031  17.121 -1.3490  0.8413 -1.3226
17064TIP3   OH272606   5.270   4.011   6.510  0.4063 -0.1529  0.0588
17064TIP3    H172607   5.220   4.072   6.564 -0.2880  0.8107 -1.5974
17064TIP3    H272608   5.361   4.024   6.537  0.4124  2.3722 -0.8793
17065TIP3   OH272609   6.213   1.618   5.007 -0.3872  0.4111  0.1350
17065TIP3    H172610   6.270   1.546   5.034  1.3879  1.4168 -0.7585
17065TIP3    H272611   6.185   1.659   5.089  2.0691  1.2822  0.6077
17066TIP3   OH272612   4.342   3.039   5.343  0.1695 -0.0262 -0.1400
17066TIP3    H172613   4.391   2.961   5.368 -0.3876  0.0763  1.3719
17066TIP3    H272614   4.403   3.112   5.356  0.6111 -0.1596 -1.3226
17067TIP3   OH272615   0.002   6.716   4.675 -0.0861  0.4182  0.3997
17067TIP3    H172616  -0.060   6.766   4.728  0.8565  0.3555  1.6121
17067TIP3    H272617   0.057   6.782   4.634  0.0656  0.4248  0.6146
17068TIP3   OH272618   3.912   4.885  11.764  0.0724  0.1385 -0.4811
17068TIP3    H172619   3.984   4.916  11.818 -0.2542 -0.7559  0.4959
17068TIP3    H272620   3.928   4.924  11.678  1.1814  0.7247 -0.0243
17069TIP3   OH272621   4.647   6.461   5.322 -0.1542  0.0735  0.0981
17069TIP3    H172622   4.727   6.418   5.354 -0.3322 -0.1137  0.2938
17069TIP3    H272623   4.588   6.461   5.398 -0.6834 -0.6087 -0.3041
17070TIP3   OH272624   4.530   1.186  15.393  0.0673 -0.0596  0.5429
17070TIP3    H172625   4.452   1.139  15.422 -1.2280  1.2291 -0.6689
17070TIP3    H272626   4.542   1.159  15.302 -0.5297  1.6272 -0.0835
17071TIP3   OH272627   1.445   2.410  12.560 -0.6535 -0.4352 -0.0941
17071TIP3    H172628   1.441   2.326  12.515 -3.1425 -0.9497  0.9309
17071TIP3    H272629   1.452   2.388  12.653 -1.1489  0.4591  0.1740
17072TIP3   OH272630   6.060   5.811   3.157  0.7903 -0.1984 -0.0145
17072TIP3    H172631   6.064   5.898   3.119 -0.7936 -0.7544 -1.5763
17072TIP3    H272632   6.048   5.752   3.083  1.8023 -1.7620  1.0063
17073TIP3   OH272633   1.709   2.770   6.193  0.1390 -0.5575  0.8621
17073TIP3    H172634   1.792   2.781   6.146 -0.5854 -0.9912 -0.5770
17073TIP3    H272635   1.692   2.855   6.232  0.6391 -0.0933  0.0958
17074TIP3   OH272636   5.195   3.890  11.398 -0.6938 -0.6616 -0.2889
17074TIP3    H172637   5.263   3.824  11.410 -1.4905 -1.2644  1.2722
17074TIP3    H272638   5.213   3.928  11.312  1.2153 -1.2356 -0.1943
17075TIP3   OH272639   2.965   0.340   1.505 -0.7400 -0.1593 -0.4453
17075TIP3    H172640   2.959   0.416   1.562 -0.6539 -0.8895  0.5849
17075TIP3    H272641   3.055   0.308   1.518 -0.7959 -0.4703 -0.8133
17076TIP3   OH272642   1.122   3.246   1.442 -0.0292 -0.2517  0.1276
17076TIP3    H172643   1.140   3.313   1.376 -0.6775  0.7144  0.8932
17076TIP3    H272644   1.177   3.271   1.517 -0.9006 -0.0674  0.7238
17077TIP3   OH272645   5.663   2.064   2.101 -0.2391 -0.6090  0.1763
17077TIP3    H172646   5.642   2.001   2.170 -1.0984  0.1084  0.5978
17077TIP3    H272647   5.741   2.029   2.058 -0.4763 -1.7475  0.6539
17078TIP3   OH272648   6.085   3.037  16.863  0.3259  0.2727  0.5979
17078TIP3    H172649   6.175   3.035  16.831  0.4336  1.7224  0.7426
17078TIP3    H272650   6.071   3.128  16.890 -1.4574  0.2669 -0.1734
17079TIP3   OH272651   4.606   1.311   2.732 -0.3118 -0.8007 -0.4785
17079TIP3    H172652   4.701   1.322   2.738 -0.6534  3.3375  0.2887
17079TIP3    H272653   4.582   1.261   2.809  1.1610 -1.1135 -0.2047
17080TIP3   OH272654   3.342   2.543  11.718  0.3175 -0.2740 -0.2391
17080TIP3    H172655   3.249   2.548  11.697  0.7067 -0.8441 -2.3930
17080TIP3    H272656   3.346   2.498  11.802 -1.3626  0.2892  0.1704
17081TIP3   OH272657   0.706   3.813   3.382 -0.1232 -0.4516  0.1240
17081TIP3    H172658   0.711   3.822   3.477 -0.3873 -1.5565  0.2448
17081TIP3    H272659   0.648   3.885   3.355  0.3649  0.1923  0.7289
17082TIP3   OH272660   5.710   0.015  15.425  0.3002  0.1131 -0.1253
17082TIP3    H172661   5.701   0.027  15.519  1.4535  0.7114 -0.0770
17082TIP3    H272662   5.705   0.103  15.389 -0.8514 -0.1739 -0.7056
17083TIP3   OH272663   0.222   5.624   5.643 -0.1166 -0.8607 -0.4469
17083TIP3    H172664   0.307   5.607   5.685 -0.1439 -0.0415 -0.0410
17083TIP3    H272665   0.157   5.596   5.708 -0.1735  1.2754  0.5203
17084TIP3   OH272666   5.296   0.464   5.201 -0.3829 -0.4219 -0.0893
17084TIP3    H172667   5.274   0.525   5.272  0.9035 -1.3588  1.1966
17084TIP3    H272668   5.246   0.494   5.126 -2.0146  0.4738  1.2931
17085TIP3   OH272669   1.652   5.368  13.193  0.2322  0.1004  0.0852
17085TIP3    H172670   1.652   5.425  13.270  1.2181  0.0061  0.1652
17085TIP3    H272671   1.738   5.382  13.153  1.0897 -2.3616  0.8854
17086TIP3   OH272672   5.948   2.398  10.653 -0.4691 -0.2236  0.1332
17086TIP3    H172673   5.931   2.368  10.743  0.9571  0.7766  0.7773
17086TIP3    H272674   5.871   2.450  10.630 -1.3158 -1.3299  0.3664
17087TIP3   OH272675   6.246   2.574  16.121 -0.4845  0.5073  0.0596
17087TIP3    H172676   6.198   2.604  16.044 -1.1357 -2.6512 -0.9313
17087TIP3    H272677   6.178   2.557  16.187 -0.1022  1.5013  0.7313
17088TIP3   OH272678   1.070   2.691  16.331 -0.4600  0.5245  0.1967
17088TIP3    H172679   1.081   2.721  16.241 -0.5664  0.2530  0.0924
17088TIP3    H272680   0.978   2.707  16.351 -0.1954  1.5502  0.6123
17089TIP3   OH272681   1.005   3.509   4.331 -0.1249 -0.2748 -0.2765
17089TIP3    H172682   0.952   3.557   4.395 -0.1488 -0.5795 -0.0669
17089TIP3    H272683   1.027   3.426   4.374  0.1174 -0.3543 -0.5455
17090TIP3   OH272684   4.927   0.444  11.994  0.1612 -0.4017 -0.5498
17090TIP3    H172685   4.964   0.507  12.056 -1.2679  0.1056 -0.1742
17090TIP3    H272686   4.991   0.441  11.923 -0.4782  2.8545 -1.4437
17091TIP3   OH272687   2.630   6.415   6.456 -0.8011 -0.0913 -0.7786
17091TIP3    H172688   2.550   6.371   6.484 -0.1889 -0.7282  0.0369
17091TIP3    H272689   2.690   6.343   6.434  0.3996  0.2801  1.0522
17092TIP3   OH272690   0.224   3.542   5.115 -0.0032 -0.5417 -0.1861
17092TIP3    H172691   0.130   3.530   5.101  0.1176  0.8960 -3.0126
17092TIP3    H272692   0.251   3.466   5.166 -2.6055 -1.2345  0.3065
17093TIP3   OH272693   3.587   3.719   3.371 -0.2096  0.2473  0.0119
17093TIP3    H172694   3.667   3.771   3.384  0.3695 -1.3377  3.9970
17093TIP3    H272695   3.516   3.781   3.389  0.3334  0.6422  0.9027
17094TIP3   OH272696   6.772   0.330  11.973 -0.0063  0.0983 -0.0634
17094TIP3    H172697   6.719   0.319  11.894 -1.2636  0.2778  0.7348
17094TIP3    H272698   6.808   0.419  11.965 -1.1678  0.6060  0.1517
17095TIP3   OH272699   4.178   2.790   6.534 -0.4065  0.3871 -0.2006
17095TIP3    H172700   4.141   2.771   6.621 -0.0966 -1.3405 -0.4083
17095TIP3    H272701   4.158   2.883   6.520  1.7083  1.4677  2.7751
17096TIP3   OH272702   5.397   1.514   5.151 -0.1346 -0.0313 -0.2674
17096TIP3    H172703   5.374   1.605   5.136  0.3359  0.0790 -0.3340
17096TIP3    H272704   5.321   1.464   5.120 -0.8768  0.3820  0.8059
17097TIP3   OH272705   3.701   3.861  15.960  0.2884  0.0593  0.0651
17097TIP3    H172706   3.684   3.792  16.024  1.2745  0.3698  0.6863
17097TIP3    H272707   3.637   3.930  15.981  1.9089  1.0579  2.1229
17098TIP3   OH272708   1.238   0.548  13.177  0.3075  0.0819 -0.4659
17098TIP3    H172709   1.214   0.458  13.199  0.0219 -0.2112 -1.8554
17098TIP3    H272710   1.333   0.550  13.185  0.2656 -0.1772  0.1450
17099TIP3   OH272711   4.233   3.992   3.100  0.2599 -0.1325  0.6192
17099TIP3    H172712   4.284   3.945   3.166 -0.7975 -2.0675  0.1307
17099TIP3    H272713   4.211   4.075   3.142 -3.9802 -2.8093  4.6463
17100TIP3   OH272714   2.433   2.645  16.947  0.0662  0.2859 -0.6341
17100TIP3    H172715   2.397   2.702  17.015  1.3860  0.6218 -0.1781
17100TIP3    H272716   2.420   2.556  16.981 -1.8346  0.2737 -1.2663
17101TIP3   OH272717   4.375   0.647  12.872  0.5111  0.0153 -0.3414
17101TIP3    H172718   4.372   0.697  12.791  0.9019 -0.6074 -0.7519
17101TIP3    H272719   4.349   0.558  12.847  0.0412 -0.0465  0.3311
17102TIP3   OH272720   2.021   6.457  12.895  0.5575  0.1015 -0.0655
17102TIP3    H172721   2.017   6.366  12.867  0.1570  0.2401 -0.4537
17102TIP3    H272722   1.999   6.508  12.817  0.5261  0.5233  0.2157
17103TIP3   OH272723   0.737   6.179  11.684 -0.5834  0.6640 -0.0691
17103TIP3    H172724   0.782   6.096  11.670 -1.3484  0.2160  0.0478
17103TIP3    H272725   0.747   6.226  11.602 -0.2424  0.4054 -0.1768
17104TIP3   OH272726   3.683   6.538   6.214  0.6137  0.2931 -0.0397
17104TIP3    H172727   3.615   6.600   6.240  0.7105  0.6816 -0.6812
17104TIP3    H272728   3.727   6.514   6.295 -1.5085 -1.4409  0.6924
17105TIP3   OH272729   1.274   2.537  16.424  0.2134  0.5254 -0.7960
17105TIP3    H172730   1.296   2.569  16.512 -1.3837 -0.7560  0.1462
17105TIP3    H272731   1.217   2.605  16.388 -1.6728 -0.2716  0.4689
17106TIP3   OH272732   1.420   1.462  13.679 -0.0257 -0.0104 -0.1979
17106TIP3    H172733   1.506   1.499  13.658  0.5172 -1.1920 -0.1786
17106TIP3    H272734   1.376   1.530  13.729  0.7414  0.7831 -0.5803
17107TIP3   OH272735   4.093   2.137  16.981 -0.5797 -0.3599 -0.4554
17107TIP3    H172736   4.150   2.200  17.025 -1.3506  0.1675 -0.1874
17107TIP3    H272737   4.113   2.053  17.023 -2.0290  0.2782  1.7179
17108TIP3   OH272738   4.050   2.206  11.881  0.5746  0.6514 -0.0101
17108TIP3    H172739   4.069   2.113  11.868 -2.7838 -0.2993  0.9655
17108TIP3    H272740   4.110   2.234  11.950  0.0702 -1.4636  1.3636
17109TIP3   OH272741   2.664   2.440  11.237  0.3365 -0.4157 -0.4942
17109TIP3    H172742   2.623   2.467  11.319 -1.0185 -0.4006 -1.1593
17109TIP3    H272743   2.745   2.397  11.265 -0.1781 -0.5707  0.8611
17110TIP3   OH272744   6.670   5.814  15.728  0.2204 -0.1744  0.5200
17110TIP3    H172745   6.583   5.849  15.708  1.0715  1.3754 -0.7363
17110TIP3    H272746   6.698   5.862  15.805  0.2486 -0.1637  0.5030
17111TIP3   OH272747   2.116   3.732   0.532  0.5406 -0.4919 -0.3329
17111TIP3    H172748   2.188   3.777   0.576  1.9024 -1.0958 -1.8599
17111TIP3    H272749   2.067   3.802   0.489  0.1537 -0.0743  0.7525
17112TIP3   OH272750   0.927   4.173   2.149 -0.6704  0.1407  0.4055
17112TIP3    H172751   0.925   4.078   2.141  0.6246  0.1566 -0.4177
17112TIP3    H272752   0.960   4.189   2.237 -1.1949 -0.1598  0.6630
17113TIP3   OH272753   4.075   6.565  12.823 -0.1746  0.1370 -0.2656
17113TIP3    H172754   4.095   6.659  12.820 -2.3410  0.6643  0.2359
17113TIP3    H272755   3.982   6.561  12.845  0.0656 -2.1685  0.5666
17114TIP3   OH272756   5.892   4.431  15.501 -0.6013 -0.2140  0.9629
17114TIP3    H172757   5.929   4.416  15.414 -1.8823  0.7437  0.2120
17114TIP3    H272758   5.964   4.413  15.561  0.7871  0.6384 -0.3766
17115TIP3   OH272759   6.698   0.501   4.503  0.1589  0.4210  0.1953
17115TIP3    H172760   6.694   0.427   4.563  1.4197  0.2609  0.1098
17115TIP3    H272761   6.721   0.576   4.558  2.4630  0.0687 -0.1862
17116TIP3   OH272762   3.741   1.261  11.121  0.0214  0.7396  0.7138
17116TIP3    H172763   3.724   1.301  11.035  3.9447  0.0754 -0.5605
17116TIP3    H272764   3.785   1.329  11.171 -1.3633  0.7897  1.9475
17117TIP3   OH272765   4.010   3.182   5.602  0.3449 -0.2174 -0.3147
17117TIP3    H172766   4.039   3.094   5.629 -0.0265  0.1145  1.2807
17117TIP3    H272767   3.927   3.167   5.557 -1.1057 -0.5160  2.2977
17118TIP3   OH272768   0.142   3.376   1.494  0.4679  0.1146 -0.6680
17118TIP3    H172769   0.070   3.329   1.535 -0.0201  1.9333  0.6694
17118TIP3    H272770   0.219   3.322   1.510 -0.1552 -0.4944  0.3628
17119TIP3   OH272771   4.683   2.956  11.532  0.4650 -0.0728 -0.2780
17119TIP3    H172772   4.607   2.948  11.474  1.1122 -0.1095 -1.1286
17119TIP3    H272773   4.728   2.872  11.524  0.8917  0.1473 -0.1899
17120TIP3   OH272774   0.312   4.767  16.684 -0.0593 -0.3581 -0.3852
17120TIP3    H172775   0.306   4.688  16.630 -0.6797  0.3342 -1.3702
17120TIP3    H272776   0.239   4.822  16.654  0.3703  0.5933  0.2614
17121TIP3   OH272777   4.280   0.566  17.113 -0.3948  0.0944  0.5914
17121TIP3    H172778   4.323   0.633  17.165 -0.6088 -0.2015  1.1522
17121TIP3    H272779   4.328   0.485  17.131 -0.7443 -0.0987  0.6837
17122TIP3   OH272780   4.152   1.204   3.307 -0.3030 -0.0444  0.1078
17122TIP3    H172781   4.071   1.247   3.279 -0.1284  0.1013 -0.1737
17122TIP3    H272782   4.146   1.203   3.403 -0.1376  0.9572  0.1444
17123TIP3   OH272783   4.602   1.312  15.640  0.4670 -0.0317 -0.0390
17123TIP3    H172784   4.572   1.308  15.549 -0.7202  1.3411  0.2500
17123TIP3    H272785   4.693   1.281  15.637  0.1066 -1.0726 -1.4992
17124TIP3   OH272786   1.378   4.124  16.473  0.2318  0.2363 -0.0929
17124TIP3    H172787   1.456   4.130  16.528  1.2232 -0.6109 -1.3409
17124TIP3    H272788   1.308   4.162  16.526  1.2735  0.0817  1.4595
17125TIP3   OH272789   0.213   4.653   4.428  0.8683 -0.1011 -0.2501
17125TIP3    H172790   0.157   4.685   4.358  1.9943  0.6407 -0.8321
17125TIP3    H272791   0.173   4.687   4.508  0.0037 -0.3215 -0.5736
17126TIP3   OH272792   1.502   3.834   0.951  0.0657 -0.6344  0.2889
17126TIP3    H172793   1.458   3.909   0.911  0.8683  0.0665  0.6934
17126TIP3    H272794   1.523   3.776   0.877  1.1116  0.4260 -0.2868
17127TIP3   OH272795   3.176   5.352   2.432 -0.2491  0.7828  0.2302
17127TIP3    H172796   3.219   5.338   2.516  0.3739 -3.5111 -0.5373
17127TIP3    H272797   3.143   5.441   2.435  3.0674  2.1112  3.4476
17128TIP3   OH272798   2.694   6.719   0.895  0.2187 -0.1069  0.4143
17128TIP3    H172799   2.687   6.780   0.969 -0.5462  0.3340 -0.0104
17128TIP3    H272800   2.743   6.768   0.829  2.6898 -1.2144  1.3353
17129TIP3   OH272801   5.140   2.933  16.398 -0.1130 -0.5682 -0.3812
17129TIP3    H172802   5.130   2.972  16.485 -0.0812  0.4710 -0.8358
17129TIP3    H272803   5.175   2.845  16.415  1.5665  0.2500  0.5763
17130TIP3   OH272804   5.394   3.079  13.310  0.1844 -0.0944  0.0474
17130TIP3    H172805   5.363   3.015  13.374  0.2945 -0.3596 -0.1594
17130TIP3    H272806   5.436   3.026  13.242  2.2644  0.3367  0.9457
17131TIP3   OH272807   4.385   2.975  15.610 -0.1162  0.1748  0.0525
17131TIP3    H172808   4.370   3.020  15.527 -1.3025  1.2289  0.8037
17131TIP3    H272809   4.316   2.908  15.614  1.6047 -1.7719 -1.0370
17132TIP3   OH272810   6.183   4.295  17.250 -0.1679  0.0917  0.6455
17132TIP3    H172811   6.114   4.267  17.310  1.1489  0.1551  2.2908
17132TIP3    H272812   6.213   4.214  17.209 -0.3868 -0.1091  0.8740
17133TIP3   OH272813   0.917   6.605  16.003 -0.0619  0.2729 -0.5645
17133TIP3    H172814   0.995   6.610  15.948 -0.1502 -0.5185 -0.7726
17133TIP3    H272815   0.941   6.654  16.083  1.6004 -2.0437  0.4787
17134TIP3   OH272816   1.135   1.116   3.310 -0.0239 -0.0528 -0.8913
17134TIP3    H172817   1.203   1.162   3.359 -1.8642  4.0515 -1.7618
17134TIP3    H272818   1.182   1.075   3.237  1.9071 -0.7670  0.6542
17135TIP3   OH272819   4.471   3.297  12.218  0.2517 -0.9291 -0.0927
17135TIP3    H172820   4.528   3.224  12.240  1.9885  0.1901 -0.6197
17135TIP3    H272821   4.521   3.375  12.244 -2.1452  0.0653  1.8345
17136TIP3   OH272822   6.360   6.187   4.042 -0.6613 -0.9410  0.3550
17136TIP3    H172823   6.300   6.132   4.092 -0.5254 -1.0471  0.4036
17136TIP3    H272824   6.305   6.256   4.005 -0.6855 -0.5816  1.0463
17137TIP3   OH272825   0.004   5.071  11.776  0.5997  0.0105 -0.1111
17137TIP3    H172826   0.013   5.165  11.759  0.3776  0.2386  0.9412
17137TIP3    H272827   0.079   5.031  11.734 -0.7830  0.2988 -3.1118
17138TIP3   OH272828   1.684   1.048  16.163 -0.2156  0.4065 -0.0683
17138TIP3    H172829   1.593   1.078  16.161 -0.9261 -1.6244 -0.3315
17138TIP3    H272830   1.699   1.008  16.077  0.9191  0.6609 -0.0115
17139TIP3   OH272831   3.400   6.681  12.422 -0.0929 -0.5954 -0.0560
17139TIP3    H172832   3.366   6.736  12.351  0.6662 -1.0553 -0.7977
17139TIP3    H272833   3.336   6.689  12.492 -1.2886 -0.7798 -1.1019
17140TIP3   OH272834   6.146   0.429  10.995 -0.0052 -0.4056  0.1677
17140TIP3    H172835   6.169   0.390  10.911  0.1693 -1.8572  0.8588
17140TIP3    H272836   6.220   0.485  11.017 -0.1848  0.2300 -0.7625
17141TIP3   OH272837   6.046   0.308  16.421  0.0725  0.0653  0.1975
17141TIP3    H172838   6.043   0.334  16.514  1.4438  0.1111  0.2535
17141TIP3    H272839   5.955   0.291  16.398 -0.1976 -0.9728  1.8456
17142TIP3   OH272840   2.638   5.437  13.728  0.1609  0.2043 -0.2038
17142TIP3    H172841   2.550   5.410  13.704  0.5434  0.6290 -2.2610
17142TIP3    H272842   2.635   5.533  13.724  0.5698  0.2456  0.3267
17143TIP3   OH272843   0.389   1.193   4.625 -0.3728  0.5971  0.5166
17143TIP3    H172844   0.302   1.174   4.662 -0.6302  1.4181  0.3524
17143TIP3    H272845   0.376   1.272   4.573 -0.2424 -1.0302 -2.1633
17144TIP3   OH272846   5.612   4.729  14.134 -0.0554 -0.0810  0.6784
17144TIP3    H172847   5.618   4.723  14.038  3.6850 -1.3816  0.8533
17144TIP3    H272848   5.518   4.727  14.152 -0.9459  0.8736 -2.9554
17145TIP3   OH272849   0.938   2.804   0.346 -0.7015  0.4421  0.6559
17145TIP3    H172850   1.006   2.741   0.323 -1.8283 -0.7878  0.5545
17145TIP3    H272851   0.984   2.887   0.356  0.9000 -0.4641  1.1827
17146TIP3   OH272852   6.349   3.219   4.232  0.3394 -0.4466 -0.2422
17146TIP3    H172853   6.266   3.201   4.276  0.9649 -0.0492  1.1690
17146TIP3    H272854   6.354   3.153   4.163 -1.4451 -0.0567 -0.8027
17147TIP3   OH272855   0.166   0.129  11.353  0.1882  0.0266  0.1364
17147TIP3    H172856   0.101   0.072  11.311  0.6391  0.1199 -0.6914
17147TIP3    H272857   0.122   0.159  11.433 -1.1742  0.8435 -0.8636
17148TIP3   OH272858   3.955   5.458  11.431  0.0915  0.3766  0.3257
17148TIP3    H172859   3.898   5.417  11.497 -0.4691 -0.9302 -0.9058
17148TIP3    H272860   4.035   5.479  11.478 -1.5173  2.7248  2.2528
17149TIP3   OH272861   3.764   4.322  12.758 -0.5483 -0.3195 -0.0659
17149TIP3    H172862   3.832   4.389  12.759  0.2257 -1.0080 -2.0364
17149TIP3    H272863   3.699   4.353  12.822  1.1465  0.8057  1.2104
17150TIP3   OH272864   0.343   1.142  14.792 -0.8756 -0.3984  0.2583
17150TIP3    H172865   0.425   1.093  14.786 -0.5776  0.1669 -0.4691
17150TIP3    H272866   0.286   1.103  14.726 -1.3435 -1.0493  1.0317
17151TIP3   OH272867   4.876   6.031   0.206 -0.1559  0.1664  0.0352
17151TIP3    H172868   4.917   6.037   0.292 -0.2347  0.5337  0.0504
17151TIP3    H272869   4.947   6.050   0.144 -0.2388  0.5206  0.0483
17152TIP3   OH272870   2.547   3.774  16.909  0.3687  0.4059 -0.0590
17152TIP3    H172871   2.617   3.751  16.848  0.3293 -3.6688  1.1165
17152TIP3    H272872   2.482   3.820  16.855  1.1091 -1.4312 -2.7325
17153TIP3   OH272873   4.478   2.166   4.686  0.4170 -0.2601  0.0005
17153TIP3    H172874   4.528   2.222   4.627  1.0561 -0.5794  0.2298
17153TIP3    H272875   4.500   2.198   4.774 -2.1284  1.5770  0.0613
17154TIP3   OH272876   5.894   2.779  12.090  0.1614  0.0214  0.0670
17154TIP3    H172877   5.864   2.867  12.066  0.9617  0.7088  1.4418
17154TIP3    H272878   5.942   2.748  12.013 -0.7237  0.4920 -0.6888
17155TIP3   OH272879   1.219   0.874   4.824 -0.0957  0.0184  1.1048
17155TIP3    H172880   1.175   0.857   4.907 -0.8680  0.3541  0.7823
17155TIP3    H272881   1.312   0.859   4.841 -0.1376  0.9575  2.2675
17156TIP3   OH272882   6.507   5.737  14.905  0.2658 -0.5865  0.7541
17156TIP3    H172883   6.601   5.717  14.899  0.3439 -0.1721  0.4992
17156TIP3    H272884   6.491   5.753  14.998  0.3965 -0.9049  0.8310
17157TIP3   OH272885   0.447   5.700  14.671 -0.3831  0.2325  0.6697
17157TIP3    H172886   0.432   5.795  14.667 -0.7218  0.1512 -1.5525
17157TIP3    H272887   0.359   5.662  14.676 -0.2884  0.0179  0.6895
17158TIP3   OH272888   6.021   2.569  16.288 -0.5644  0.0932 -0.5206
17158TIP3    H172889   5.953   2.616  16.240 -1.1232 -1.1311 -0.9754
17158TIP3    H272890   5.977   2.536  16.366 -0.0216  0.8388  0.1107
17159TIP3   OH272891   5.511   4.724   3.285 -0.0197 -0.2361 -0.4859
17159TIP3    H172892   5.511   4.645   3.339 -2.1036  0.1581  0.2024
17159TIP3    H272893   5.529   4.795   3.347 -0.8178  0.0646 -0.5895
17160TIP3   OH272894   2.999   4.563  11.102 -0.2040  0.8372 -0.0200
17160TIP3    H172895   2.983   4.655  11.082 -1.6523  0.4850 -0.5665
17160TIP3    H272896   3.030   4.525  11.020  0.7441  0.9024  0.2976
17161TIP3   OH272897   2.916   5.534   0.967  0.2597 -0.5508 -0.3363
17161TIP3    H172898   3.010   5.543   0.949  0.2410 -2.3228 -1.6296
17161TIP3    H272899   2.912   5.489   1.052  0.4650  2.4341  1.3653
17162TIP3   OH272900   5.599   6.039  17.068  0.2400 -0.3404  0.8595
17162TIP3    H172901   5.558   6.126  17.063 -0.5593 -0.7157  0.7532
17162TIP3    H272902   5.661   6.039  16.995  1.4616  0.7422  1.8542
17163TIP3   OH272903   2.418   1.218   3.271 -0.3618  0.4340  0.2181
17163TIP3    H172904   2.453   1.130   3.284  1.6274  1.2192  0.7186
17163TIP3    H272905   2.493   1.275   3.289 -1.9324  2.2855  1.2078
17164TIP3   OH272906   2.520   4.952   4.088 -0.3238 -0.4374  0.0771
17164TIP3    H172907   2.552   4.866   4.116  0.4967 -0.7981 -1.7536
17164TIP3    H272908   2.572   5.015   4.138  1.2634 -1.0396 -0.7197
17165TIP3   OH272909   0.701   3.643   2.102  0.3153 -0.1875  0.0247
17165TIP3    H172910   0.635   3.577   2.080  0.0980 -0.7963  2.2316
17165TIP3    H272911   0.761   3.598   2.161  1.9788  0.7502 -0.8758
17166TIP3   OH272912   0.603   6.491   6.090  0.2859 -0.3524 -0.5411
17166TIP3    H172913   0.534   6.554   6.068  0.5994  0.8223  1.5853
17166TIP3    H272914   0.684   6.541   6.082  0.6408 -0.8544 -0.0971
17167TIP3   OH272915   0.220   4.843   3.967  0.0612 -0.1782 -0.2361
17167TIP3    H172916   0.187   4.765   3.923  0.9554  0.5352 -2.2730
17167TIP3    H272917   0.277   4.809   4.037  0.8971 -1.3678 -1.4606
17168TIP3   OH272918   3.168   0.861  12.423  0.1065  0.3534  0.4646
17168TIP3    H172919   3.136   0.848  12.334  1.2176  1.3105 -0.1103
17168TIP3    H272920   3.092   0.846  12.479 -1.5977  3.2599 -0.8638
17169TIP3   OH272921   1.390   3.100   2.026 -0.1180  0.1983  0.4883
17169TIP3    H172922   1.309   3.048   2.028  1.1820 -2.3006 -2.7419
17169TIP3    H272923   1.457   3.041   2.060  0.9088  0.9249 -0.2188
17170TIP3   OH272924   3.137   5.435  13.401 -0.0202 -0.3282  0.1678
17170TIP3    H172925   3.052   5.419  13.443  0.4090  0.0953  1.2340
17170TIP3    H272926   3.163   5.350  13.366 -0.8510 -0.4726 -0.1222
17171TIP3   OH272927   1.230   5.357  14.206 -0.2723 -0.0100 -0.0411
17171TIP3    H172928   1.246   5.451  14.210 -0.4721  0.0304 -0.1876
17171TIP3    H272929   1.166   5.346  14.135  0.5263 -0.3551 -0.7173
17172TIP3   OH272930   2.773   6.384  13.896  0.2890 -0.0048  0.1132
17172TIP3    H172931   2.844   6.433  13.937 -0.9262  1.1439  0.9249
17172TIP3    H272932   2.721   6.451  13.851 -0.0507 -0.8769 -0.8278
17173TIP3   OH272933   3.599   6.258   2.355  0.1748 -0.0045 -0.1523
17173TIP3    H172934   3.618   6.172   2.319  0.1296 -0.7997  1.6270
17173TIP3    H272935   3.684   6.293   2.382  0.1092  0.2282 -0.2367
17174TIP3   OH272936   5.793   3.548  16.201 -0.5274 -0.4839 -0.4324
17174TIP3    H172937   5.803   3.525  16.109 -0.9508  1.0159 -0.8948
17174TIP3    H272938   5.883   3.557  16.234 -0.3631 -2.2047 -0.3510
17175TIP3   OH272939   4.563   4.549  11.194 -0.4853  0.1925 -0.3582
17175TIP3    H172940   4.590   4.472  11.144  1.7159  0.1839  0.7271
17175TIP3    H272941   4.596   4.623  11.143 -1.2423  0.3651 -0.6126
17176TIP3   OH272942   1.843   0.088   0.158 -0.1371  0.4200  0.2017
17176TIP3    H172943   1.762   0.098   0.207 -1.1872 -2.9829 -0.5862
17176TIP3    H272944   1.904   0.047   0.220 -0.0201  0.1859 -0.0665
17177TIP3   OH272945   0.921   0.626   5.687 -0.0882  0.4705 -0.2651
17177TIP3    H172946   0.936   0.640   5.594 -0.9490  0.2524 -0.4481
17177TIP3    H272947   0.921   0.531   5.697  0.2008  0.4954 -0.0008
17178TIP3   OH272948   0.610   1.996  16.472 -0.4027 -0.9176 -0.3182
17178TIP3    H172949   0.630   2.019  16.381  1.1776  0.0748  0.2302
17178TIP3    H272950   0.601   1.901  16.471  0.2854 -0.9969 -1.4049
17179TIP3   OH272951   3.605   6.588   0.333 -0.0233 -0.4806 -0.1841
17179TIP3    H172952   3.617   6.681   0.318  0.4567 -0.3527  0.8957
17179TIP3    H272953   3.653   6.570   0.414 -0.7464 -1.5166  0.0394
17180TIP3   OH272954   2.260   2.797   4.871 -0.2627 -0.3079  0.1076
17180TIP3    H172955   2.347   2.769   4.842 -0.6349 -0.4046 -0.9401
17180TIP3    H272956   2.237   2.870   4.813  0.0051  1.1487  1.7479
17181TIP3   OH272957   2.833   4.976   4.943  0.2478  0.5377  0.0536
17181TIP3    H172958   2.797   5.027   4.871 -1.0402 -0.3872  0.0025
17181TIP3    H272959   2.828   5.035   5.019 -1.7716  0.3428  0.1253
17182TIP3   OH272960   2.417   1.638  11.330 -0.1642 -0.5931 -0.5413
17182TIP3    H172961   2.327   1.671  11.332 -0.0009 -0.1651  0.0447
17182TIP3    H272962   2.429   1.598  11.416  0.6688  0.6343 -0.0613
17183TIP3   OH272963   3.560   0.823   6.097 -0.4729 -0.2298  0.6114
17183TIP3    H172964   3.547   0.907   6.142  0.5428 -0.8200  2.1123
17183TIP3    H272965   3.496   0.764   6.137 -1.4806 -0.1085 -0.7434
17184TIP3   OH272966   3.010   2.576   2.922 -0.7385  0.3903 -0.4434
17184TIP3    H172967   2.975   2.611   3.004 -0.1940  0.1518 -0.0977
17184TIP3    H272968   2.973   2.488   2.916 -1.5000  0.7322 -0.9237
17185TIP3   OH272969   2.964   1.716  10.885  0.1829 -0.2174 -0.6238
17185TIP3    H172970   3.010   1.793  10.916  0.7977 -0.6008 -0.5753
17185TIP3    H272971   2.879   1.719  10.929  1.1513 -0.9516  1.4262
17186TIP3   OH272972   5.559   0.928  11.584 -0.4684 -0.8134 -0.3241
17186TIP3    H172973   5.581   0.891  11.669 -1.6213 -2.2490 -0.6174
17186TIP3    H272974   5.569   0.856  11.522 -1.5234 -0.3195 -1.1055
17187TIP3   OH272975   1.858   4.411  15.649 -0.6077 -0.2262  0.0127
17187TIP3    H172976   1.919   4.479  15.676 -2.3000  0.7573  1.5692
17187TIP3    H272977   1.848   4.355  15.726 -1.1831 -0.7353 -0.4218
17188TIP3   OH272978   1.718   2.749   5.289  0.4823  0.0622  0.1746
17188TIP3    H172979   1.631   2.784   5.273 -0.3133 -1.6660  0.5506
17188TIP3    H272980   1.737   2.771   5.380 -0.2036 -0.8401  0.5471
17189TIP3   OH272981   2.130   3.197   5.846  0.1413 -0.0750  0.0590
17189TIP3    H172982   2.224   3.195   5.830  0.3372 -1.5403  1.1829
17189TIP3    H272983   2.121   3.236   5.933 -0.4631  1.8356 -0.7963
17190TIP3   OH272984   1.821   4.555  12.499  0.0029 -0.3643 -0.5383
17190TIP3    H172985   1.840   4.472  12.455 -1.8722 -0.4355 -1.3118
17190TIP3    H272986   1.778   4.529  12.581  1.4566 -0.1797  0.3062
17191TIP3   OH272987   4.854   3.130   2.433 -0.7329  0.3455  0.0873
17191TIP3    H172988   4.885   3.162   2.348 -0.0057 -1.2581 -0.2899
17191TIP3    H272989   4.774   3.082   2.412 -0.4864 -0.1555  0.2827
17192TIP3   OH272990   4.610   1.864  15.245  0.1951 -0.2896 -0.0744
17192TIP3    H172991   4.626   1.873  15.151 -0.2389 -2.8639 -0.4778
17192TIP3    H272992   4.515   1.873  15.255  0.2817  0.4070  0.2041
17193TIP3   OH272993   6.584   5.067   2.886 -0.3863  0.0325 -0.3636
17193TIP3    H172994   6.504   5.103   2.923 -0.0540  0.3274  0.0750
17193TIP3    H272995   6.643   5.142   2.878  0.8679 -0.6132  1.9877
17194TIP3   OH272996   1.197   0.094  11.126  0.1904 -0.6761  0.3866
17194TIP3    H172997   1.279   0.053  11.155  1.1381 -0.5050 -1.8064
17194TIP3    H272998   1.177   0.050  11.043 -0.0145  1.6485 -0.8824
17195TIP3   OH272999   6.039   5.959   1.024 -0.1403  0.2247  0.0546
17195TIP3    H173000   6.093   5.925   0.952  0.1390  0.8098 -0.0227
17195TIP3    H273001   6.046   6.054   1.016 -0.5404  0.2992  0.5358
17196TIP3   OH273002   5.469   1.028   5.674 -0.2188 -0.5510 -0.3433
17196TIP3    H173003   5.554   1.005   5.638  0.4931  1.0701  0.1857
17196TIP3    H273004   5.468   0.989   5.761  0.5267  0.4710  0.1371
17197TIP3   OH273005   0.105   1.984   0.526  0.0972  0.1338 -0.3529
17197TIP3    H173006   0.027   1.979   0.581 -1.2097 -0.0291 -2.1402
17197TIP3    H273007   0.112   1.898   0.486  0.6694  0.4257 -0.8945
17198TIP3   OH273008   1.715   0.189  15.605  0.0856  0.4161 -0.1084
17198TIP3    H173009   1.775   0.204  15.678 -0.9912  0.8285  0.7258
17198TIP3    H273010   1.653   0.262  15.609 -0.3425  0.1291 -1.0846
17199TIP3   OH273011   3.664   3.643   0.954  0.0327  0.0701 -0.4341
17199TIP3    H173012   3.725   3.694   0.901  0.9834 -0.2487  0.3382
17199TIP3    H273013   3.587   3.700   0.963  0.5558  0.8280 -0.6890
17200TIP3   OH273014   2.016   0.413  15.671  0.5516  0.2962  0.3688
17200TIP3    H173015   1.968   0.431  15.590  1.5688  1.9739  0.1074
17200TIP3    H273016   2.085   0.351  15.644  0.3328  0.1437  0.1483
17201TIP3   OH273017   3.583   1.486   0.894  0.1392  0.0746  0.3129
17201TIP3    H173018   3.518   1.545   0.933 -0.6126 -0.3929 -0.1950
17201TIP3    H273019   3.530   1.415   0.857  0.9171 -0.0773 -0.5226
17202TIP3   OH273020   3.671   2.936  12.343 -0.7339 -0.0317 -0.2137
17202TIP3    H173021   3.732   2.919  12.415  1.4282  1.2058 -1.6280
17202TIP3    H273022   3.620   2.856  12.336  0.5688 -1.0592  1.2093
17203TIP3   OH273023   5.884   1.898   0.989  0.5948  0.0850  0.2876
17203TIP3    H173024   5.951   1.860   1.045 -1.5631 -2.2946  1.5046
17203TIP3    H273025   5.811   1.916   1.049 -1.2735 -1.1919 -1.4533
17204TIP3   OH273026   4.985   1.373   1.096 -0.1272  0.9123  0.1156
17204TIP3    H173027   4.930   1.301   1.125 -0.2901  0.4436 -1.2702
17204TIP3    H273028   4.940   1.452   1.125 -0.9680  0.5038 -0.0490
17205TIP3   OH273029   3.691   5.557   1.713  0.4058 -0.1361  0.3716
17205TIP3    H173030   3.712   5.500   1.788  1.7997  1.0171  0.9118
17205TIP3    H273031   3.777   5.580   1.676 -0.2194  0.1262 -0.9780
17206TIP3   OH273032   6.181   2.685  13.272 -0.3397  0.4844  0.9983
17206TIP3    H173033   6.239   2.700  13.346  0.7867 -2.5617  0.8591
17206TIP3    H273034   6.104   2.643  13.309  0.6143 -1.9059  0.4675
17207TIP3   OH273035   1.805   3.775  13.685 -0.3444 -0.1080 -0.9067
17207TIP3    H173036   1.771   3.702  13.736  1.0643 -0.3923 -0.3281
17207TIP3    H273037   1.769   3.853  13.729  2.7166 -0.2108  2.1446
17208TIP3   OH273038   3.233   1.504   0.852  0.7043  0.2794 -0.2373
17208TIP3    H173039   3.246   1.517   0.946 -0.2623 -0.7473  0.0763
17208TIP3    H273040   3.210   1.590   0.818  1.2127  0.6891  0.4459
17209TIP3   OH273041   4.696   5.798   5.240 -0.1482  0.3713  0.2107
17209TIP3    H173042   4.700   5.724   5.301 -0.9691  1.0012  1.0437
17209TIP3    H273043   4.650   5.866   5.288 -0.6172  0.9598 -1.0522
17210TIP3   OH273044   4.525   4.171   6.220  0.0850  0.0719  0.2188
17210TIP3    H173045   4.584   4.099   6.199  1.6589  0.8490  1.6757
17210TIP3    H273046   4.441   4.129   6.239  0.9099 -1.3829  0.8254
17211TIP3   OH273047   4.021   4.128   2.734 -0.0683 -0.4794 -0.4542
17211TIP3    H173048   4.047   4.066   2.666 -0.9656 -1.7651  0.3313
17211TIP3    H273049   3.925   4.120   2.739  0.0349 -1.0717  1.5312
17212TIP3   OH273050   3.166   5.075   4.266 -0.1751 -0.1458 -0.3330
17212TIP3    H173051   3.203   5.032   4.343  0.8267  0.0053 -0.7049
17212TIP3    H273052   3.239   5.125   4.230 -0.6923 -0.0184 -1.2369
17213TIP3   OH273053   6.396   1.566   3.173  0.8721  0.1426 -0.4754
17213TIP3    H173054   6.349   1.649   3.167  0.8230  0.1457 -0.0845
17213TIP3    H273055   6.327   1.500   3.174  0.8279  0.1788  0.7474
17214TIP3   OH273056   2.635   2.396  14.900  0.0158 -0.0218  0.6317
17214TIP3    H173057   2.591   2.405  14.984 -0.0203  1.6140  0.4740
17214TIP3    H273058   2.639   2.485  14.866 -3.5612 -0.9550 -2.9825
17215TIP3   OH273059   0.189   0.803   6.284  0.0252  0.0055  0.0851
17215TIP3    H173060   0.130   0.799   6.359  0.0966  0.2579  0.1552
17215TIP3    H273061   0.193   0.713   6.252  1.2183 -0.4077  1.3078
17216TIP3   OH273062   5.928   0.805   0.249  0.5111 -0.9502 -0.3264
17216TIP3    H173063   6.014   0.833   0.281  0.1200  0.7852 -0.6913
17216TIP3    H273064   5.915   0.855   0.168 -1.0009 -0.8716 -0.0642
17217TIP3   OH273065   3.532   4.259   3.308  0.0204 -0.1455  0.2141
17217TIP3    H173066   3.455   4.315   3.312  0.3333  0.3994 -0.9097
17217TIP3    H273067   3.498   4.171   3.325 -0.9831 -0.0117 -0.9291
17218TIP3   OH273068   5.419   2.193   0.574 -0.0430 -0.0036 -0.0969
17218TIP3    H173069   5.393   2.156   0.489  0.6443  0.7424 -0.6323
17218TIP3    H273070   5.498   2.145   0.598 -0.4974 -0.5466  0.3668
17219TIP3   OH273071   4.759   1.221   1.154 -0.2009 -0.2991 -0.2838
17219TIP3    H173072   4.810   1.148   1.120  0.1980  0.2524 -0.9040
17219TIP3    H273073   4.676   1.217   1.107  0.2997  0.3833 -1.2753
17220TIP3   OH273074   6.181   1.378   1.645  0.0243  0.4689  0.7999
17220TIP3    H173075   6.247   1.394   1.713  1.1266  1.4478 -0.4418
17220TIP3    H273076   6.126   1.457   1.646  0.6493  0.9412 -0.0604
17221TIP3   OH273077   6.570   5.346  17.222  0.4695  0.0879  0.2832
17221TIP3    H173078   6.550   5.338  17.315 -1.0130  1.7783  0.1724
17221TIP3    H273079   6.645   5.404  17.217  1.6540 -1.3550  0.4407
17222TIP3   OH273080   5.516   6.046  12.658 -0.1565 -0.7326  0.0773
17222TIP3    H173081   5.476   6.079  12.739  0.7956 -0.1451  0.3315
17222TIP3    H273082   5.471   5.963  12.640 -1.8520  0.1532  0.0392
17223TIP3   OH273083   5.441   0.142   3.112  0.2131 -0.1169 -0.1606
17223TIP3    H173084   5.439   0.067   3.171 -1.2911  1.9927  2.7241
17223TIP3    H273085   5.391   0.113   3.035  0.0649 -2.1783  0.6472
17224TIP3   OH273086   5.588   6.448   3.213  0.4085  0.1303 -0.0403
17224TIP3    H173087   5.618   6.427   3.301  0.4498 -0.3482 -0.1673
17224TIP3    H273088   5.667   6.478   3.168  0.7889 -1.4160 -0.4628
17225TIP3   OH273089   0.894   6.424   5.880  0.2201 -0.2871  0.6788
17225TIP3    H173090   0.920   6.490   5.816 -2.0624 -0.9152 -1.0308
17225TIP3    H273091   0.883   6.473   5.962  2.8805  0.5816  0.6005
17226TIP3   OH273092   3.713   1.869  10.655  0.2627  0.4188  0.0322
17226TIP3    H173093   3.703   1.826  10.739 -2.3706  0.6407 -0.0901
17226TIP3    H273094   3.744   1.957  10.676  1.1997 -0.0379  0.6149
17227TIP3   OH273095   0.445   5.049   3.419 -0.4298  0.0020 -0.5897
17227TIP3    H173096   0.460   5.142   3.434 -0.8943 -0.2126  1.6407
17227TIP3    H273097   0.468   5.007   3.503  0.0092 -1.9215 -1.6167
17228TIP3   OH273098   0.435   4.640  15.465 -0.6749 -0.6316  0.3382
17228TIP3    H173099   0.494   4.647  15.390 -1.2834  1.9283 -0.0288
17228TIP3    H273100   0.356   4.598  15.430 -0.5423 -0.4424 -0.2016
17229TIP3   OH273101   1.194   5.594  13.463  0.5184  0.3599  0.1275
17229TIP3    H173102   1.124   5.591  13.527  1.0668  1.9814  0.8694
17229TIP3    H273103   1.248   5.517  13.482 -1.0361 -0.9444 -0.5013
17230TIP3   OH273104   2.270   3.676  11.138  0.3796 -0.2556  0.3786
17230TIP3    H173105   2.320   3.711  11.212  0.1364 -0.1614  0.5000
17230TIP3    H273106   2.327   3.611  11.099  0.0497 -1.1709  1.3723
17231TIP3   OH273107   2.885   6.089  15.803 -0.1356 -0.3641  0.0859
17231TIP3    H173108   2.935   6.168  15.822 -0.1224 -0.3928  0.1715
17231TIP3    H273109   2.888   6.081  15.708  2.2587 -1.8179  0.2178
17232TIP3   OH273110   4.555   4.956  14.981  0.4068 -0.4832 -0.5195
17232TIP3    H173111   4.575   4.947  14.888 -0.8683  0.0536 -0.8616
17232TIP3    H273112   4.483   5.018  14.985  0.8253 -0.0384  0.8828
17233TIP3   OH273113   3.110   5.498  16.012  0.1357  0.9053 -0.1731
17233TIP3    H173114   3.081   5.502  15.921 -1.2891  0.6800  0.2477
17233TIP3    H273115   3.109   5.405  16.034  0.4609  0.9592  0.0826
17234TIP3   OH273116   4.370   0.248   6.547  0.0863 -0.0015  0.1735
17234TIP3    H173117   4.308   0.177   6.533  1.8088 -2.5268  3.7071
17234TIP3    H273118   4.454   0.212   6.518  0.5625  1.8613 -0.9013
17235TIP3   OH273119   3.008   4.193  17.084  0.2957  0.3410 -0.4242
17235TIP3    H173120   3.017   4.120  17.145 -0.8390  0.4382 -0.1116
17235TIP3    H273121   2.924   4.177  17.041 -0.3250  1.8188  0.1615
17236TIP3   OH273122   0.338   1.787   3.017 -0.1852 -0.2094 -0.4933
17236TIP3    H173123   0.362   1.841   3.092 -1.9457 -0.6242  0.4290
17236TIP3    H273124   0.415   1.787   2.961  1.5817 -0.7412  1.8100
17237TIP3   OH273125   2.904   1.912   3.730 -0.2203 -0.1740 -0.9462
17237TIP3    H173126   2.865   1.989   3.687 -0.3547  0.9212  1.0301
17237TIP3    H273127   2.942   1.862   3.658  1.4903  2.6712 -2.2120
17238TIP3   OH273128   1.286   2.358   1.181  0.1033  0.7212 -0.1204
17238TIP3    H173129   1.202   2.386   1.216 -0.5876 -1.0110 -0.2915
17238TIP3    H273130   1.272   2.356   1.086  0.4243  0.6826 -0.1670
17239TIP3   OH273131   1.787   2.375   2.576 -0.5069 -0.1702 -0.0488
17239TIP3    H173132   1.736   2.332   2.643 -0.8616  1.0808  0.5071
17239TIP3    H273133   1.779   2.468   2.594  2.1443  0.1027  0.2152
17240TIP3   OH273134   4.764   4.899  14.035  1.1019 -0.1560  0.0050
17240TIP3    H173135   4.711   4.913  13.956 -0.6148  1.3405  1.3344
17240TIP3    H273136   4.725   4.822  14.077 -0.4447  1.2377  1.2389
17241TIP3   OH273137   4.949   6.601   2.155 -0.2180 -0.1017 -0.0178
17241TIP3    H173138   4.984   6.572   2.071 -0.1256  0.6723 -0.2481
17241TIP3    H273139   4.854   6.595   2.144 -0.2705  1.7196 -0.8156
17242TIP3   OH273140   4.549   1.687  12.455 -0.2862  0.7313 -0.4356
17242TIP3    H173141   4.619   1.665  12.393 -0.0039  0.8391 -0.1565
17242TIP3    H273142   4.514   1.602  12.483  0.6530  0.6261  0.4742
17243TIP3   OH273143   0.979   4.334   5.773 -0.2887  0.2491  0.2832
17243TIP3    H173144   0.888   4.363   5.758 -0.1884 -0.3626 -1.8502
17243TIP3    H273145   1.023   4.412   5.807 -0.6048  2.0371 -2.9883
17244TIP3   OH273146   4.747   4.749   6.484  0.6762 -0.5132  0.2420
17244TIP3    H173147   4.840   4.732   6.474  1.4378  1.3070  3.1453
17244TIP3    H273148   4.712   4.669   6.525  1.0217 -1.0088 -0.4148
17245TIP3   OH273149   2.006   3.678   5.496  0.1271  0.0921 -0.4384
17245TIP3    H173150   2.058   3.756   5.475 -0.5128  0.4513 -0.7107
17245TIP3    H273151   2.047   3.607   5.446  0.0421  0.4779 -1.0718
17246TIP3   OH273152   2.064   2.377  11.451 -0.0577 -0.2475 -0.6486
17246TIP3    H173153   2.031   2.447  11.395 -0.5220  1.7525  1.9420
17246TIP3    H273154   2.157   2.371  11.428 -0.1962  0.6148 -1.5297
17247TIP3   OH273155   4.044   3.889  13.788  0.1295 -0.0157  0.4387
17247TIP3    H173156   4.078   3.882  13.877  0.0339 -0.4505  0.4471
17247TIP3    H273157   4.028   3.982  13.775 -0.5004 -0.0145  1.1244
17248TIP3   OH273158   1.155   2.311   2.531 -0.6417 -0.0029 -0.3150
17248TIP3    H173159   1.203   2.228   2.533 -0.6257 -0.0258 -1.2171
17248TIP3    H273160   1.201   2.366   2.595 -0.4337 -0.5631  0.0313
17249TIP3   OH273161   0.519   2.861  12.416  0.1079 -0.2205 -0.6988
17249TIP3    H173162   0.584   2.845  12.347  1.8946  1.2397  0.5700
17249TIP3    H273163   0.455   2.919  12.376  1.2113  0.7399 -1.1116
17250TIP3   OH273164   5.903   1.433   0.385 -0.0084  0.0314 -0.0610
17250TIP3    H173165   5.847   1.456   0.459 -0.2058 -1.7214  0.3770
17250TIP3    H273166   5.842   1.420   0.312  0.0956  0.7708 -0.2879
17251TIP3   OH273167   0.160   2.046   5.294 -0.4161 -0.1765  0.3093
17251TIP3    H173168   0.209   1.970   5.264 -0.2554  0.1351 -0.2288
17251TIP3    H273169   0.079   2.044   5.243 -0.5224 -0.1232  0.4728
17252TIP3   OH273170   6.431   1.809  14.262 -0.0237  0.1466  0.3451
17252TIP3    H173171   6.374   1.793  14.338  0.5499 -0.6864  0.6184
17252TIP3    H273172   6.490   1.733  14.261  1.8948  1.5594  0.8041
17253TIP3   OH273173   3.048   6.631   1.943  0.0129 -0.2479 -0.2818
17253TIP3    H173174   3.064   6.713   1.896  2.3076 -0.9391 -0.8447
17253TIP3    H273175   2.999   6.577   1.881  0.6988 -0.1807 -0.9047
17254TIP3   OH273176   3.611   4.094   2.147  0.1067 -0.4045 -0.0348
17254TIP3    H173177   3.547   4.143   2.199  0.4465  0.9873 -0.8667
17254TIP3    H273178   3.639   4.156   2.080  1.2110 -1.4865 -0.6072
17255TIP3   OH273179   2.708   0.726  11.648 -0.6574  0.0831  0.5564
17255TIP3    H173180   2.651   0.781  11.594 -0.0136  0.0462 -0.1807
17255TIP3    H273181   2.714   0.772  11.731 -0.6360  0.8100  0.1640
17256TIP3   OH273182   1.181   6.117   4.119  0.5863  0.3973  0.6387
17256TIP3    H173183   1.175   6.184   4.187  0.8867  1.7416 -0.6189
17256TIP3    H273184   1.099   6.068   4.127  0.0224  1.3820  1.1082
17257TIP3   OH273185   0.161   0.237   2.830  0.0595 -0.1515  0.2987
17257TIP3    H173186   0.168   0.308   2.766 -1.8601  0.4434  0.6931
17257TIP3    H273187   0.074   0.248   2.868  0.4513 -1.6161  1.6955
17258TIP3   OH273188   1.535   2.451  12.871 -0.1571 -0.3465 -0.2885
17258TIP3    H173189   1.441   2.453  12.888  0.2940  0.7558  2.5740
17258TIP3    H273190   1.557   2.357  12.868 -1.0482 -0.6337  1.2095
17259TIP3   OH273191   2.498   4.876  16.697 -0.6290 -0.5630 -0.0554
17259TIP3    H173192   2.537   4.831  16.622 -0.9870 -0.2655 -0.4303
17259TIP3    H273193   2.414   4.907  16.664  0.2780  1.7983 -0.3366
17260TIP3   OH273194   6.648   1.154   3.735 -0.0259  0.2834 -0.4539
17260TIP3    H173195   6.572   1.171   3.790 -1.6222  0.3414 -2.5768
17260TIP3    H273196   6.713   1.119   3.796 -1.3388  1.2043  1.6181
17261TIP3   OH273197   0.365   5.183  13.784 -0.6965  0.6716 -0.1154
17261TIP3    H173198   0.341   5.275  13.776  4.2939  2.1692 -1.9052
17261TIP3    H273199   0.365   5.150  13.695 -1.3741 -0.8113  0.4006
17262TIP3   OH273200   5.976   3.248   5.491  0.1509 -0.2874  0.2117
17262TIP3    H173201   5.948   3.289   5.573 -3.2619 -2.9329  0.6217
17262TIP3    H273202   5.931   3.299   5.423 -1.3690 -1.2295  0.4665
17263TIP3   OH273203   0.021   5.984   4.099  0.4464 -0.3611 -0.0327
17263TIP3    H173204   0.068   5.994   4.017  0.7568  2.0694  0.3584
17263TIP3    H273205  -0.053   6.045   4.092  0.6933  0.1837  1.6096
17264TIP3   OH273206   6.547   2.095   2.748 -0.6517 -0.3522 -0.0598
17264TIP3    H173207   6.629   2.139   2.771 -1.5656 -0.6063  4.8313
17264TIP3    H273208   6.564   2.003   2.767 -1.8027 -0.5121  0.2318
17265TIP3   OH273209   0.610   4.854   2.493 -0.5382 -0.1363 -0.9771
17265TIP3    H173210   0.655   4.769   2.487 -0.1302  0.0721 -0.9481
17265TIP3    H273211   0.675   4.917   2.463 -0.2298  0.3564  0.6148
17266TIP3   OH273212   0.195   4.463   1.470 -0.0325  0.0858 -0.4275
17266TIP3    H173213   0.262   4.516   1.513  0.9592  1.0402 -2.9420
17266TIP3    H273214   0.244   4.391   1.430 -0.9615 -0.9737  0.2737
17267TIP3   OH273215   4.389   1.505   0.416  0.5004  0.2147 -0.9182
17267TIP3    H173216   4.375   1.594   0.448 -0.1834 -0.2606  0.1650
17267TIP3    H273217   4.380   1.512   0.321 -0.7774  1.0995 -0.7550
17268TIP3   OH273218   2.202   3.765   3.713 -0.7869  0.2074 -0.1447
17268TIP3    H173219   2.180   3.804   3.628  0.0528  0.0643 -0.4306
17268TIP3    H273220   2.218   3.673   3.693  0.0963  0.3127  0.0501
17269TIP3   OH273221   1.028   5.716  12.922 -0.9913  0.6171  0.4261
17269TIP3    H173222   1.048   5.771  12.998  1.7069  1.3017 -0.6791
17269TIP3    H273223   0.960   5.766  12.875 -2.8807  0.0670  2.3974
17270TIP3   OH273224   6.139   1.484  16.167 -0.8911  0.1502  0.0406
17270TIP3    H173225   6.093   1.471  16.250  1.9388  1.6381  2.0217
17270TIP3    H273226   6.175   1.398  16.147  0.4246  0.2417  1.7562
17271TIP3   OH273227   3.645   5.742   1.097 -0.6246  0.9045 -0.1113
17271TIP3    H173228   3.648   5.807   1.167 -2.7925  1.5811 -0.5610
17271TIP3    H273229   3.560   5.698   1.109  0.6669 -1.7235  0.0297
17272TIP3   OH273230   5.634   0.602  14.681 -0.0172 -0.4951 -0.1423
17272TIP3    H173231   5.710   0.659  14.678  0.3135 -0.9649 -1.0966
17272TIP3    H273232   5.602   0.609  14.771  1.5946 -0.8751  0.4890
17273TIP3   OH273233   5.561   1.043   0.860  0.3332 -0.3221  0.5302
17273TIP3    H173234   5.644   1.052   0.908  0.4336  0.5169  0.2244
17273TIP3    H273235   5.565   1.112   0.793 -0.3711 -0.6379  0.1550
17274TIP3   OH273236   2.635   4.436  12.330 -0.0098  0.0580 -0.0371
17274TIP3    H173237   2.636   4.532  12.334 -1.7250  0.0977  0.0545
17274TIP3    H273238   2.708   4.414  12.272  1.2515  1.3407  0.9766
17275TIP3   OH273239   3.257   5.297   3.480 -0.6734 -0.1664  0.1447
17275TIP3    H173240   3.223   5.311   3.391  0.5408  1.5315 -0.1005
17275TIP3    H273241   3.345   5.261   3.467 -0.5013  0.0564  0.6529
17276TIP3   OH273242   0.858   5.916  11.688 -0.1436 -0.2866  0.5207
17276TIP3    H173243   0.773   5.878  11.664  0.1648  0.0546 -1.2620
17276TIP3    H273244   0.862   5.907  11.783 -1.9579 -0.7550  0.5967
17277TIP3   OH273245   6.144   5.307  11.774  0.1967 -0.2315  0.4462
17277TIP3    H173246   6.180   5.336  11.690  0.1236  1.9178  1.0880
17277TIP3    H273247   6.156   5.383  11.832  0.8868 -1.8686  2.5876
17278TIP3   OH273248   5.237   5.661   4.724  0.1900 -0.3510 -0.1983
17278TIP3    H173249   5.151   5.644   4.685  0.4172  1.0814 -1.3722
17278TIP3    H273250   5.220   5.725   4.793  0.4368  0.7197 -1.1125
17279TIP3   OH273251   2.966   4.054  13.293 -0.5866  0.2900  0.7139
17279TIP3    H173252   2.984   4.142  13.261  0.1374  0.4209  1.4680
17279TIP3    H273253   2.990   3.997  13.220 -0.7845  0.6896  0.3284
17280TIP3   OH273254   4.769   0.698  15.604  0.0665 -0.1836  0.3812
17280TIP3    H173255   4.844   0.682  15.548 -0.8589 -0.8857 -0.6991
17280TIP3    H273256   4.798   0.767  15.664  1.1707  0.3917 -0.7809
17281TIP3   OH273257   0.340   5.407  16.671  0.6639 -0.7462 -0.3803
17281TIP3    H173258   0.367   5.415  16.762  0.1737 -0.9038 -0.2197
17281TIP3    H273259   0.339   5.496  16.638  3.1946 -0.8349 -0.9329
17282TIP3   OH273260   2.294   2.679  15.432 -1.0374 -0.5162  0.0229
17282TIP3    H173261   2.268   2.602  15.482 -1.7301 -0.1394  0.2502
17282TIP3    H273262   2.369   2.715  15.480 -0.6937 -1.0518 -0.0986
17283TIP3   OH273263   3.304   2.791  12.838  0.9250  0.3804  0.1555
17283TIP3    H173264   3.317   2.813  12.745 -0.5069  0.2053 -0.1070
17283TIP3    H273265   3.272   2.872  12.877 -1.1564 -0.2445 -0.1185
17284TIP3   OH273266   0.628   0.124   5.864  0.1045  0.0966  0.2493
17284TIP3    H173267   0.560   0.057   5.858 -0.2444  0.5165 -0.7728
17284TIP3    H273268   0.676   0.103   5.944 -1.8648  0.3875  1.5705
17285TIP3   OH273269   6.251   1.562   3.600  0.5478  0.0884  0.0955
17285TIP3    H173270   6.227   1.487   3.547 -1.5943 -0.8028  2.1075
17285TIP3    H273271   6.224   1.638   3.548  1.8966 -0.5274 -1.5692
17286TIP3   OH273272   0.149   4.696   0.511 -0.5373  0.0416  0.2863
17286TIP3    H173273   0.057   4.672   0.523 -1.0918  2.3587  1.1602
17286TIP3    H273274   0.149   4.757   0.438  0.5800 -1.1958 -0.7945
17287TIP3   OH273275   5.934   1.129   3.511  0.3374  0.0671 -0.4699
17287TIP3    H173276   5.996   1.102   3.442  2.0060  2.3035  0.0318
17287TIP3    H273277   5.913   1.220   3.490 -2.0879 -0.3346 -0.0485
17288TIP3   OH273278   0.981   1.129   2.943 -0.5181  0.3040 -0.2692
17288TIP3    H173279   0.933   1.083   3.012  2.4237 -0.1977  1.6160
17288TIP3    H273280   1.003   1.214   2.982  3.0227 -0.7670  0.4711
17289TIP3   OH273281   0.834   0.290  14.417  0.5471  0.5056 -0.7754
17289TIP3    H173282   0.852   0.383  14.430 -2.3649  0.7425  3.8288
17289TIP3    H273283   0.754   0.288  14.364 -1.1311  0.9675  1.5768
17290TIP3   OH273284   3.233   0.109  15.715  0.5641  0.4262 -0.0875
17290TIP3    H173285   3.250   0.018  15.691 -2.8586 -0.2082 -0.7358
17290TIP3    H273286   3.312   0.138  15.760  1.9288 -2.7260 -0.2168
17291TIP3   OH273287   2.991   5.479  12.255 -0.2135 -0.0421  0.0034
17291TIP3    H173288   2.978   5.393  12.295  1.1747 -0.5656 -0.5880
17291TIP3    H273289   2.925   5.535  12.295 -2.4302 -1.8037 -0.9341
17292TIP3   OH273290   0.902   1.573   5.409  0.7721 -0.0539 -0.3318
17292TIP3    H173291   0.833   1.535   5.464  1.1176 -0.9557 -0.5046
17292TIP3    H273292   0.951   1.630   5.469 -0.9124  1.6923 -0.5047
17293TIP3   OH273293   6.494   3.802   1.136  0.4104 -0.0097  0.5044
17293TIP3    H173294   6.588   3.809   1.115  0.5391 -0.1927  1.0028
17293TIP3    H273295   6.480   3.869   1.203  0.1602  0.0848  0.3568
17294TIP3   OH273296   5.487   0.593   3.995  0.2504 -0.3428 -0.2735
17294TIP3    H173297   5.452   0.534   4.062  0.2464  0.9083  0.8727
17294TIP3    H273298   5.483   0.680   4.035  2.4948  0.1526 -0.9896
17295TIP3   OH273299   4.366   3.865   3.316  0.1023 -0.0100  0.1160
17295TIP3    H173300   4.445   3.870   3.370 -0.3282  0.3158  0.7280
17295TIP3    H273301   4.306   3.809   3.365  0.1532 -0.7402 -0.6257
17296TIP3   OH273302   0.450   3.444   3.072  0.3710  0.1638  0.0408
17296TIP3    H173303   0.414   3.427   2.985  0.8363 -0.6732 -0.0015
17296TIP3    H273304   0.392   3.510   3.110  0.5702  1.0587 -1.1685
17297TIP3   OH273305   2.086   2.360  12.032  0.1209 -0.1063  0.0002
17297TIP3    H173306   2.131   2.319  12.106  0.5853 -1.1748 -0.8436
17297TIP3    H273307   2.153   2.417  11.993 -0.2318  0.7326  0.6012
17298TIP3   OH273308   0.464   4.822   0.716  0.0367  0.2998 -0.0006
17298TIP3    H173309   0.535   4.885   0.727 -0.5069  0.8316  0.5498
17298TIP3    H273310   0.384   4.875   0.719 -0.6094 -0.6269  3.2597
17299TIP3   OH273311   0.058   2.272  15.232 -0.4187  0.0834  0.1349
17299TIP3    H173312   0.076   2.261  15.325 -0.4052 -1.0815  0.0088
17299TIP3    H273313   0.134   2.321  15.199  0.1772 -0.5752  0.5075
17300TIP3   OH273314   3.467   0.040  16.766  0.4661  0.5642  0.1971
17300TIP3    H173315   3.518  -0.019  16.821  0.1769 -0.9817 -1.1207
17300TIP3    H273316   3.526   0.113  16.748  2.0549 -0.8841 -0.8042
17301TIP3   OH273317   6.091   0.204   0.168 -0.0590 -0.2212  0.0944
17301TIP3    H173318   6.040   0.213   0.087 -0.9422  1.5897  0.8087
17301TIP3    H273319   6.026   0.190   0.236  0.4405  1.1018  0.8811
17302TIP3   OH273320   1.130   2.599  15.012  0.2849  0.0995  0.1836
17302TIP3    H173321   1.211   2.643  14.985 -0.1773  0.0792 -1.3626
17302TIP3    H273322   1.151   2.506  15.010  0.7009  0.1431  1.5223
17303TIP3   OH273323   1.614   0.837  16.735 -0.7201  0.6678 -0.2295
17303TIP3    H173324   1.554   0.908  16.757 -0.6433  0.4022  0.8986
17303TIP3    H273325   1.558   0.761  16.722 -0.6460  0.4364  0.7531
17304TIP3   OH273326   3.048   5.042  14.994  0.5163 -0.4013  0.6721
17304TIP3    H173327   3.110   5.100  14.951 -0.2596 -0.3359 -0.3982
17304TIP3    H273328   3.093   4.957  14.998 -0.1173 -0.9832 -2.2302
17305TIP3   OH273329   3.907   1.921  14.385  0.3755  0.7569  0.3170
17305TIP3    H173330   3.904   1.920  14.481 -1.9576 -1.9233  0.3653
17305TIP3    H273331   3.815   1.927  14.359  1.0259  2.6390 -1.8513
17306TIP3   OH273332   3.935   3.036  15.263 -0.5995 -0.1544  0.3616
17306TIP3    H173333   3.938   2.947  15.228 -1.1109 -0.4058  0.9589
17306TIP3    H273334   3.910   3.090  15.188 -0.3549 -0.5181  0.0128
17307TIP3   OH273335   2.033   4.746   5.952  0.0133  0.1684 -0.0525
17307TIP3    H173336   2.102   4.739   6.018 -1.4792 -1.7737  1.4153
17307TIP3    H273337   2.079   4.733   5.869  1.6855  0.8912  0.7159
17308TIP3   OH273338   0.450   6.324   0.945 -0.5633 -0.1623 -0.2095
17308TIP3    H173339   0.358   6.332   0.919 -0.4884  0.5336 -0.2983
17308TIP3    H273340   0.490   6.406   0.914  0.4423 -1.1359 -1.6287
17309TIP3   OH273341   3.497   0.266  16.421  0.3074  0.0256  0.4661
17309TIP3    H173342   3.587   0.242  16.401  0.0437  0.2158 -1.0450
17309TIP3    H273343   3.503   0.320  16.500  1.7335  1.7150 -0.7452
17310TIP3   OH273344   4.943   5.319  16.140  0.2131  0.0804  0.1266
17310TIP3    H173345   5.025   5.281  16.109  1.0686  1.0871  1.0624
17310TIP3    H273346   4.904   5.361  16.063 -0.2129 -1.7142 -0.6691
17311TIP3   OH273347   0.955   2.249  10.375  0.7510  0.4967 -0.4466
17311TIP3    H173348   0.927   2.175  10.429  1.5551  0.2617 -0.3366
17311TIP3    H273349   0.876   2.303  10.366  0.0523 -0.5483 -0.8371
17312TIP3   OH273350   3.993   6.393   3.117 -0.2398  0.0694 -0.0296
17312TIP3    H173351   3.921   6.331   3.110 -0.2920  0.1126  0.1403
17312TIP3    H273352   4.062   6.345   3.164 -0.9359  0.7265  1.7348
17313TIP3   OH273353   0.079   0.061   5.030 -0.2483  0.1600  0.5077
17313TIP3    H173354   0.062   0.045   5.123 -0.9255  1.1052  0.5611
17313TIP3    H273355   0.143  -0.005   5.006  1.0137  0.7661  1.9918
17314TIP3   OH273356   2.558   0.019   6.769 -0.4776 -0.0888  0.6922
17314TIP3    H173357   2.615   0.095   6.764 -1.5574  0.7069  0.0254
17314TIP3    H273358   2.611  -0.054   6.737 -0.4041  0.9721 -1.8330
17315TIP3   OH273359   2.865   0.285  15.007  0.1702  0.5779  0.4204
17315TIP3    H173360   2.902   0.373  15.009  0.9017  0.2872  0.1287
17315TIP3    H273361   2.939   0.228  15.030 -0.0906 -0.0156 -0.1898
17316TIP3   OH273362   1.344   4.879  12.739  0.5327 -0.1059 -0.1862
17316TIP3    H173363   1.249   4.872  12.740  0.5560 -1.6907  2.7538
17316TIP3    H273364   1.363   4.969  12.766 -0.0312  0.7393 -2.3756
17317TIP3   OH273365   5.377   4.610   0.692 -0.2503 -0.6028 -0.0087
17317TIP3    H173366   5.302   4.553   0.671 -1.7788  1.3606 -0.1344
17317TIP3    H273367   5.433   4.605   0.615 -1.1107 -0.7962 -0.6340
17318TIP3   OH273368   1.544   5.761  15.685  0.3294  0.2045  0.5131
17318TIP3    H173369   1.539   5.726  15.774  2.6357 -1.2072  0.1776
17318TIP3    H273370   1.638   5.777  15.671 -0.1971  2.4009 -0.9562
17319TIP3   OH273371   0.544   5.360  14.013  0.5932  0.9134 -0.1297
17319TIP3    H173372   0.472   5.306  14.046  1.2856 -1.1865 -1.8328
17319TIP3    H273373   0.503   5.417  13.948  0.5302 -0.8378 -1.6862
17320TIP3   OH273374   6.073   2.266   1.289 -0.3124 -0.7999  0.2785
17320TIP3    H173375   6.068   2.317   1.370 -0.1631 -1.4902  0.7239
17320TIP3    H273376   6.002   2.203   1.295 -1.9525  0.7810 -1.3033
17321TIP3   OH273377   4.535   3.166   0.267 -0.4068 -0.4797  0.0341
17321TIP3    H173378   4.474   3.238   0.285  0.7851  0.5159  0.1752
17321TIP3    H273379   4.580   3.151   0.349  0.9829  0.1876 -0.5813
17322TIP3   OH273380   5.183   6.726   3.896  0.1018  0.5244  0.0157
17322TIP3    H173381   5.232   6.790   3.948  0.3643 -0.5697  1.1640
17322TIP3    H273382   5.213   6.641   3.929 -0.7778 -0.1877 -0.9683
17323TIP3   OH273383   6.512   1.484   4.649  0.0207 -0.1602 -0.1469
17323TIP3    H173384   6.418   1.499   4.648  0.0603  0.1047  0.0957
17323TIP3    H273385   6.549   1.555   4.595 -0.1140 -1.6883 -2.4031
17324TIP3   OH273386   5.221   3.104   5.580  0.7283  0.3405 -0.1419
17324TIP3    H173387   5.219   3.020   5.625  1.2642  0.6801  0.5314
17324TIP3    H273388   5.199   3.169   5.647 -0.4020  0.6835 -0.8190
17325TIP3   OH273389   6.360   4.357  13.832 -0.0423 -0.1859 -0.5206
17325TIP3    H173390   6.406   4.420  13.778  0.9375  0.2820  0.8004
17325TIP3    H273391   6.419   4.342  13.907 -0.2208 -2.6764 -0.7924
17326TIP3   OH273392   1.569   4.135   4.339 -0.3207 -0.0163 -0.3445
17326TIP3    H173393   1.498   4.072   4.324  0.0886 -1.2637  2.3056
17326TIP3    H273394   1.598   4.160   4.251 -1.8351 -2.0162 -1.5072
17327TIP3   OH273395   5.377   3.579  12.855 -0.6850  0.0556  0.6280
17327TIP3    H173396   5.438   3.651  12.869  0.3386 -0.8354  0.8958
17327TIP3    H273397   5.347   3.590  12.765  0.2644  0.2281  0.3155
17328TIP3   OH273398   5.613   3.745  17.038 -0.6025  0.1212  0.4088
17328TIP3    H173399   5.680   3.692  16.995 -0.4866  1.8883 -1.7556
17328TIP3    H273400   5.531   3.699  17.020 -0.2566 -0.7685  1.0015
17329TIP3   OH273401   5.957   1.377   6.090  0.2752  0.3534 -0.5066
17329TIP3    H173402   5.875   1.378   6.139  0.7032 -3.1495  0.5635
17329TIP3    H273403   5.930   1.387   5.999 -1.3546 -0.3020 -0.1396
17330TIP3   OH273404   4.307   4.127   6.367  0.4219 -0.1786 -0.4233
17330TIP3    H173405   4.249   4.163   6.300  1.0344  0.8044 -0.4416
17330TIP3    H273406   4.345   4.203   6.410  1.3748 -0.8036 -0.1232
17331TIP3   OH273407   4.835   0.776   0.853 -0.6673 -0.4150  0.9506
17331TIP3    H173408   4.871   0.695   0.891 -0.1910 -0.4253  0.4871
17331TIP3    H273409   4.759   0.747   0.804  1.3244 -1.1280 -1.9910
17332TIP3   OH273410   6.513   2.852  12.878  0.1206  0.2732 -0.0756
17332TIP3    H173411   6.516   2.762  12.844  0.0028 -0.0557  0.7520
17332TIP3    H273412   6.444   2.850  12.944  0.0800  0.9900 -0.0945
17333TIP3   OH273413   4.437   3.300   5.437 -0.5103 -0.3643  0.3587
17333TIP3    H173414   4.412   3.393   5.444  0.1299 -0.2741  1.7557
17333TIP3    H273415   4.514   3.292   5.494 -0.4258 -1.7091  0.0708
17334TIP3   OH273416   1.936   3.097  10.850  0.0090 -0.3011 -0.1861
17334TIP3    H173417   1.907   3.025  10.795  2.4353 -0.7662 -0.9754
17334TIP3    H273418   2.011   3.134  10.804 -0.3192  1.8707  0.8917
17335TIP3   OH273419   3.784   1.560  14.188 -0.0576  0.0694  0.2921
17335TIP3    H173420   3.702   1.583  14.144  0.9193  2.9572 -0.2261
17335TIP3    H273421   3.779   1.604  14.272 -0.4021 -2.5520  1.7376
17336TIP3   OH273422   4.832   2.907   2.177  0.2347 -0.1535  0.4184
17336TIP3    H173423   4.781   2.854   2.115 -1.4472  0.3650  1.3041
17336TIP3    H273424   4.903   2.943   2.125  0.5946 -2.1128 -0.5371
17337TIP3   OH273425   0.422   1.904  13.068 -0.2371  0.2802 -0.1120
17337TIP3    H173426   0.415   1.981  13.011 -0.7274 -0.2006 -0.7234
17337TIP3    H273427   0.460   1.836  13.012 -0.8476 -0.2381  0.0899
17338TIP3   OH273428   5.419   3.114   1.821  0.2388 -0.5286  0.4985
17338TIP3    H173429   5.411   3.066   1.903 -1.7005 -1.0200  0.0674
17338TIP3    H273430   5.362   3.067   1.760  0.8707  0.3985 -0.8684
17339TIP3   OH273431   1.370   5.864  17.068  0.2026 -0.0892 -0.2370
17339TIP3    H173432   1.341   5.953  17.044  1.0129  0.2552  0.0471
17339TIP3    H273433   1.419   5.876  17.149  0.4314 -0.7843 -0.2678
17340TIP3   OH273434   1.375   2.038  10.539 -0.6606  0.0513 -0.2391
17340TIP3    H173435   1.382   2.089  10.458  0.2242  1.9697  0.9806
17340TIP3    H273436   1.287   2.056  10.571 -1.3653 -1.4727 -1.2035
17341TIP3   OH273437   2.261   6.517  13.075 -0.3803  0.2072  0.5185
17341TIP3    H173438   2.299   6.430  13.076  0.5378  0.6024  0.4446
17341TIP3    H273439   2.170   6.503  13.046 -1.0891 -1.0404  3.0179
17342TIP3   OH273440   5.617   4.643   0.858  1.1312  0.0407 -0.0858
17342TIP3    H173441   5.533   4.642   0.812  0.8949  0.0620  0.3377
17342TIP3    H273442   5.670   4.708   0.811  1.2332 -0.6276 -0.9122
17343TIP3   OH273443   6.618   3.143  16.011 -0.0691  1.0119  0.1759
17343TIP3    H173444   6.613   3.078  16.082  0.6893  0.8350  0.0772
17343TIP3    H273445   6.536   3.133  15.964  1.4637 -2.6692 -2.1908
17344TIP3   OH273446   5.877   0.542  14.474 -0.0163 -0.1379  0.0195
17344TIP3    H173447   5.833   0.571  14.395  1.9692 -1.1457 -1.5348
17344TIP3    H273448   5.824   0.469  14.506 -0.9414  0.4119 -0.2164
17345TIP3   OH273449   2.353   2.454  13.668 -0.0475  0.1755  0.0970
17345TIP3    H173450   2.353   2.538  13.714 -1.1095 -0.8324  2.0119
17345TIP3    H273451   2.407   2.396  13.722 -1.2264 -1.0125  0.0503
17346TIP3   OH273452   5.163   3.683   1.703 -0.2669  0.3620 -0.3641
17346TIP3    H173453   5.098   3.614   1.698  0.5924 -0.4229 -1.4066
17346TIP3    H273454   5.117   3.762   1.674 -1.9080  0.8314  3.0289
17347TIP3   OH273455   1.533   6.559  14.824 -0.2450 -0.6395 -0.0019
17347TIP3    H173456   1.446   6.591  14.801  0.2306  2.1984  1.7336
17347TIP3    H273457   1.593   6.628  14.797  1.2412 -1.4893  0.9560
17348TIP3   OH273458   0.669   2.948   3.059 -0.3250  0.2890 -0.3330
17348TIP3    H173459   0.709   2.969   3.143 -1.7839 -0.6152  0.6452
17348TIP3    H273460   0.740   2.956   2.996  1.0184  0.2174  1.0908
17349TIP3   OH273461   6.642   6.302  11.468 -0.3579  0.0543 -0.1428
17349TIP3    H173462   6.608   6.274  11.384  2.3789 -2.9961 -0.4317
17349TIP3    H273463   6.708   6.368  11.446  1.0479 -1.4378 -0.5746
17350TIP3   OH273464   0.558   0.780   0.240  0.0582  0.6600  0.0121
17350TIP3    H173465   0.542   0.731   0.160 -1.4346  0.7367  0.2425
17350TIP3    H273466   0.596   0.863   0.211 -0.2578  0.5922 -0.5998
17351TIP3   OH273467   1.142   4.006  11.406  0.1098  1.0184 -0.0758
17351TIP3    H173468   1.141   4.080  11.466 -0.1511  2.4953 -1.7930
17351TIP3    H273469   1.056   4.010  11.362 -1.0851 -2.0235  1.7086
17352TIP3   OH273470   0.688   0.816   5.115 -0.2757 -0.4840  0.7447
17352TIP3    H173471   0.717   0.906   5.128  2.2481 -1.0427 -0.3971
17352TIP3    H273472   0.618   0.823   5.050  0.8581  0.5625 -0.4190
17353TIP3   OH273473   5.451   6.454   0.054  0.2799  0.1724  0.1628
17353TIP3    H173474   5.419   6.545   0.047  0.2726  0.1048 -0.7873
17353TIP3    H273475   5.536   6.455   0.012  0.0374 -0.3820 -0.3510
17354TIP3   OH273476   6.558   0.578  16.595 -0.2445 -0.3443  0.1500
17354TIP3    H173477   6.513   0.582  16.679 -1.8254  0.4562 -0.6858
17354TIP3    H273478   6.495   0.536  16.536  0.8080 -0.8370 -0.6618
17355TIP3   OH273479   0.397   0.598   4.070 -0.9818 -0.5310  0.1213
17355TIP3    H173480   0.384   0.603   3.976 -1.5028  1.3300  0.2497
17355TIP3    H273481   0.344   0.670   4.106  1.6292  0.8453  1.5557
17356TIP3   OH273482   3.138   6.649  12.218 -0.3602 -0.0528  0.2266
17356TIP3    H173483   3.193   6.598  12.160  0.5181 -0.6918  1.5672
17356TIP3    H273484   3.070   6.685  12.162  1.0770  0.2736 -1.3660
17357TIP3   OH273485   6.200   4.842   5.369 -0.3208 -0.5921 -0.2198
17357TIP3    H173486   6.284   4.861   5.325  1.1492 -1.0503  2.2186
17357TIP3    H273487   6.160   4.928   5.382  1.1170 -0.0668  1.0285
17358TIP3   OH273488   3.290   5.025  16.900 -0.2973  0.3049  0.1523
17358TIP3    H173489   3.277   5.068  16.815 -0.5398  0.3996  0.2359
17358TIP3    H273490   3.203   4.993  16.924 -0.1995  0.1455  0.2944
17359TIP3   OH273491   5.201   2.254   4.789  0.1242 -0.1903 -0.2824
17359TIP3    H173492   5.288   2.223   4.813  0.9298  2.0389 -0.0984
17359TIP3    H273493   5.142   2.208   4.848  1.1187 -1.9238 -0.5720
17360TIP3   OH273494   1.315   0.525   2.974  0.3772 -0.4895 -0.3176
17360TIP3    H173495   1.351   0.612   2.991 -3.2517  1.4686 -1.6503
17360TIP3    H273496   1.353   0.500   2.890  1.8008 -0.4671  0.2874
17361TIP3   OH273497   0.236   4.104   0.796  0.1087  0.2400 -0.2514
17361TIP3    H173498   0.254   4.198   0.803  1.0303  0.2401 -2.0089
17361TIP3    H273499   0.289   4.075   0.721  1.7205 -2.1711  1.6593
17362TIP3   OH273500   3.965   5.618  16.733 -0.5824  0.0271 -0.8475
17362TIP3    H173501   3.956   5.687  16.799 -2.7930  0.7447 -1.7950
17362TIP3    H273502   4.057   5.591  16.739 -0.1302  1.6876  0.8812
17363TIP3   OH273503   3.565   6.658   2.181  0.4706 -0.3338 -0.1395
17363TIP3    H173504   3.592   6.645   2.090 -0.4753 -0.2584 -0.4386
17363TIP3    H273505   3.513   6.580   2.201 -0.3659  0.2339 -0.0690
17364TIP3   OH273506   6.552   1.229   2.271  0.1619  0.4754  0.2983
17364TIP3    H173507   6.595   1.155   2.314 -0.4145 -0.0099  0.0533
17364TIP3    H273508   6.598   1.306   2.306  0.2912  0.0512  1.1098
17365TIP3   OH273509   3.695   3.567  14.156 -0.4958  0.2446 -0.1080
17365TIP3    H173510   3.738   3.650  14.137 -0.5769  0.1512 -0.7174
17365TIP3    H273511   3.608   3.576  14.118 -0.2007 -0.4517 -0.9852
17366TIP3   OH273512   3.188   1.460   5.095 -0.0602 -0.0806 -0.1173
17366TIP3    H173513   3.178   1.535   5.037 -2.0508 -0.8435 -0.8752
17366TIP3    H273514   3.277   1.428   5.081  0.0644  0.8123 -1.4397
17367TIP3   OH273515   0.044   3.114  14.616  0.1969  0.2842  0.0141
17367TIP3    H173516   0.063   3.203  14.648  0.1137  0.4714 -0.4518
17367TIP3    H273517  -0.004   3.128  14.535  0.4215 -0.1920 -0.2015
17368TIP3   OH273518   2.771   2.873  13.167  0.0190  0.1823  0.1876
17368TIP3    H173519   2.777   2.888  13.073 -0.3317 -0.0512  0.1269
17368TIP3    H273520   2.746   2.958  13.203 -1.7791 -0.1760 -0.1363
17369TIP3   OH273521   0.694   2.565  12.928 -0.1575  0.4769 -0.0587
17369TIP3    H173522   0.637   2.639  12.947 -0.2299  0.3950  0.0434
17369TIP3    H273523   0.764   2.571  12.992 -0.2617  0.3524  0.0700
17370TIP3   OH273524   1.950   1.099  11.257  0.3592  0.0563  0.1500
17370TIP3    H173525   1.997   1.110  11.174  0.3226 -2.4112 -0.2752
17370TIP3    H273526   1.862   1.133  11.239  0.6757  0.5782 -0.4553
17371TIP3   OH273527   5.423   2.156  16.770 -0.6892  0.5368  0.4849
17371TIP3    H173528   5.405   2.247  16.746 -1.5681  0.4593  0.7823
17371TIP3    H273529   5.359   2.105  16.719 -0.1644  0.0816  0.2739
17372TIP3   OH273530   0.799   6.607  16.973  0.2073 -0.1056  0.0594
17372TIP3    H173531   0.855   6.531  16.989  0.7995 -0.0337 -1.5355
17372TIP3    H273532   0.776   6.601  16.881 -2.5623 -0.1913  0.6764
17373TIP3   OH273533   3.451   0.604   2.835 -0.0652  0.1671  0.0507
17373TIP3    H173534   3.393   0.527   2.832 -0.8395  0.7694 -1.2471
17373TIP3    H273535   3.399   0.671   2.879  1.0205 -0.3325  2.2211
17374TIP3   OH273536   2.253   6.223  12.012  0.5072  0.1280 -0.7232
17374TIP3    H173537   2.304   6.174  12.076  0.7348  1.0523 -0.1713
17374TIP3    H273538   2.211   6.156  11.958 -1.4485 -0.7459  1.7120
17375TIP3   OH273539   2.465   2.140  15.773  0.1964 -0.2616 -0.1409
17375TIP3    H173540   2.423   2.071  15.825  0.6423 -0.6183 -0.2498
17375TIP3    H273541   2.444   2.221  15.820  0.9425 -0.6165  0.8385
17376TIP3   OH273542   4.597   3.131  15.358  0.2947  0.0630  0.0996
17376TIP3    H173543   4.510   3.141  15.319 -0.4832 -2.7194  0.9431
17376TIP3    H273544   4.598   3.194  15.431 -0.1035  1.7101 -1.2493
17377TIP3   OH273545   3.292   5.926   2.477 -0.0442 -0.5122  0.3832
17377TIP3    H173546   3.241   5.988   2.424  0.7990 -0.9371 -0.9944
17377TIP3    H273547   3.383   5.954   2.467  0.6569 -3.1066 -2.0846
17378TIP3   OH273548   5.014   1.810   3.577 -0.2685  0.3275  0.2372
17378TIP3    H173549   4.993   1.834   3.487 -2.0703 -1.6961  0.0294
17378TIP3    H273550   5.047   1.891   3.616  1.5862  1.0077 -2.4736
17379TIP3   OH273551   3.845   3.224   2.721  0.2283 -0.9231 -0.2007
17379TIP3    H173552   3.850   3.144   2.772 -0.5436  0.5128  2.3094
17379TIP3    H273553   3.839   3.294   2.786 -1.9033  1.0004 -2.2429
17380TIP3   OH273554   4.656   2.641   3.338  0.0151  0.3801 -0.1134
17380TIP3    H173555   4.594   2.633   3.411 -0.8655  1.6197 -0.6856
17380TIP3    H273556   4.738   2.607   3.373 -0.6748 -0.1568  1.0662
17381TIP3   OH273557   6.106   2.245  16.633  0.4923  0.0681  0.2358
17381TIP3    H173558   6.109   2.328  16.586 -0.8115 -0.8376 -1.5316
17381TIP3    H273559   6.019   2.242  16.673  1.2046  0.3522  1.8842
17382TIP3   OH273560   0.322   1.214  12.769  0.7873 -0.6414  0.0804
17382TIP3    H173561   0.287   1.288  12.819  0.2704 -1.1331  0.4638
17382TIP3    H273562   0.380   1.169  12.829  0.2033 -1.2057  0.2378
17383TIP3   OH273563   6.231   1.189   2.003  0.2621 -0.6668 -0.3133
17383TIP3    H173564   6.286   1.213   1.929 -1.5069  0.0606 -1.4667
17383TIP3    H273565   6.230   1.093   2.002 -0.6511 -0.6835 -2.0099
17384TIP3   OH273566   3.694   4.933  14.873  0.3858  0.1311 -0.0067
17384TIP3    H173567   3.631   4.959  14.806 -0.0320  2.7790  1.2767
17384TIP3    H273568   3.640   4.908  14.948  0.8607 -1.7873 -0.2530
17385TIP3   OH273569   4.371   5.005  14.435  0.3448  0.2302  0.0576
17385TIP3    H173570   4.307   4.995  14.365  0.1838 -0.1132  0.2488
17385TIP3    H273571   4.439   4.940  14.415 -0.0902 -0.4198  0.6376
17386TIP3   OH273572   4.517   0.967  11.381  0.3317  0.4176 -0.5580
17386TIP3    H173573   4.513   0.976  11.286  0.0152 -0.5434 -0.6411
17386TIP3    H273574   4.544   0.877  11.396  1.6369  0.9102  0.2589
17387TIP3   OH273575   5.411   5.935  12.355 -0.8845  0.3715 -0.6948
17387TIP3    H173576   5.345   5.921  12.423 -0.8851  0.2597 -0.7186
17387TIP3    H273577   5.444   5.848  12.335 -0.4162  0.4666 -0.3671
17388TIP3   OH273578   4.164   1.779  16.670  0.1387  0.2609 -0.5796
17388TIP3    H173579   4.231   1.777  16.601 -0.6364 -0.8098 -1.3334
17388TIP3    H273580   4.082   1.764  16.624 -0.9245  3.3763  0.0578
17389TIP3   OH273581   2.369   2.937  16.250  0.1650 -0.8181 -0.1028
17389TIP3    H173582   2.374   2.987  16.331  3.4748 -1.0658 -0.0075
17389TIP3    H273583   2.298   2.875  16.263  0.5720 -0.8071  2.6215
17390TIP3   OH273584   0.097   6.277   2.707 -0.2673  0.5222  0.0715
17390TIP3    H173585   0.110   6.294   2.614  3.9976 -0.1163  0.3608
17390TIP3    H273586   0.102   6.363   2.748 -3.1331  0.9325 -0.2082
17391TIP3   OH273587   1.300   6.176  14.592 -0.2644  0.3958  0.4443
17391TIP3    H173588   1.362   6.118  14.549 -1.5798 -0.2119 -0.7241
17391TIP3    H273589   1.260   6.123  14.661 -3.1099 -1.0163 -2.0391
17392TIP3   OH273590   6.207   5.829  12.023 -0.2630 -0.0737 -0.0260
17392TIP3    H173591   6.198   5.905  12.081 -0.5551 -0.0781 -0.0668
17392TIP3    H273592   6.236   5.867  11.940  2.5346 -0.2770  0.7546
17393TIP3   OH273593   5.740   3.673   4.999 -1.0362  0.0362 -0.6105
17393TIP3    H173594   5.646   3.657   5.013 -1.1289  1.3510  0.4833
17393TIP3    H273595   5.783   3.597   5.039 -1.5591  0.9297  1.8473
17394TIP3   OH273596   5.350   4.180   2.710  0.8886  0.2318 -0.5921
17394TIP3    H173597   5.438   4.153   2.687  0.1314 -1.3187 -1.7903
17394TIP3    H273598   5.342   4.268   2.674  1.5458 -0.0794 -1.5231
17395TIP3   OH273599   0.540   5.965  11.668  0.4149  0.0429  0.4197
17395TIP3    H173600   0.604   6.009  11.723  1.1986  0.1768 -0.5746
17395TIP3    H273601   0.548   6.006  11.583 -1.3098  0.3528  0.3627
17396TIP3   OH273602   1.841   6.780  16.560 -0.0911  0.0784  0.6554
17396TIP3    H173603   1.765   6.748  16.608  1.0105 -0.6523  2.0073
17396TIP3    H273604   1.864   6.708  16.501 -0.6106  0.4071  0.0548
17397TIP3   OH273605   4.651   5.498   1.039  0.1005 -0.4359  0.4241
17397TIP3    H173606   4.617   5.550   1.111 -1.7868 -0.1367 -0.6263
17397TIP3    H273607   4.650   5.408   1.072  0.1436 -0.1985  1.0837
17398TIP3   OH273608   5.117   2.911  13.054 -0.3495 -0.6606  0.0979
17398TIP3    H173609   5.157   2.875  12.975 -0.3003 -1.3451  0.4316
17398TIP3    H273610   5.023   2.898  13.041 -0.2817 -1.8205  0.6419
17399TIP3   OH273611   5.274   2.674   3.667  0.1284  0.6871  0.0878
17399TIP3    H173612   5.203   2.739   3.664 -1.2448 -0.6834  1.1508
17399TIP3    H273613   5.299   2.670   3.759  1.6708  1.1952 -0.2910
17400TIP3   OH273614   5.712   4.313  12.027  0.1585 -0.1549  0.2543
17400TIP3    H173615   5.669   4.232  11.997 -0.2300 -0.9053  2.6022
17400TIP3    H273616   5.674   4.329  12.113  1.3317  1.7342  0.4710
17401TIP3   OH273617   3.754   1.892   3.369 -0.1842 -0.2158  0.1793
17401TIP3    H173618   3.726   1.909   3.459 -2.2009 -1.9884 -0.0337
17401TIP3    H273619   3.841   1.931   3.364 -0.9117  1.9663  2.1904
17402TIP3   OH273620   0.890   6.764  14.854  0.0258 -0.2088  0.5746
17402TIP3    H173621   0.914   6.672  14.846 -0.2669 -0.3342  1.1190
17402TIP3    H273622   0.950   6.810  14.794 -0.0732 -0.7850  0.0232
17403TIP3   OH273623   6.256   1.427   1.357 -0.4778 -0.4698  0.6036
17403TIP3    H173624   6.204   1.404   1.435 -1.4981 -1.1230 -0.2324
17403TIP3    H273625   6.193   1.421   1.285  1.0551 -2.7783 -0.6628
17404TIP3   OH273626   2.802   0.431  15.265  0.5085  0.0993 -0.1535
17404TIP3    H173627   2.761   0.345  15.276  0.2419  0.3200  0.6642
17404TIP3    H273628   2.748   0.476  15.200 -0.3412  0.2490  0.6427
17405TIP3   OH273629   3.124   2.749  15.500  0.0705 -0.3567  0.2297
17405TIP3    H173630   3.129   2.655  15.517  1.9044 -0.5653 -1.1407
17405TIP3    H273631   3.215   2.779  15.501 -0.3456  1.0895 -0.9813
17406TIP3   OH273632   4.940   0.537   3.500 -0.3825  0.5285 -0.2841
17406TIP3    H173633   4.930   0.486   3.419  0.7191 -0.5580  0.2462
17406TIP3    H273634   4.955   0.627   3.470  0.0461  0.1319 -1.2910
17407TIP3   OH273635   2.010   0.034   4.356 -0.0664 -0.1494 -0.1338
17407TIP3    H173636   1.956  -0.044   4.373  0.4666 -0.1035  1.9910
17407TIP3    H273637   2.008   0.083   4.438  1.9924  0.5999 -0.4781
17408TIP3   OH273638   0.846   4.551   5.557 -0.1654 -0.2461  0.2203
17408TIP3    H173639   0.782   4.602   5.507  1.1928  0.6333 -0.6663
17408TIP3    H273640   0.792   4.495   5.614 -1.7183  0.3210 -0.6295
17409TIP3   OH273641   4.705   1.955   5.020  0.3733  0.0883 -0.2247
17409TIP3    H173642   4.626   1.904   5.038  0.5783 -0.9407 -2.0053
17409TIP3    H273643   4.765   1.931   5.091 -1.0604  1.3916  1.5325
17410TIP3   OH273644   4.348   1.386   1.632 -0.2394  0.6436  0.0331
17410TIP3    H173645   4.346   1.377   1.537  1.6738  1.5771 -0.1436
17410TIP3    H273646   4.355   1.296   1.664  0.0196  0.3779 -0.7409
17411TIP3   OH273647   3.798   0.012   2.272  0.1740  0.4799 -0.0181
17411TIP3    H173648   3.777   0.025   2.364 -0.9299  2.7027 -0.4999
17411TIP3    H273649   3.747  -0.065   2.246  0.2690  0.0152  1.1332
17412TIP3   OH273650   0.457   1.310  16.105 -0.3214  0.0702  0.2652
17412TIP3    H173651   0.502   1.245  16.051 -1.3162 -2.0182  1.7914
17412TIP3    H273652   0.524   1.374  16.127  0.7770 -0.5723 -1.0903
17413TIP3   OH273653   6.032   3.128  11.539 -0.4175 -1.0636  0.3844
17413TIP3    H173654   5.957   3.103  11.592  0.3381 -0.9491  1.5557
17413TIP3    H273655   6.003   3.116  11.448 -1.8250 -1.0259  0.8094
17414TIP3   OH273656   1.477   4.564   2.543  0.2267 -0.3393  0.1246
17414TIP3    H173657   1.427   4.620   2.601 -1.6198 -0.7034 -1.0314
17414TIP3    H273658   1.556   4.542   2.592 -0.5980  0.5183  1.8998
17415TIP3   OH273659   1.369   6.017  12.553  0.3423  0.4631 -0.3443
17415TIP3    H173660   1.344   6.002  12.644  3.1728  0.9316  0.5794
17415TIP3    H273661   1.388   5.930  12.518  1.2697  0.4704  0.1444
17416TIP3   OH273662   3.656   5.417   2.235 -0.0904 -1.0246  0.5758
17416TIP3    H173663   3.744   5.381   2.222  0.2292 -0.2298  0.4986
17416TIP3    H273664   3.647   5.423   2.330 -0.0003 -0.9635  0.5811
17417TIP3   OH273665   0.778   5.676   3.084 -0.0636 -0.0659 -0.0776
17417TIP3    H173666   0.703   5.617   3.073 -0.8929  1.2163 -1.6459
17417TIP3    H273667   0.781   5.694   3.178 -2.7981  1.1376 -0.1341
17418TIP3   OH273668   3.635   2.248   1.155 -0.1520  0.7795  0.2098
17418TIP3    H173669   3.644   2.296   1.237 -0.9021  0.3673  0.5484
17418TIP3    H273670   3.587   2.168   1.180 -2.4870  1.6995 -0.9882
17419TIP3   OH273671   4.434   2.123   0.665  0.2427  0.2062 -0.0693
17419TIP3    H173672   4.438   2.034   0.699 -0.3948  0.0071 -0.4852
17419TIP3    H273673   4.523   2.144   0.640  0.3065 -0.5093 -0.4488
17420TIP3   OH273674   5.602   3.843   5.670 -0.5596  0.0697  0.3046
17420TIP3    H173675   5.643   3.797   5.743  0.6055  0.0869 -0.3135
17420TIP3    H273676   5.676   3.881   5.621 -1.4255  2.0210  0.4092
17421TIP3   OH273677   2.646   6.473  14.611  0.4909 -0.1988  0.6263
17421TIP3    H173678   2.579   6.406  14.600  1.5564 -0.9801 -2.0199
17421TIP3    H273679   2.601   6.556  14.595 -0.0526 -0.6448 -0.2288
17422TIP3   OH273680   6.123   4.251  16.879 -0.9075 -0.1990  0.6843
17422TIP3    H173681   6.058   4.308  16.920 -0.9111  1.9735 -2.0463
17422TIP3    H273682   6.201   4.306  16.872 -0.5504 -0.8855 -1.0917
17423TIP3   OH273683   3.384   1.001   1.356  0.0899  0.1208 -0.1420
17423TIP3    H173684   3.457   0.938   1.356  0.0697  0.0507 -2.2033
17423TIP3    H273685   3.386   1.041   1.269 -0.5364  2.2663  0.7516
17424TIP3   OH273686   2.803   0.275   4.668  0.9368  0.3441 -0.6599
17424TIP3    H173687   2.877   0.305   4.615  0.4774  2.1187 -0.3658
17424TIP3    H273688   2.811   0.323   4.750 -0.8324  1.0194 -0.8350
17425TIP3   OH273689   4.206   2.935  11.333 -0.3112 -0.1712  0.6144
17425TIP3    H173690   4.287   2.894  11.362 -0.1300 -0.3011 -0.0675
17425TIP3    H273691   4.184   2.997  11.404  0.9311  0.6219  0.3338
17426TIP3   OH273692   4.961   3.995  14.686 -0.0587  0.1917  0.3868
17426TIP3    H173693   4.916   4.010  14.603  0.8521  1.2677  0.0673
17426TIP3    H273694   5.027   4.064  14.691  1.6950 -1.4249  0.7497
17427TIP3   OH273695   1.408   2.953  14.421 -0.5137 -0.5571 -0.2270
17427TIP3    H173696   1.430   3.013  14.492  0.7973 -1.5958  0.2888
17427TIP3    H273697   1.480   2.890  14.419 -1.2015 -1.3580 -1.5928
17428TIP3   OH273698   6.351   4.508   4.257 -0.3087 -0.4149 -0.1237
17428TIP3    H173699   6.280   4.447   4.240 -1.0182  0.1101  0.8933
17428TIP3    H273700   6.345   4.529   4.350  1.6161 -0.8901  0.1599
17429TIP3   OH273701   1.206   1.872  12.716  0.0668 -0.2007 -0.0554
17429TIP3    H173702   1.162   1.879  12.801  0.0312 -0.0508 -0.0867
17429TIP3    H273703   1.140   1.901  12.653 -0.5111 -1.9103 -0.3107
17430TIP3   OH273704   6.204   3.555  16.727  0.7203  0.1610  0.0250
17430TIP3    H173705   6.143   3.626  16.746  1.4766  1.2415 -1.3534
17430TIP3    H273706   6.150   3.485  16.690  0.3859  1.5813 -2.3682
17431TIP3   OH273707   3.292   0.333   5.538  0.2704  0.1177  0.2600
17431TIP3    H173708   3.338   0.314   5.620  1.6047  1.0178 -0.2514
17431TIP3    H273709   3.320   0.421   5.514  0.2527 -0.2947 -1.4082
17432TIP3   OH273710   5.008   2.942  14.759  0.1175 -0.1466  0.2339
17432TIP3    H173711   5.065   2.933  14.835  0.9250  0.1626 -0.3140
17432TIP3    H273712   4.987   2.852  14.733  1.7896 -0.3321 -0.5870
17433TIP3   OH273713   2.942   6.657  12.019  0.1362  0.0793  0.1072
17433TIP3    H173714   2.911   6.566  12.021  2.0325 -0.6245  2.3373
17433TIP3    H273715   3.011   6.657  11.953 -0.3699  0.0919 -0.4245
17434TIP3   OH273716   5.373   2.560  12.709 -0.2993  0.2315 -0.0173
17434TIP3    H173717   5.371   2.649  12.673 -0.3854 -0.0275 -0.6550
17434TIP3    H273718   5.361   2.503  12.634  1.3512 -0.3962  0.1601
17435TIP3   OH273719   5.939   5.399  15.793  0.2837 -0.3745  0.3082
17435TIP3    H173720   5.873   5.363  15.734 -0.4324  0.4996  0.5452
17435TIP3    H273721   5.901   5.392  15.880  0.7192 -0.3387  0.5039
17436TIP3   OH273722   2.234   0.613   1.590  0.6459 -0.3612 -0.4207
17436TIP3    H173723   2.309   0.665   1.617  1.0179 -0.9293 -0.3308
17436TIP3    H273724   2.213   0.644   1.502  0.3425  0.4990 -0.0515
17437TIP3   OH273725   6.391   2.888   3.630 -0.6355  0.0290  0.3196
17437TIP3    H173726   6.311   2.925   3.668 -0.8430 -0.8162  0.7188
17437TIP3    H273727   6.371   2.796   3.616  0.7260 -0.5420  1.7635
17438TIP3   OH273728   6.333   4.787  13.827 -0.0585  0.2867 -0.2113
17438TIP3    H173729   6.252   4.756  13.786  1.3930 -1.6753 -1.8551
17438TIP3    H273730   6.341   4.736  13.908 -0.4607  0.4796 -0.0513
17439TIP3   OH273731   2.436   0.848  15.243 -0.1726 -0.2846 -0.0557
17439TIP3    H173732   2.368   0.913  15.226 -0.5079 -0.5155  0.3816
17439TIP3    H273733   2.517   0.888  15.212 -0.3696  0.3599  0.2574
17440TIP3   OH273734   2.432   0.921  13.228 -0.1165 -0.7419  0.0374
17440TIP3    H173735   2.478   0.959  13.153 -0.5917 -2.0816 -0.9761
17440TIP3    H273736   2.426   0.828  13.207 -1.2736 -0.9528  1.2072
17441TIP3   OH273737   3.213   1.228  13.377 -0.0599 -0.4297 -0.2295
17441TIP3    H173738   3.224   1.136  13.403  1.2800 -0.1272  0.3502
17441TIP3    H273739   3.155   1.265  13.443 -1.7423 -1.1726 -1.2423
17442TIP3   OH273740   5.359   1.811   1.184 -0.3288 -0.7647 -0.5972
17442TIP3    H173741   5.296   1.746   1.214 -2.2313  2.0791  2.1341
17442TIP3    H273742   5.434   1.801   1.242 -1.5702  0.8475  1.3934
17443TIP3   OH273743   5.499   3.010   5.799 -0.4710  0.1345 -0.3701
17443TIP3    H173744   5.567   2.963   5.846 -0.1541 -0.9751 -1.8753
17443TIP3    H273745   5.545   3.058   5.730 -1.1193 -0.0042 -0.9177
17444TIP3   OH273746   1.986   4.873  16.464  0.6290 -0.0470 -0.1427
17444TIP3    H173747   1.983   4.822  16.383  0.3599 -1.4589  0.7156
17444TIP3    H273748   1.920   4.833  16.520  0.6920  1.0111  0.7228
17445TIP3   OH273749   3.130   6.782  17.072  0.4341 -1.3752  0.1740
17445TIP3    H173750   3.164   6.706  17.120  0.4959 -0.4994  1.5744
17445TIP3    H273751   3.075   6.827  17.136  1.1679  0.2710 -0.3258
17446TIP3   OH273752   1.975   4.132  12.909  0.7189 -0.0813 -0.0228
17446TIP3    H173753   2.041   4.098  12.969  3.2179  5.1784  0.8615
17446TIP3    H273754   1.993   4.088  12.826  1.3658 -2.9737  1.5262
17447TIP3   OH273755   1.783   5.227   5.075  0.0600  0.0656 -0.0419
17447TIP3    H173756   1.812   5.140   5.103 -0.2261 -0.0687 -0.1531
17447TIP3    H273757   1.701   5.211   5.028 -0.5094  0.4903  0.7850
17448TIP3   OH273758   3.498   2.026   1.248 -0.9513  0.0833 -0.3643
17448TIP3    H173759   3.420   2.047   1.299  0.4917  2.1015  1.1390
17448TIP3    H273760   3.546   1.964   1.302  0.5372  2.1558  0.8256
17449TIP3   OH273761   0.464   6.540  13.759  0.2007 -0.1648  0.1464
17449TIP3    H173762   0.434   6.539  13.668 -0.5236  0.9383  0.3487
17449TIP3    H273763   0.415   6.470  13.802  0.9626 -1.0752 -0.4075
17450TIP3   OH273764   1.348   4.724   5.626  0.5616  0.1589 -0.3181
17450TIP3    H173765   1.289   4.653   5.653  0.1737 -0.5692 -2.7918
17450TIP3    H273766   1.291   4.800   5.616  0.9329  0.8346  2.0621
17451TIP3   OH273767   3.176   4.643  12.992  0.3306  0.0175 -0.1434
17451TIP3    H173768   3.154   4.614  13.081  1.7355 -3.9395 -0.8489
17451TIP3    H273769   3.271   4.645  12.990  0.3130  0.3669 -1.4787
17452TIP3   OH273770   3.520   5.264  16.809 -0.0137 -0.3896  0.3742
17452TIP3    H173771   3.526   5.252  16.904  0.7402 -0.7818  0.2937
17452TIP3    H273772   3.609   5.289  16.783 -1.0919  4.1895  0.2902
17453TIP3   OH273773   6.668   2.160   6.068 -0.1839 -0.0633 -0.8156
17453TIP3    H173774   6.726   2.144   6.143 -0.0658  0.1282 -0.8653
17453TIP3    H273775   6.701   2.102   5.999 -0.5694 -0.5715 -0.5807
17454TIP3   OH273776   5.006   6.341  15.513 -0.1416 -0.0603 -0.1689
17454TIP3    H173777   5.031   6.253  15.540 -0.3943 -0.4300 -1.1261
17454TIP3    H273778   5.047   6.353  15.428 -0.4739  0.5829 -0.2424
17455TIP3   OH273779   4.280   5.138  13.611  0.0539 -0.3412  0.4166
17455TIP3    H173780   4.353   5.126  13.549 -0.3446  1.3453 -0.4306
17455TIP3    H273781   4.247   5.049  13.625  0.7580 -0.8845 -1.0706
17456TIP3   OH273782   3.238   2.029   4.383 -0.0776  0.0375 -0.0078
17456TIP3    H173783   3.231   1.978   4.464 -1.0473  0.5277  0.2353
17456TIP3    H273784   3.204   1.971   4.315 -2.3040  0.7230  0.4478
17457TIP3   OH273785   0.299   1.686   1.904  0.1094 -0.0956  0.0983
17457TIP3    H173786   0.222   1.637   1.877  0.1010  0.4809 -0.9969
17457TIP3    H273787   0.313   1.662   1.995 -1.2342 -0.3698  0.2467
17458TIP3   OH273788   1.122   6.099   1.212  0.1289  0.3388  0.2316
17458TIP3    H173789   1.104   6.143   1.295 -0.4428 -0.8274  0.7428
17458TIP3    H273790   1.078   6.014   1.219  0.5640 -0.0188 -1.0320
17459TIP3   OH273791   4.503   2.350  11.634  0.3316 -0.5566  0.7460
17459TIP3    H173792   4.522   2.401  11.556 -0.8626 -2.7383 -1.0847
17459TIP3    H273793   4.587   2.343  11.679  1.2364  0.0969 -0.7752
17460TIP3   OH273794   1.183   3.529  14.001  0.1763  0.2369 -1.2186
17460TIP3    H173795   1.103   3.577  13.983 -1.2428 -0.0866  3.0159
17460TIP3    H273796   1.233   3.588  14.058  0.7073 -1.3217  0.0017
17461TIP3   OH273797   6.485   5.587  13.174  0.4249  0.4528  0.5002
17461TIP3    H173798   6.408   5.549  13.217  0.8798  0.6211  1.4938
17461TIP3    H273799   6.499   5.670  13.219 -1.1112  2.3772 -2.2443
17462TIP3   OH273800   5.445   1.125   6.638  0.1698  0.1305 -0.1771
17462TIP3    H173801   5.526   1.173   6.659  0.3074  0.6332 -1.7068
17462TIP3    H273802   5.455   1.041   6.681  1.4737  0.2266 -0.2583
17463TIP3   OH273803   4.946   3.148   0.787 -0.2208  0.8499  0.1560
17463TIP3    H173804   4.866   3.182   0.827 -0.1794 -0.7298  1.7117
17463TIP3    H273805   5.011   3.218   0.799 -0.8199  1.3033  0.8178
17464TIP3   OH273806   6.546   0.358   2.228 -0.1539  0.0049 -0.5691
17464TIP3    H173807   6.632   0.390   2.201 -0.3414  1.6478  0.6434
17464TIP3    H273808   6.494   0.437   2.243 -0.3746 -0.6976  3.4786
17465TIP3   OH273809   5.387   4.953  12.352 -0.1546 -0.6071  0.1352
17465TIP3    H173810   5.367   5.038  12.391 -1.0458 -0.5193 -0.4742
17465TIP3    H273811   5.479   4.961  12.324  0.4376 -0.6007  1.9537
17466TIP3   OH273812   3.079   0.733  12.710  0.4711  0.4253  0.2983
17466TIP3    H173813   3.012   0.728  12.642 -0.3806  0.6956  1.1037
17466TIP3    H273814   3.058   0.813  12.759  1.8436  0.9516  0.0890
17467TIP3   OH273815   5.239   3.020  15.218  0.1928  0.6507  0.0033
17467TIP3    H173816   5.146   3.041  15.230  0.4285  1.5676  0.2815
17467TIP3    H273817   5.242   2.925  15.219 -0.5514  0.6147  1.5594
17468TIP3   OH273818   2.650   1.804   3.890  0.7133 -0.0584  0.0676
17468TIP3    H173819   2.645   1.711   3.913 -1.6560 -0.2496 -0.8993
17468TIP3    H273820   2.708   1.807   3.814 -2.3228 -1.4673 -2.5425
17469TIP3   OH273821   1.151   4.811   0.094 -0.4047 -0.1749 -0.4052
17469TIP3    H173822   1.167   4.867   0.017  0.5864  0.5215  0.2913
17469TIP3    H273823   1.215   4.741   0.086 -0.5796 -0.3342 -0.4225
17470TIP3   OH273824   6.142   5.133   5.356  0.3930 -0.0568  0.2657
17470TIP3    H173825   6.087   5.104   5.429  1.0310 -0.7494  0.4795
17470TIP3    H273826   6.164   5.224   5.377  0.3232 -0.1576  0.7788
17471TIP3   OH273827   1.572   0.010  14.561  0.1361  0.3618 -0.6117
17471TIP3    H173828   1.529  -0.001  14.476 -0.2775  0.2411 -0.3878
17471TIP3    H273829   1.639  -0.058  14.563 -1.3707 -1.1414  0.1094
17472TIP3   OH273830   4.036   1.558  15.706  0.2012  0.2929 -0.2708
17472TIP3    H173831   4.100   1.548  15.776  1.9994  0.2146 -1.8324
17472TIP3    H273832   4.081   1.613  15.641 -1.7760  1.2071 -0.9358
17473TIP3   OH273833   2.617   0.259  12.166  0.5733  0.5333  0.4147
17473TIP3    H173834   2.682   0.198  12.132 -0.2449 -1.6264  2.4636
17473TIP3    H273835   2.660   0.345  12.165  2.4909 -0.3933 -0.6626
17474TIP3   OH273836   6.218   5.109   6.155  0.3939  0.3240  0.2504
17474TIP3    H173837   6.300   5.129   6.111 -0.6678 -2.0296 -3.1955
17474TIP3    H273838   6.161   5.182   6.135  0.9498  0.8970  0.7207
17475TIP3   OH273839   3.316   0.843   4.211 -0.2571 -0.1100 -0.2024
17475TIP3    H173840   3.224   0.866   4.197 -0.5381 -1.1947 -0.1887
17475TIP3    H273841   3.332   0.771   4.151  0.8761  0.6994 -0.9237
17476TIP3   OH273842   0.887   6.717  11.064 -0.0196  0.0298  0.1598
17476TIP3    H173843   0.869   6.635  11.018  0.1423 -0.3546  0.7731
17476TIP3    H273844   0.978   6.737  11.044 -0.6959  1.3226 -1.9260
17477TIP3   OH273845   3.921   1.329  11.518  0.5322 -0.1348 -0.2702
17477TIP3    H173846   4.004   1.281  11.514 -0.4122 -2.0394  1.0024
17477TIP3    H273847   3.919   1.366  11.606  0.7684  1.4151 -0.8918
17478TIP3   OH273848   0.919   4.952  16.875 -0.2393 -0.5976  0.8187
17478TIP3    H173849   0.893   4.882  16.815  1.4705 -1.7526  1.3575
17478TIP3    H273850   1.012   4.965  16.857 -0.9447  3.3118 -1.0046
17479TIP3   OH273851   2.811   3.668   1.197  0.5440 -0.4757 -0.2292
17479TIP3    H173852   2.750   3.718   1.143  2.1806 -0.2691 -2.0044
17479TIP3    H273853   2.792   3.577   1.177  0.5503 -0.4237 -0.4735
17480TIP3   OH273854   2.914   5.392   1.194  0.2455 -0.5319 -0.3276
17480TIP3    H173855   2.956   5.383   1.279  0.4271 -1.3389 -0.4948
17480TIP3    H273856   2.823   5.414   1.215  0.5475  0.4144  0.0463
17481TIP3   OH273857   5.096   3.214   5.897 -0.6735  0.0604  0.2382
17481TIP3    H173858   5.131   3.163   5.969 -0.3658 -1.2396 -0.7997
17481TIP3    H273859   5.022   3.162   5.864  0.2992 -0.2743 -1.5112
17482TIP3   OH273860   4.957   5.784  12.244 -0.1330 -0.0618 -0.4026
17482TIP3    H173861   4.896   5.717  12.213 -0.5684  0.3694 -0.4983
17482TIP3    H273862   4.951   5.854  12.178 -1.7503  1.2669  1.0355
17483TIP3   OH273863   5.711   4.584  13.459 -0.2767  0.1791  0.1878
17483TIP3    H173864   5.619   4.610  13.448 -0.2922  0.2321  0.4301
17483TIP3    H273865   5.715   4.551  13.550 -0.2236 -0.4984 -0.0504
17484TIP3   OH273866   0.841   0.763  14.378 -0.0255 -0.5937  0.5545
17484TIP3    H173867   0.892   0.703  14.434  1.1773  0.6861  0.8967
17484TIP3    H273868   0.895   0.842  14.373 -2.0966  0.9392  1.1186
17485TIP3   OH273869   3.993   0.400  13.507  0.2687 -0.1795 -0.4217
17485TIP3    H173870   3.982   0.352  13.589  2.4837  0.3880  0.2817
17485TIP3    H273871   4.027   0.335  13.445 -0.5848 -0.4003 -0.6862
17486TIP3   OH273872   0.824   4.592  13.857  0.5205  0.7018  0.0670
17486TIP3    H173873   0.905   4.555  13.890 -0.7602 -0.4290  2.2181
17486TIP3    H273874   0.832   4.686  13.873  2.0706  0.8415 -1.3894
17487TIP3   OH273875   3.083   1.775  16.084  0.1241 -0.1315  0.0783
17487TIP3    H173876   3.010   1.817  16.131  0.5778  0.4684  0.2536
17487TIP3    H273877   3.042   1.736  16.007 -0.8681 -2.2320  1.5567
17488TIP3   OH273878   6.433   4.409   0.282  0.0237  0.3107  0.0864
17488TIP3    H173879   6.480   4.394   0.200 -1.7751 -0.2640 -0.8799
17488TIP3    H273880   6.392   4.326   0.303 -1.9517  1.1908 -0.0432
17489TIP3   OH273881   0.762   3.633  15.206  0.1765 -0.0668  0.5985
17489TIP3    H173882   0.792   3.687  15.133  0.0979 -0.2984  0.3952
17489TIP3    H273883   0.812   3.552  15.198 -2.1851 -1.4682 -1.2047
17490TIP3   OH273884   4.779   6.497  15.918  0.3925 -0.2327 -0.6357
17490TIP3    H173885   4.817   6.555  15.983 -0.7246 -0.0791 -0.1014
17490TIP3    H273886   4.854   6.467  15.866  1.1428  0.6209 -0.0771
17491TIP3   OH273887   6.776   1.833  16.683 -0.1812  0.2104  0.3212
17491TIP3    H173888   6.718   1.786  16.744 -0.3179 -0.1449 -0.0775
17491TIP3    H273889   6.767   1.786  16.600  1.2317 -0.3020  0.4264
17492TIP3   OH273890   6.447   1.956   4.474 -0.4121 -0.2792  0.3162
17492TIP3    H173891   6.372   1.983   4.528  1.2511  1.2545  2.0120
17492TIP3    H273892   6.511   2.025   4.486  0.2404 -0.0161 -3.4791
17493TIP3   OH273893   6.539   6.582  14.331 -0.7780 -0.3062  0.0368
17493TIP3    H173894   6.508   6.543  14.413  0.0600  1.0612  1.0395
17493TIP3    H273895   6.461   6.623  14.294 -1.2250 -1.1671  0.0001
17494TIP3   OH273896   4.932   2.155   0.406 -0.0836 -0.2998  0.2145
17494TIP3    H173897   4.931   2.099   0.484 -2.3006 -0.3116  0.2561
17494TIP3    H273898   4.990   2.227   0.428 -0.9602 -0.1031  2.0617
17495TIP3   OH273899   4.624   1.097  13.990  0.4055  0.0248 -0.4594
17495TIP3    H173900   4.653   1.046  13.914 -2.2609  0.4421 -1.8944
17495TIP3    H273901   4.573   1.169  13.952 -0.2696  0.7581  1.7132
17496TIP3   OH273902   0.226   5.522  11.747 -0.5081 -0.3725 -0.1040
17496TIP3    H173903   0.217   5.612  11.716  1.8763 -0.8172 -2.4454
17496TIP3    H273904   0.292   5.528  11.817 -0.8353 -0.2227  0.1939
17497TIP3   OH273905   6.702   2.881   1.941  0.0639  0.4758 -0.1567
17497TIP3    H173906   6.627   2.862   1.998  0.8814  1.0631  1.1664
17497TIP3    H273907   6.773   2.826   1.975  0.1514 -0.4053 -1.6656
17498TIP3   OH273908   1.971   6.257   4.128  0.1121  0.2948 -0.2448
17498TIP3    H173909   1.919   6.313   4.069 -1.7960  0.9901  1.9101
17498TIP3    H273910   1.906   6.217   4.186  1.7274 -1.8119  0.2437
17499TIP3   OH273911   1.202   5.041   5.391 -0.4550 -0.3633 -0.3014
17499TIP3    H173912   1.155   5.005   5.315 -1.1497 -1.1424  0.4793
17499TIP3    H273913   1.293   5.047   5.361 -0.2956 -2.7783 -0.5007
17500TIP3   OH273914   0.155   3.721  11.461  0.1714 -0.0085  0.1621
17500TIP3    H173915   0.099   3.647  11.481 -1.9342  1.0071 -1.6441
17500TIP3    H273916   0.199   3.697  11.380  0.9647 -0.0371  0.5905
17501TIP3   OH273917   6.106   5.548   1.739  0.2311  0.6918  0.2710
17501TIP3    H173918   6.101   5.493   1.660  0.8125  1.8783 -0.6135
17501TIP3    H273919   6.131   5.487   1.808  1.1685 -0.1183 -0.7488
17502TIP3   OH273920   3.411   5.826  13.517 -0.4971  0.3965  0.6863
17502TIP3    H173921   3.335   5.857  13.468 -0.3677  0.8570  0.7753
17502TIP3    H273922   3.408   5.731  13.507 -1.3625  0.3741  1.1144
17503TIP3   OH273923   3.079   5.085   1.672 -0.3115  0.4190 -0.3246
17503TIP3    H173924   3.058   5.060   1.582  1.8161  0.8344 -0.9967
17503TIP3    H273925   3.146   5.022   1.699 -0.7006  0.4966  0.8675
17504TIP3   OH273926   6.099   2.300  13.197 -0.5052  0.6270  0.0236
17504TIP3    H173927   6.173   2.260  13.244 -0.5213  0.0760 -0.4092
17504TIP3    H273928   6.067   2.368  13.257 -0.5464 -0.0818  0.8423
17505TIP3   OH273929   5.222   3.907  14.990  0.4727  1.1668  0.0837
17505TIP3    H173930   5.128   3.903  15.005  0.4342  0.3551 -0.3227
17505TIP3    H273931   5.260   3.856  15.061  0.4857  0.0673 -0.6756
17506TIP3   OH273932   1.011   3.381  16.236  0.3633 -0.2330 -0.5299
17506TIP3    H173933   1.031   3.318  16.304  0.2997  0.0349 -0.2593
17506TIP3    H273934   1.001   3.329  16.156  1.1343 -0.4690 -0.4748
17507TIP3   OH273935   2.123   2.795  15.936  0.4781 -0.2309 -0.3932
17507TIP3    H173936   2.034   2.789  15.901  0.0015  0.8183  0.5407
17507TIP3    H273937   2.178   2.750  15.872 -0.9786 -2.8563  0.0429
17508TIP3   OH273938   2.565   1.734   5.818 -0.2716  0.1383  0.3804
17508TIP3    H173939   2.538   1.672   5.886 -0.3473  0.4471  0.6333
17508TIP3    H273940   2.485   1.784   5.798 -0.0878  0.5123  0.5603
17509TIP3   OH273941   1.617   3.008  13.064  0.3599  0.1221 -0.7267
17509TIP3    H173942   1.550   3.063  13.023  1.7008  2.1620 -0.3786
17509TIP3    H273943   1.697   3.029  13.016  1.2251 -0.3168  0.4856
17510TIP3   OH273944   1.911   3.251   4.006 -0.2451 -0.2965 -0.1735
17510TIP3    H173945   1.900   3.316   3.936  0.3602  1.0951  0.9883
17510TIP3    H273946   2.001   3.220   3.997 -0.2009 -0.1982 -0.0586
17511TIP3   OH273947   4.466   0.512  15.387 -0.2727 -0.3322  0.2137
17511TIP3    H173948   4.461   0.543  15.477  0.4046 -0.4129  0.2813
17511TIP3    H273949   4.521   0.434  15.392  1.5666  0.8410 -0.5620
17512TIP3   OH273950   3.740   5.562   2.980  0.8925 -0.3181  0.4377
17512TIP3    H173951   3.716   5.653   2.963  0.7818 -0.6572 -1.3521
17512TIP3    H273952   3.786   5.566   3.064 -0.2885  1.1759  1.0846
17513TIP3   OH273953   2.883   0.065   5.696 -0.3366  0.1455  0.3112
17513TIP3    H173954   2.883  -0.019   5.651  0.2702  0.5897 -0.5331
17513TIP3    H273955   2.973   0.077   5.726 -0.5373  0.2560  0.8996
17514TIP3   OH273956   0.015   3.198  12.289  0.6052 -0.3637  0.0117
17514TIP3    H173957   0.041   3.286  12.261  1.7211 -0.9972 -1.0271
17514TIP3    H273958   0.092   3.164  12.335  0.1443 -0.7712  0.4934
17515TIP3   OH273959   0.920   2.226   5.662  0.4872 -0.1585 -0.5800
17515TIP3    H173960   0.900   2.241   5.755  0.6595  1.7842 -0.8194
17515TIP3    H273961   0.842   2.256   5.616  1.1555  0.7083 -1.1543
17516TIP3   OH273962   1.965   4.654  14.209  0.4822  0.3561  0.8284
17516TIP3    H173963   1.876   4.687  14.225 -1.0666 -2.9291 -0.0810
17516TIP3    H273964   1.997   4.631  14.296 -1.3379 -2.2578  0.9302
17517TIP3   OH273965   0.346   4.231  11.785 -0.0831  0.2999  0.0174
17517TIP3    H173966   0.336   4.175  11.707  2.5825 -0.9815  0.4740
17517TIP3    H273967   0.265   4.218  11.834 -0.3326 -1.7361 -0.8156
17518TIP3   OH273968   1.422   6.085   4.609 -0.6561 -0.6335 -0.3189
17518TIP3    H173969   1.443   6.023   4.539  0.5958 -0.7894  0.1660
17518TIP3    H273970   1.340   6.125   4.581  0.2915  0.0412 -2.3852
17519TIP3   OH273971   3.097   3.251   5.557 -0.1763 -0.0264  0.6233
17519TIP3    H173972   3.006   3.263   5.529 -0.1305  1.0408  0.8967
17519TIP3    H273973   3.114   3.158   5.544 -0.9486 -0.0267 -0.5087
17520TIP3   OH273974   0.189   5.384  17.174 -0.2449 -0.0904 -0.1280
17520TIP3    H173975   0.192   5.479  17.161 -1.3212  0.0848  0.8216
17520TIP3    H273976   0.228   5.370  17.260  2.4950 -0.8138 -1.3723
17521TIP3   OH273977   6.049   1.777  14.647  0.3775  0.2084 -0.3223
17521TIP3    H173978   5.997   1.825  14.582 -0.1794  1.1162  0.7462
17521TIP3    H273979   6.115   1.730  14.596  1.1175  2.3292 -1.4230
17522TIP3   OH273980   0.946   6.388  17.121  0.3410  0.5022  0.4324
17522TIP3    H173981   0.992   6.382  17.205  2.1623 -0.8764 -0.5732
17522TIP3    H273982   0.853   6.387  17.144  0.7816  0.3262  2.4233
17523TIP3   OH273983   4.708   3.540   4.288 -0.0083 -0.6749 -0.4566
17523TIP3    H173984   4.737   3.568   4.374 -0.1089 -3.8378  0.7200
17523TIP3    H273985   4.723   3.616   4.232  2.3834  0.6817  1.8150
17524TIP3   OH273986   4.727   1.979  10.411 -0.2827 -0.1482 -0.2134
17524TIP3    H173987   4.673   1.984  10.490  2.4563 -0.1901  1.7808
17524TIP3    H273988   4.770   2.065  10.406 -0.1713 -0.2591 -1.5146
17525TIP3   OH273989   5.086   3.478   2.907 -0.4789 -0.4831  0.2724
17525TIP3    H173990   5.015   3.526   2.863 -1.1846 -2.0958 -0.4113
17525TIP3    H273991   5.058   3.471   2.998  0.3446  1.6699  0.7515
17526TIP3   OH273992   1.687   2.119  11.809  0.0261 -0.1689 -0.3321
17526TIP3    H173993   1.751   2.057  11.846 -1.4622 -0.9556  1.0565
17526TIP3    H273994   1.658   2.171  11.883 -1.4157 -0.2707 -0.7952
17527TIP3   OH273995   1.522   0.584   5.503  0.0681 -0.1853 -0.2911
17527TIP3    H173996   1.535   0.493   5.531  0.0700 -0.0424  0.1787
17527TIP3    H273997   1.427   0.592   5.492 -0.0649  0.1007  0.8958
17528TIP3   OH273998   1.573   4.808  16.503  1.0029 -0.3065  0.4150
17528TIP3    H173999   1.565   4.715  16.482  0.7017 -0.1244 -0.3125
17528TIP3    H274000   1.575   4.852  16.417  0.8582  0.3792  0.7557
17529TIP3   OH274001   5.847   4.290  14.611  0.4329  0.3131  0.1219
17529TIP3    H174002   5.928   4.242  14.631  1.7295 -0.1503 -4.8163
17529TIP3    H274003   5.871   4.382  14.620  1.3879  0.1627 -0.6653
17530TIP3   OH274004   2.322   6.406   5.704  0.3722 -0.3620  0.1033
17530TIP3    H174005   2.387   6.443   5.645  2.9893  1.0482  3.4729
17530TIP3    H274006   2.335   6.311   5.698  1.3328 -0.1908 -0.7903
17531TIP3   OH274007   2.835   1.070  15.366  0.5368  0.4931 -0.1259
17531TIP3    H174008   2.880   1.128  15.305  0.8633  0.5085  0.1272
17531TIP3    H274009   2.805   0.997  15.312  0.2480  0.8202 -0.4193
17532TIP3   OH274010   6.724   3.162   2.047  0.1939 -0.3572 -0.2442
17532TIP3    H174011   6.686   3.076   2.034  0.3727 -0.7010  1.3401
17532TIP3    H274012   6.737   3.169   2.141  3.3266  0.0504 -0.5922
17533TIP3   OH274013   1.616   1.790  11.959  0.2886 -0.0528  0.3482
17533TIP3    H174014   1.665   1.868  11.935 -1.3613  1.1117  0.5332
17533TIP3    H274015   1.526   1.822  11.972 -0.1971 -1.7685  1.5951
17534TIP3   OH274016   1.024   4.109  14.101  0.1210  0.4757 -0.2120
17534TIP3    H174017   1.004   4.203  14.105  1.5277  0.9680 -2.5952
17534TIP3    H274018   0.965   4.069  14.165  0.5828  3.1221  2.0278
17535TIP3   OH274019   3.608   2.111   5.715 -0.4401 -0.1245  0.1022
17535TIP3    H174020   3.647   2.196   5.696 -0.0343 -0.4025 -0.3380
17535TIP3    H274021   3.625   2.097   5.808  0.2874 -0.1159 -0.0203
17536TIP3   OH274022   2.044   0.411   5.084  0.1731  0.5469 -0.0796
17536TIP3    H174023   1.969   0.465   5.111 -0.4229  1.3736 -2.9920
17536TIP3    H274024   2.100   0.471   5.034  1.5534 -0.6456 -0.0263
17537TIP3   OH274025   1.503   4.786   3.236  0.1970 -0.3246  0.6486
17537TIP3    H174026   1.411   4.781   3.262  0.0466 -0.6521  0.0646
17537TIP3    H274027   1.546   4.719   3.290  0.3652  0.8114  1.9896
17538TIP3   OH274028   3.785   4.238   5.084 -0.6979  0.1497 -0.4219
17538TIP3    H174029   3.842   4.313   5.070 -1.6605  1.2962  1.4142
17538TIP3    H274030   3.811   4.203   5.169 -2.9991  1.0551  0.7510
17539TIP3   OH274031   5.047   2.989   0.011  0.1370  0.1063 -0.0797
17539TIP3    H174032   5.001   2.927   0.067 -0.0010 -1.0138 -1.3719
17539TIP3    H274033   4.987   3.004  -0.063 -0.3738  2.7645  0.7525
17540TIP3   OH274034   4.692   6.723  11.313 -0.2628 -0.0192 -0.1677
17540TIP3    H174035   4.696   6.682  11.399  0.9889  2.0790  0.8656
17540TIP3    H274036   4.755   6.675  11.259  2.8882  1.7478  1.6479
17541TIP3   OH274037   1.022   2.782  15.180  0.3858  0.1014 -0.0105
17541TIP3    H174038   1.029   2.700  15.131 -2.2417  0.0089 -0.3636
17541TIP3    H274039   1.084   2.772  15.252  0.6557 -1.8689 -0.4533
17542TIP3   OH274040   4.907   0.632   0.008 -0.0252 -0.1041 -0.4883
17542TIP3    H174041   4.862   0.666  -0.069 -0.9634 -0.7298 -0.2389
17542TIP3    H274042   4.862   0.673   0.082  1.3424  1.0649 -0.2633
17543TIP3   OH274043   5.604   2.850   5.536  0.0529  0.1806 -0.1516
17543TIP3    H174044   5.610   2.816   5.446 -0.7997 -0.4902  0.0301
17543TIP3    H274045   5.674   2.915   5.542 -0.7329  1.2481 -1.7489
17544TIP3   OH274046   1.408   3.090  13.844  0.1553 -0.5789  0.2545
17544TIP3    H174047   1.475   3.133  13.791 -0.4373 -0.2310 -0.2153
17544TIP3    H274048   1.361   3.161  13.886  1.0556 -0.8607  1.8275
17545TIP3   OH274049   4.537   3.830   2.652 -0.2625  0.0852  0.2259
17545TIP3    H174050   4.583   3.889   2.592 -0.1778  0.5496  0.7330
17545TIP3    H274051   4.544   3.873   2.737  1.4576 -1.5605  0.9859
17546TIP3   OH274052   1.007   2.434  14.630  0.3549  0.1204 -0.3273
17546TIP3    H174053   1.022   2.341  14.611 -0.0515  0.5029 -2.8335
17546TIP3    H274054   0.916   2.439  14.658 -0.0799 -0.0693 -1.6661
17547TIP3   OH274055   1.735   1.966  11.489  0.2517  0.2255  0.5785
17547TIP3    H174056   1.830   1.968  11.473 -0.1638  1.1066 -2.2149
17547TIP3    H274057   1.703   1.894  11.435 -0.6708 -0.3304  1.8178
17548TIP3   OH274058   3.559   4.587  16.800  0.2783  0.1004  0.3300
17548TIP3    H174059   3.601   4.575  16.715  1.6499  1.4000  0.7907
17548TIP3    H274060   3.508   4.667  16.791 -0.2691 -0.2227  0.4801
17549TIP3   OH274061   1.601   5.018  11.141  0.0956  0.8203  0.6124
17549TIP3    H174062   1.598   4.949  11.075  0.2463 -0.3143  1.7563
17549TIP3    H274063   1.688   5.010  11.181 -0.6656  0.2122  2.2390
17550TIP3   OH274064   2.711   6.059   0.454  0.3675 -0.0862 -0.0148
17550TIP3    H174065   2.674   5.985   0.503  1.7143 -2.1592 -1.9088
17550TIP3    H274066   2.804   6.058   0.476  1.1859 -1.5970 -3.0100
17551TIP3   OH274067   0.231   6.171   5.985  0.0570  0.1252  0.1067
17551TIP3    H174068   0.263   6.118   6.058  0.9020 -0.4164 -0.6370
17551TIP3    H274069   0.229   6.260   6.018  1.8028  0.0956  0.3748
17552TIP3   OH274070   3.915   5.713   2.077  0.1398  0.4335 -0.0725
17552TIP3    H174071   3.848   5.726   2.143 -0.8205 -0.7056 -0.7816
17552TIP3    H274072   3.895   5.627   2.039  0.0309  1.4623 -2.5401
17553TIP3   OH274073   1.427   2.991  15.179  0.2540 -0.2089 -0.3917
17553TIP3    H174074   1.492   2.931  15.142  0.0978 -0.3139 -0.4943
17553TIP3    H274075   1.419   2.965  15.271  0.6130  0.0260 -0.2914
17554TIP3   OH274076   1.311   6.693   4.215 -0.5425  0.2134 -0.5743
17554TIP3    H174077   1.233   6.711   4.267 -0.0610 -1.5512  0.8862
17554TIP3    H274078   1.285   6.622   4.157 -0.0111 -0.5693  0.1055
17555TIP3   OH274079   1.425   4.362   5.895  0.0156  1.2411  0.0105
17555TIP3    H174080   1.369   4.382   5.969  0.0281 -1.6114  0.9104
17555TIP3    H274081   1.514   4.382   5.926 -0.0423  0.7124  0.5223
17556TIP3   OH274082   1.119   3.366  14.912 -0.4029  0.3959 -0.6897
17556TIP3    H174083   1.125   3.283  14.958 -0.5233 -0.1216 -1.5781
17556TIP3    H274084   1.193   3.418  14.945  0.3156 -0.4649 -0.9056
17557TIP3   OH274085   5.965   2.073  13.532 -0.1253 -0.1527 -0.0936
17557TIP3    H174086   5.985   1.980  13.525  1.1889  0.1963 -1.3569
17557TIP3    H274087   6.050   2.117  13.527 -0.7157  1.1234  0.5584
17558TIP3   OH274088   2.334   3.570  12.979 -0.2327  0.2433 -0.3128
17558TIP3    H174089   2.322   3.664  12.997  0.1012  0.1154  0.6591
17558TIP3    H274090   2.355   3.566  12.886  2.8386  1.4842  0.1983
17559TIP3   OH274091   4.120   0.642   0.680 -0.3222  0.5102  0.1845
17559TIP3    H174092   4.165   0.700   0.742 -0.5363  0.5254  0.3245
17559TIP3    H274093   4.065   0.701   0.628 -1.2452  0.3212  0.9380
17560TIP3   OH274094   0.458   5.041   0.522 -0.1848 -0.4196 -0.0980
17560TIP3    H174095   0.375   5.031   0.569 -0.5149 -0.2602 -0.6365
17560TIP3    H274096   0.484   5.132   0.538 -0.9972  0.0605 -1.3211
17561TIP3   OH274097   4.049   5.511  12.128 -0.6931 -0.6874  0.2203
17561TIP3    H174098   4.042   5.569  12.203 -1.3730  1.0220 -1.0973
17561TIP3    H274099   3.958   5.491  12.104 -0.5312 -0.0444 -0.9887
17562TIP3   OH274100   3.054   6.334  11.507 -0.1692 -0.8325 -0.0020
17562TIP3    H174101   3.147   6.317  11.491 -0.4382 -1.7065 -0.7278
17562TIP3    H274102   3.043   6.427  11.489  0.6790 -0.5871  0.6873
17563TIP3   OH274103   0.808   5.468  13.993  0.2482 -0.2841  0.4000
17563TIP3    H174104   0.736   5.418  14.030 -0.6903  0.0865 -0.8442
17563TIP3    H274105   0.767   5.524  13.927  1.8394 -1.1462 -1.4421
17564TIP3   OH274106   3.488   6.088  16.863  0.0776 -0.3542  0.1943
17564TIP3    H174107   3.520   6.101  16.952  1.2756 -1.6153 -0.0188
17564TIP3    H274108   3.453   5.999  16.863 -1.9093  0.3869 -0.0483
17565TIP3   OH274109   2.172   3.269  11.635  0.1061 -0.9234  0.5362
17565TIP3    H174110   2.121   3.203  11.683  1.0754 -0.7962  1.8072
17565TIP3    H274111   2.261   3.259  11.669  1.0420 -1.3240 -1.7975
17566TIP3   OH274112   4.794   2.689  11.511 -0.0608 -0.0905 -0.0359
17566TIP3    H174113   4.888   2.695  11.496 -0.2515  0.5950 -1.0322
17566TIP3    H274114   4.760   2.642  11.435 -0.5323 -0.3090  0.3002
17567TIP3   OH274115   5.639   1.515  12.279 -0.0506 -0.3658  0.1046
17567TIP3    H174116   5.565   1.478  12.231 -1.2773  2.8935 -0.7244
17567TIP3    H274117   5.600   1.558  12.355  1.2759 -0.4584  0.8730
17568TIP3   OH274118   3.310   1.483   3.798  0.0814 -0.0192 -0.0589
17568TIP3    H174119   3.330   1.394   3.771  1.7446  0.1915  0.3604
17568TIP3    H274120   3.327   1.484   3.892  0.0924  0.7450 -0.0631
17569TIP3   OH274121   5.792   5.763  11.206  1.2187  0.0700 -0.1455
17569TIP3    H174122   5.718   5.806  11.163 -1.2858 -3.1799  0.4855
17569TIP3    H274123   5.820   5.696  11.144  0.7593 -1.4976  1.2638
17570TIP3   OH274124   6.465   4.828   5.295  0.1050 -0.6653 -0.0102
17570TIP3    H174125   6.490   4.870   5.377 -0.4677  0.2856 -0.3022
17570TIP3    H274126   6.527   4.756   5.285  0.4933 -0.4920  1.0054
17571TIP3   OH274127   5.496   5.947   5.595  0.4270  0.0472  0.4256
17571TIP3    H174128   5.518   6.012   5.661  0.3462 -1.5949  2.1483
17571TIP3    H274129   5.432   5.890   5.638 -1.1129  0.0221 -1.7317
17572TIP3   OH274130   0.031   1.894   0.011  0.0796 -0.0457 -0.2970
17572TIP3    H174131   0.014   1.809  -0.029  0.3733  0.0057 -0.5328
17572TIP3    H274132  -0.051   1.943   0.001 -0.1602 -0.3762  0.0359
17573TIP3   OH274133   6.566   1.700   4.478 -0.1935  0.1036  0.4635
17573TIP3    H174134   6.661   1.710   4.487 -0.3134 -0.3087  3.2534
17573TIP3    H274135   6.530   1.784   4.506 -0.6565 -0.6624  2.3377
17574TIP3   OH274136   5.770   5.175  17.070 -0.0436  0.7310  0.0425
17574TIP3    H174137   5.703   5.106  17.069 -0.2610  0.9388 -0.8761
17574TIP3    H274138   5.784   5.196  16.977  0.3162  1.6367  0.2916
17575TIP3   OH274139   3.419   1.127  16.577  0.0368  0.0278  0.0703
17575TIP3    H174140   3.400   1.202  16.519 -1.8267 -0.4275  0.0315
17575TIP3    H274141   3.481   1.074  16.527  0.8149  1.1426 -0.2117
17576TIP3   OH274142   0.419   2.727  13.170  0.4243  0.0871  0.1915
17576TIP3    H174143   0.442   2.771  13.088 -0.5394  1.6692  0.7239
17576TIP3    H274144   0.378   2.796  13.223  2.9536 -0.2787  2.8756
17577TIP3   OH274145   3.959   4.304  15.571  0.0490  0.7363  0.4650
17577TIP3    H174146   3.916   4.236  15.520  0.9318 -0.8235  1.7287
17577TIP3    H274147   3.941   4.385  15.522  0.4358 -0.5848 -2.0529
17578TIP3   OH274148   3.364   3.088   4.689  0.1547 -0.0533 -0.1292
17578TIP3    H174149   3.309   3.013   4.714  0.8634 -0.0749  1.4617
17578TIP3    H274150   3.324   3.163   4.733 -0.1327  0.3914 -1.1337
17579TIP3   OH274151   5.193   1.161   4.107 -0.1796  0.5113 -0.3677
17579TIP3    H174152   5.164   1.250   4.125 -0.1363  0.2999  0.8327
17579TIP3    H274153   5.116   1.117   4.072 -0.7372  0.5406  0.7679
17580TIP3   OH274154   1.468   5.874   5.477  0.1697  0.7530  0.2362
17580TIP3    H174155   1.467   5.781   5.452 -2.0971  0.7041  0.3273
17580TIP3    H274156   1.380   5.905   5.457  1.1379  3.1551 -0.6214
17581TIP3   OH274157   0.523   1.382   5.595  0.1133  0.1095  0.1032
17581TIP3    H174158   0.618   1.375   5.606  0.6908  2.6982 -2.1641
17581TIP3    H274159   0.505   1.475   5.603 -2.1128 -0.2326 -0.4498
17582TIP3   OH274160   0.410   2.247   4.186  0.6255  0.1015  0.0145
17582TIP3    H174161   0.322   2.286   4.188  0.2736 -0.7085  0.7642
17582TIP3    H274162   0.466   2.313   4.227  0.2546  0.3430  0.1365
17583TIP3   OH274163   5.237   1.047   2.811 -0.0228  0.4300 -0.1541
17583TIP3    H174164   5.304   1.009   2.868  0.3816  2.0696  0.5181
17583TIP3    H274165   5.159   0.995   2.829 -0.0178  1.1288  2.2438
17584TIP3   OH274166   5.152   2.664  13.444  0.3770 -0.1797 -0.5508
17584TIP3    H174167   5.139   2.753  13.412 -1.9500 -0.5847 -0.8839
17584TIP3    H274168   5.169   2.675  13.537  0.6368  0.6224 -0.6784
17585TIP3   OH274169   1.911   5.997   1.081 -0.3383  1.3640  0.3615
17585TIP3    H174170   1.818   6.004   1.102 -0.9779 -0.2172 -1.5671
17585TIP3    H274171   1.941   5.920   1.129  0.3346  2.5429  1.9200
17586TIP3   OH274172   2.285   5.678   5.577 -0.7832  0.3891 -0.1468
17586TIP3    H174173   2.266   5.591   5.540 -2.4196 -0.0558  1.6236
17586TIP3    H274174   2.374   5.671   5.610  0.0136  0.1987 -2.1953
17587TIP3   OH274175   2.735   0.384   3.538  0.1069  0.6167  0.6611
17587TIP3    H174176   2.654   0.333   3.544 -1.0663  2.0718 -1.3225
17587TIP3    H274177   2.805   0.318   3.533 -1.1303 -0.7339  0.4158
17588TIP3   OH274178   0.720   4.381  15.112 -0.0371  0.2411 -0.3104
17588TIP3    H174179   0.761   4.424  15.187  2.1804 -0.6815 -0.9407
17588TIP3    H274180   0.687   4.454  15.059  0.2618  0.9868  0.5019
17589TIP3   OH274181   0.362   6.128  17.260 -0.0657  0.6993  1.1707
17589TIP3    H174182   0.294   6.192  17.240 -0.5945 -0.6191 -1.6927
17589TIP3    H274183   0.444   6.172  17.238 -0.4587  0.3065 -1.3482
17590TIP3   OH274184   5.817   4.317   4.181  0.1402 -0.2176  0.0072
17590TIP3    H174185   5.907   4.328   4.214 -0.2720 -0.5666  1.3239
17590TIP3    H274186   5.822   4.344   4.089  1.5747 -0.1614  0.0692
17591TIP3   OH274187   3.063   6.487   2.892 -0.1930  0.2510 -0.9358
17591TIP3    H174188   3.091   6.410   2.942  1.0125  1.8677  1.0189
17591TIP3    H274189   3.141   6.514   2.844 -0.1651  1.0678 -0.4547
17592TIP3   OH274190   1.240   6.089   5.057  0.5601 -0.3437  0.4903
17592TIP3    H174191   1.263   6.131   5.140  2.8357 -1.2601  0.3881
17592TIP3    H274192   1.181   6.018   5.082 -0.4986  0.6870  1.0411
17593TIP3   OH274193   0.578   6.311  15.214  0.4176  0.0171 -0.2255
17593TIP3    H174194   0.507   6.275  15.161  0.7478  1.4513 -1.7390
17593TIP3    H274195   0.642   6.240  15.220 -0.2634 -0.6411 -0.5264
17594TIP3   OH274196   2.147   6.032   4.146 -0.2287  0.1481  0.4158
17594TIP3    H174197   2.090   6.106   4.124 -0.7514  0.2227  1.9512
17594TIP3    H274198   2.115   5.960   4.091  0.1305  0.9775 -0.9131
17595TIP3   OH274199   4.116   1.922   3.515  0.3440 -0.0118  0.2699
17595TIP3    H174200   4.096   1.971   3.435  0.6232  0.6320  0.5858
17595TIP3    H274201   4.170   1.982   3.567 -0.3437 -0.1931  1.2085
17596TIP3   OH274202   3.068   1.059  12.051 -0.5580 -0.0120 -0.7534
17596TIP3    H174203   3.028   1.019  11.973  0.1771 -0.6125 -0.8303
17596TIP3    H274204   3.159   1.074  12.026 -0.9778  2.5436 -1.0403
17597TIP3   OH274205   0.915   0.745   1.782 -0.4886  0.0313  0.0333
17597TIP3    H174206   0.934   0.837   1.764  0.5902 -0.6181 -2.4862
17597TIP3    H274207   0.819   0.742   1.787 -0.6240  1.0610 -1.3277
17598TIP3   OH274208   1.265   5.120   3.003  0.3029 -0.0856  0.0737
17598TIP3    H174209   1.171   5.112   2.992  0.2171  1.0956 -0.1448
17598TIP3    H274210   1.282   5.092   3.093 -0.4786  1.3114  0.6774
17599TIP3   OH274211   1.052   1.956  16.577 -0.3614  0.3457  0.2348
17599TIP3    H174212   1.130   2.011  16.569 -0.8849  1.4985  2.2863
17599TIP3    H274213   1.071   1.898  16.651 -1.0534 -0.0208  0.1367
17600TIP3   OH274214   4.813   6.125  14.710 -0.8611  0.1470  0.1329
17600TIP3    H174215   4.827   6.213  14.745 -0.8755  0.5707 -0.8927
17600TIP3    H274216   4.901   6.091  14.695 -0.8340  0.7601 -1.3000
17601TIP3   OH274217   5.122   5.708   1.501 -0.1155  0.0403  0.1555
17601TIP3    H174218   5.209   5.736   1.529 -0.3214  0.3197  0.5121
17601TIP3    H274219   5.119   5.729   1.408  0.0389  0.4372  0.2393
17602TIP3   OH274220   6.628   4.631   5.275  0.3820 -0.1770 -0.2793
17602TIP3    H174221   6.647   4.553   5.327  1.3673  1.2907  1.7308
17602TIP3    H274222   6.710   4.649   5.228  0.4753  0.1542  0.0043
17603TIP3   OH274223   5.631   4.428  14.822  0.1892  0.0896  0.6884
17603TIP3    H174224   5.703   4.368  14.802  0.2287 -0.0533  1.2602
17603TIP3    H274225   5.652   4.507  14.772 -0.3840 -0.7062 -0.8762
17604TIP3   OH274226   0.281   1.190   3.401  0.1245 -0.0176  0.2708
17604TIP3    H174227   0.218   1.185   3.329 -0.0875 -0.4831  0.4840
17604TIP3    H274228   0.310   1.282   3.402 -0.4225  0.1604  0.0641
17605TIP3   OH274229   3.314   0.347  12.646  0.5341  0.1389  0.2715
17605TIP3    H174230   3.262   0.277  12.686  2.4322 -1.3501  0.2697
17605TIP3    H274231   3.385   0.302  12.600  1.8806  2.0724  0.3111
17606TIP3   OH274232   3.530   2.038   3.551 -0.2154  0.4438  0.3079
17606TIP3    H174233   3.527   1.942   3.545  0.5515  0.4530 -0.3030
17606TIP3    H274234   3.518   2.068   3.461 -1.6633  0.9777  0.6446
17607TIP3   OH274235   2.609   0.926   2.537 -0.5784  0.0085  0.1983
17607TIP3    H174236   2.588   0.919   2.444 -2.5315 -2.0562  0.7059
17607TIP3    H274237   2.689   0.979   2.539  0.2354 -0.8665 -2.7364
17608TIP3   OH274238   4.819   6.005  12.020  0.4375 -0.0227  0.1619
17608TIP3    H174239   4.816   6.099  12.039 -0.3649  0.3525 -1.6022
17608TIP3    H274240   4.730   5.983  11.992  0.7733 -1.1827 -0.0427
17609TIP3   OH274241   5.487   5.886  14.803  0.3309 -0.0406  0.2354
17609TIP3    H174242   5.475   5.877  14.709 -2.9522 -0.6857  0.5941
17609TIP3    H274243   5.511   5.978  14.815  2.2311 -0.2804 -1.2629
17610TIP3   OH274244   6.688   1.987  16.012  0.4990 -0.0177  0.0309
17610TIP3    H174245   6.754   1.961  16.076  1.4903 -1.0215 -1.3224
17610TIP3    H274246   6.731   1.974  15.927 -0.3512  2.3611 -0.8484
17611TIP3   OH274247   3.577   6.392   6.001 -0.4186 -0.0357  1.0821
17611TIP3    H174248   3.646   6.327   5.987 -0.2540  0.1549  0.9938
17611TIP3    H274249   3.591   6.423   6.090  0.5886  1.1240  0.5569
17612TIP3   OH274250   5.871   3.972   2.847 -0.2716  0.2288  0.5007
17612TIP3    H174251   5.878   3.980   2.752 -2.6248  0.7128  0.3087
17612TIP3    H274252   5.960   3.949   2.875  0.6546  0.7682 -1.7165
17613TIP3   OH274253   3.304   1.673  13.458  0.2654  0.5907  0.2278
17613TIP3    H174254   3.295   1.767  13.469 -1.3487  0.2499  2.5047
17613TIP3    H274255   3.235   1.648  13.397  1.4997  0.9803 -1.3973
17614TIP3   OH274256   6.674   3.005   5.103 -0.0778  0.0602  0.6928
17614TIP3    H174257   6.632   3.054   5.174 -1.5927 -1.9972  1.3013
17614TIP3    H274258   6.615   3.016   5.029  0.2663  0.2357  0.4446
17615TIP3   OH274259   3.480   5.034  11.467 -0.3192 -0.3466 -0.2136
17615TIP3    H174260   3.517   5.085  11.394  2.0498  1.0303  1.7940
17615TIP3    H274261   3.427   5.097  11.516 -1.3540 -1.0944 -0.3391
17616TIP3   OH274262   1.622   1.525  11.541  0.2921  0.1641 -0.4519
17616TIP3    H174263   1.533   1.559  11.542  1.5845  4.0888 -0.2957
17616TIP3    H274264   1.634   1.491  11.452 -1.4619 -0.9940 -0.2925
17617TIP3   OH274265   0.956   1.688  15.779 -0.5647  0.6458 -0.1110
17617TIP3    H174266   0.953   1.642  15.863  1.4284 -1.0616 -0.8857
17617TIP3    H274267   1.014   1.763  15.794  1.3126 -0.6847 -0.3348
17618TIP3   OH274268   1.669   0.018  12.104 -0.1216 -0.1287  0.2374
17618TIP3    H174269   1.664   0.037  12.011 -0.9263  0.0739  0.3189
17618TIP3    H274270   1.682  -0.076  12.109 -0.9547 -0.2683 -0.0677
17619TIP3   OH274271   6.619   5.459   3.369  0.1122  0.3889  0.1692
17619TIP3    H174272   6.695   5.417   3.409 -1.1169 -0.1092  2.1561
17619TIP3    H274273   6.546   5.439   3.429 -1.0863  3.0269 -0.2469
17620TIP3   OH274274   1.220   4.369  12.927 -0.0404  0.0362 -0.2335
17620TIP3    H174275   1.180   4.357  12.841  0.2758  0.4535 -0.4440
17620TIP3    H274276   1.225   4.464  12.938  2.2759  0.0504 -0.8767
17621TIP3   OH274277   3.457   3.448  15.939 -0.1723  0.2672  0.5456
17621TIP3    H174278   3.414   3.505  15.874 -1.6275 -1.1330  0.2198
17621TIP3    H274279   3.409   3.465  16.020  2.5057  3.0444  1.7615
17622TIP3   OH274280   1.459   4.354  13.243 -0.1092 -0.1675  0.3283
17622TIP3    H174281   1.448   4.325  13.153  0.6143  1.5185 -0.3574
17622TIP3    H274282   1.381   4.322  13.289 -1.5561  0.7358 -1.3866
17623TIP3   OH274283   1.976   0.761  16.040 -0.4912  0.4448  0.4600
17623TIP3    H174284   2.068   0.786  16.030 -0.0121  1.1175  4.6322
17623TIP3    H274285   1.971   0.674  16.000  2.0220  0.2934  0.3110
17624TIP3   OH274286   2.419   4.792  11.377  0.1226  0.8239  0.2827
17624TIP3    H174287   2.422   4.872  11.430 -0.8314  1.1214 -0.0890
17624TIP3    H274288   2.368   4.730  11.429 -1.9468  1.5429 -0.7976
17625TIP3   OH274289   5.197   0.062   0.538 -0.5449 -0.2221  0.1074
17625TIP3    H174290   5.102   0.051   0.540 -0.6653  0.5629 -0.5753
17625TIP3    H274291   5.232  -0.024   0.558 -1.4028 -0.4243  0.7953
17626TIP3   OH274292   1.020   0.928  11.157  0.0619 -0.4478 -0.4481
17626TIP3    H174293   0.970   0.952  11.079 -0.0359  1.1687  0.0685
17626TIP3    H274294   1.073   1.005  11.176 -0.6058 -0.4272  1.6174
17627TIP3   OH274295   4.145   3.031   2.045 -0.0310  0.4451  0.2934
17627TIP3    H174296   4.168   3.036   2.138  0.4991 -2.4317  0.4173
17627TIP3    H274297   4.058   3.070   2.040 -0.7439 -0.7364  2.3091
17628TIP3   OH274298   1.435   1.968   0.179 -0.4289 -0.4164 -0.1694
17628TIP3    H174299   1.341   1.950   0.176 -0.5582  0.2115 -2.5632
17628TIP3    H274300   1.449   2.027   0.104  1.5883  0.9457  1.2065
17629TIP3   OH274301   2.371   3.776   3.216 -0.4823  0.1954 -0.2599
17629TIP3    H174302   2.386   3.725   3.136 -2.0889  1.1878 -1.2365
17629TIP3    H274303   2.442   3.840   3.217 -0.2591 -0.0365 -0.7018
17630TIP3   OH274304   6.353   6.726  16.721  0.0047 -0.0103  0.4152
17630TIP3    H174305   6.334   6.638  16.754 -1.3680 -0.1377 -0.6429
17630TIP3    H274306   6.270   6.758  16.687  0.4837  1.7182  0.7832
17631TIP3   OH274307   3.416   4.386   0.415  0.0284 -0.3101  0.0383
17631TIP3    H174308   3.330   4.345   0.428  0.3944 -0.9440  0.5277
17631TIP3    H274309   3.418   4.457   0.479  0.3605 -1.0946  0.9197
17632TIP3   OH274310   1.210   4.855  16.161  0.4178 -0.6722 -0.0813
17632TIP3    H174311   1.259   4.881  16.083  2.7561 -1.6576  0.9562
17632TIP3    H274312   1.137   4.802  16.128  0.7959 -0.2600 -1.6388
17633TIP3   OH274313   6.131   1.853   1.089 -0.2830 -0.2030 -0.4132
17633TIP3    H174314   6.200   1.901   1.043  0.1318 -1.0062 -0.6644
17633TIP3    H274315   6.164   1.845   1.179  0.2595 -1.1048 -0.6712
17634TIP3   OH274316   1.664   0.290   1.421 -0.1541 -0.8245  0.6132
17634TIP3    H174317   1.751   0.252   1.408  0.4913  0.5444  0.7239
17634TIP3    H274318   1.646   0.277   1.514  0.5030 -0.0268  0.8724
17635TIP3   OH274319   1.390   6.601   4.854 -0.4073 -0.5559  0.2261
17635TIP3    H174320   1.444   6.680   4.861 -0.9090 -0.1893 -0.0203
17635TIP3    H274321   1.303   6.633   4.834 -0.1598 -1.2850 -2.2904
17636TIP3   OH274322   1.924   4.721   2.797 -0.6472 -0.7699  0.1903
17636TIP3    H174323   1.835   4.731   2.833 -0.0172  1.9488  1.2730
17636TIP3    H274324   1.914   4.736   2.703 -1.1973  0.9741  0.4913
17637TIP3   OH274325   6.624   5.304  13.187  0.3792  0.8206 -0.2550
17637TIP3    H174326   6.616   5.385  13.137  3.3166  1.4667  0.1079
17637TIP3    H274327   6.642   5.333  13.277  0.8824 -0.2241 -0.0043
17638TIP3   OH274328   4.068   6.526   1.369  0.0305  0.0667 -1.1116
17638TIP3    H174329   4.127   6.539   1.444  0.2248 -1.0224 -1.0701
17638TIP3    H274330   4.112   6.572   1.297  0.6602 -0.2527 -0.9449
17639TIP3   OH274331   4.652   5.516   4.012 -0.0381 -0.1933  0.4440
17639TIP3    H174332   4.661   5.603   4.049 -2.9100 -0.0568  1.0438
17639TIP3    H274333   4.650   5.457   4.088  0.7510 -0.6820  0.1037
17640TIP3   OH274334   3.760   4.431   4.373  0.3482 -0.4886 -0.3668
17640TIP3    H174335   3.720   4.508   4.332 -0.4383 -0.0409  1.1643
17640TIP3    H274336   3.719   4.426   4.459  0.8323 -2.2855 -0.2112
17641TIP3   OH274337   6.474   4.481   3.368  0.0230  0.2727  0.3133
17641TIP3    H174338   6.442   4.396   3.397  0.2705  0.1502  0.2295
17641TIP3    H274339   6.529   4.461   3.292  1.0138  0.3923  0.9851
17642TIP3   OH274340   6.578   6.402   4.770 -0.0747 -0.5488  0.7705
17642TIP3    H174341   6.659   6.357   4.744  0.8797  0.1470  2.3406
17642TIP3    H274342   6.565   6.468   4.702  1.3420  0.0799  1.0716
17643TIP3   OH274343   3.858   4.891  16.058 -0.2642  0.1456 -0.2046
17643TIP3    H174344   3.866   4.820  15.994 -0.8766 -0.6271  0.5376
17643TIP3    H274345   3.763   4.906  16.065 -0.2129  0.2003  0.5140
17644TIP3   OH274346   4.225   0.735  11.922  0.4572  0.5104  0.0302
17644TIP3    H174347   4.181   0.671  11.867  2.5043 -1.6503  0.7358
17644TIP3    H274348   4.304   0.690  11.953  0.8206  2.5785  2.4503
17645TIP3   OH274349   1.203   2.779   1.475 -0.2599  0.7341  0.1139
17645TIP3    H174350   1.253   2.772   1.394 -0.3421 -0.2048  0.1410
17645TIP3    H274351   1.131   2.838   1.453 -0.7328 -0.1381 -0.7309
17646TIP3   OH274352   4.617   3.929  11.891 -0.2298  0.0094 -0.2370
17646TIP3    H174353   4.614   4.009  11.942 -2.0190  0.2305 -0.6412
17646TIP3    H274354   4.692   3.942  11.832  2.3927 -0.5798  2.6974
17647TIP3   OH274355   2.031   5.915  16.702  0.2482 -0.2453 -0.7914
17647TIP3    H174356   2.015   5.848  16.635  5.5664 -1.6371 -1.1261
17647TIP3    H274357   2.087   5.979  16.659  2.2437 -0.1512  1.7155
17648TIP3   OH274358   2.948   2.069   4.144 -0.3917 -0.4330  0.0799
17648TIP3    H174359   2.990   2.140   4.191  0.5865  0.4423 -2.0252
17648TIP3    H274360   2.999   2.058   4.064 -1.2263 -2.7148 -0.2313
17649TIP3   OH274361   2.515   4.275  16.918 -0.4646 -0.4300  0.0324
17649TIP3    H174362   2.511   4.237  16.830  0.1031 -0.3604 -0.0270
17649TIP3    H274363   2.495   4.367  16.906  1.4047 -0.0312 -0.2946
17650TIP3   OH274364   2.173   3.710  10.461 -0.1121  0.4919  0.4155
17650TIP3    H174365   2.081   3.732  10.476 -0.4190  0.3590 -1.0607
17650TIP3    H274366   2.177   3.614  10.469 -0.0109  0.5371  0.9103
17651TIP3   OH274367   5.100   0.808  10.867 -0.0987 -0.0765 -0.4748
17651TIP3    H174368   5.023   0.781  10.817 -0.9034  2.7802 -0.9708
17651TIP3    H274369   5.074   0.800  10.959 -0.9701  0.7492 -0.6369
17652TIP3   OH274370   4.858   2.833  12.699  0.0625 -0.1812  0.5182
17652TIP3    H174371   4.914   2.909  12.713  4.5532 -2.7482 -1.2799
17652TIP3    H274372   4.852   2.791  12.785  0.5154  0.3929  0.8334
17653TIP3   OH274373   1.217   0.620   2.627 -0.3177  0.6605  0.1101
17653TIP3    H174374   1.194   0.643   2.716 -0.5736  0.8097  0.0043
17653TIP3    H274375   1.134   0.611   2.581 -0.1798  0.9209 -0.1990
17654TIP3   OH274376   5.312   5.575   4.143 -0.2001 -0.0957 -0.3062
17654TIP3    H174377   5.375   5.623   4.197 -0.8367  1.1569 -0.6451
17654TIP3    H274378   5.321   5.484   4.172  1.4364  0.1153 -0.0465
17655TIP3   OH274379   4.165   5.089  11.513  0.0647  0.0421  0.1804
17655TIP3    H174380   4.147   5.127  11.426 -0.0627 -0.7867 -0.1660
17655TIP3    H274381   4.110   5.012  11.517  0.6413 -0.3523  0.6960
17656TIP3   OH274382   3.287   3.033   0.562 -0.0554  0.2372  0.2444
17656TIP3    H174383   3.264   3.110   0.614  0.2206  2.1409 -2.2639
17656TIP3    H274384   3.382   3.039   0.551 -0.1160 -0.0829 -0.5194
17657TIP3   OH274385   1.572   1.372  12.571  0.1723  0.8064 -0.1140
17657TIP3    H174386   1.490   1.365  12.622 -0.8201 -2.1466 -1.8783
17657TIP3    H274387   1.553   1.438  12.504  0.0583  1.7497  0.8257
17658TIP3   OH274388   3.254   4.574   2.189  0.1161 -0.0176  1.0840
17658TIP3    H174389   3.344   4.577   2.155  1.2835  2.3260  4.0004
17658TIP3    H274390   3.220   4.662   2.176 -1.0888 -0.3643  1.7133
17659TIP3   OH274391   5.522   3.761  14.216  0.4082  0.3663  0.3239
17659TIP3    H174392   5.475   3.692  14.169  1.0457 -0.2661  0.5987
17659TIP3    H274393   5.455   3.803  14.270  0.6334 -2.9722  3.6745
17660TIP3   OH274394   0.791   1.929   1.697 -0.1173  0.5749  0.0336
17660TIP3    H174395   0.708   1.977   1.694 -0.4478  0.1376  1.2696
17660TIP3    H274396   0.784   1.875   1.776  0.3931 -1.2173 -1.0913
17661TIP3   OH274397   5.080   3.415   4.255 -0.0438 -0.6451 -0.2770
17661TIP3    H174398   5.131   3.378   4.183  0.3498  0.5925 -0.6507
17661TIP3    H274399   5.099   3.358   4.330 -1.4885 -2.7535 -1.4137
17662TIP3   OH274400   0.414   3.879  15.588 -0.3880  1.1318 -0.0847
17662TIP3    H174401   0.405   3.897  15.682  0.2094  0.3255  0.1395
17662TIP3    H274402   0.506   3.858  15.577 -1.0831 -2.6469 -0.1061
17663TIP3   OH274403   5.049   3.808  15.452  0.6755  1.0573 -0.4420
17663TIP3    H174404   5.082   3.816  15.542 -0.0175  0.6800 -0.1475
17663TIP3    H274405   4.969   3.861  15.451 -0.0115  0.0412 -0.4754
17664TIP3   OH274406   1.605   3.900  12.796  0.0418  0.1443  0.2100
17664TIP3    H174407   1.585   3.987  12.761 -1.7738 -0.6674 -0.8684
17664TIP3    H274408   1.520   3.860  12.811  0.8568 -1.4220  0.8364
17665TIP3   OH274409   3.881   5.623   5.686  0.3405  0.0581 -0.2446
17665TIP3    H174410   3.901   5.655   5.774 -1.5077 -0.0484  0.2536
17665TIP3    H274411   3.920   5.687   5.627  0.9517  0.5295  0.6570
17666TIP3   OH274412   3.411   2.940   3.818  0.0692  0.9255 -0.7193
17666TIP3    H174413   3.327   2.965   3.856  0.8396 -0.8279  2.5260
17666TIP3    H274414   3.389   2.909   3.730 -2.3128  2.5120 -0.7711
17667TIP3   OH274415   4.243   3.597  13.587  0.5612  0.4355 -0.2435
17667TIP3    H174416   4.278   3.649  13.515  0.0791  1.2530  0.1090
17667TIP3    H274417   4.160   3.638  13.609  0.0672 -0.6095 -0.0924
17668TIP3   OH274418   3.891   2.216  11.654  0.0119 -0.1834 -0.2624
17668TIP3    H174419   3.932   2.196  11.738 -0.5801 -0.2541  0.0140
17668TIP3    H274420   3.937   2.294  11.623 -1.9294  1.9181  1.7092
17669TIP3   OH274421   4.966   4.741   3.135 -0.3771 -0.3775 -0.0600
17669TIP3    H174422   4.947   4.686   3.059  1.2542 -1.0322 -0.0439
17669TIP3    H274423   4.980   4.678   3.207 -2.4461  0.2474  0.9548
17670TIP3   OH274424   1.429   2.046  11.606 -0.2716  0.6742  0.7575
17670TIP3    H174425   1.383   2.015  11.529  0.2502  0.0793  0.6746
17670TIP3    H274426   1.387   2.002  11.680 -0.0557  0.3871  0.7109
17671TIP3   OH274427   6.195   1.656   2.325  0.0161 -0.4851  0.2800
17671TIP3    H174428   6.234   1.617   2.403  0.4672  1.5842  1.1540
17671TIP3    H274429   6.230   1.605   2.252  1.7060 -0.7844  1.2557
17672TIP3   OH274430   0.876   3.353   1.635  0.0042 -0.2175  0.5487
17672TIP3    H174431   0.840   3.298   1.566  0.1911 -0.6165  0.7635
17672TIP3    H274432   0.937   3.411   1.591 -0.3162 -0.0669  0.2965
17673TIP3   OH274433   0.483   5.235   4.481 -0.5343  0.1363 -0.1297
17673TIP3    H174434   0.535   5.155   4.471 -3.4421 -1.9605  0.3959
17673TIP3    H274435   0.504   5.266   4.570 -1.3848 -1.6577  0.7459
17674TIP3   OH274436   6.233   2.606  12.034  0.6751 -0.0519  0.2066
17674TIP3    H174437   6.190   2.622  12.118  1.0146 -0.7320  0.5207
17674TIP3    H274438   6.326   2.621  12.052  1.1912 -3.2130  0.8203
17675TIP3   OH274439   0.790   1.121  14.405 -0.2755 -0.1060 -0.8444
17675TIP3    H174440   0.795   1.168  14.488  0.8717 -1.5155 -0.0749
17675TIP3    H274441   0.703   1.143  14.371 -0.6073  0.8247  0.5093
17676TIP3   OH274442   4.885   5.416   3.006 -0.3513  0.1278  0.3362
17676TIP3    H174443   4.951   5.418   3.075  1.4759 -0.2039 -1.3200
17676TIP3    H274444   4.874   5.323   2.987 -1.3743  0.1762  0.6217
17677TIP3   OH274445   1.151   2.430   3.573 -0.0131 -0.1629 -0.1031
17677TIP3    H174446   1.188   2.422   3.486 -1.9415  1.7316 -1.2046
17677TIP3    H274447   1.103   2.349   3.586  0.9358 -0.7921 -0.4546
17678TIP3   OH274448   2.347   6.122  15.275 -0.1062 -0.2303 -0.3756
17678TIP3    H174449   2.327   6.210  15.307  1.0140  0.0522 -0.4079
17678TIP3    H274450   2.369   6.134  15.182 -0.2894 -0.5943 -0.4691
17679TIP3   OH274451   0.797   0.091  14.592 -0.5319  0.1539  0.1411
17679TIP3    H174452   0.887   0.057  14.590 -0.7244 -0.6304  2.0371
17679TIP3    H274453   0.792   0.152  14.519  1.3215 -0.3340 -0.4438
17680TIP3   OH274454   0.248   5.072  13.981 -0.4129 -0.5730  0.4329
17680TIP3    H174455   0.314   5.054  14.048 -0.1849 -0.0148  0.3604
17680TIP3    H274456   0.297   5.109  13.908 -0.7725 -0.3725  0.2875
17681TIP3   OH274457   2.932   6.497  15.140 -0.5940  0.4239  0.4864
17681TIP3    H174458   2.910   6.429  15.075 -0.2264 -0.8418  1.6380
17681TIP3    H274459   2.917   6.579  15.094  2.2780 -0.3419 -2.1695
17682TIP3   OH274460   1.164   4.911  11.431  0.2758 -0.2742 -0.1581
17682TIP3    H174461   1.226   4.940  11.499 -0.5634  0.3396  0.3739
17682TIP3    H274462   1.141   4.991  11.384 -1.2118 -0.2039  0.6022
17683TIP3   OH274463   0.889   3.779   2.451 -0.1164  0.3922  0.4176
17683TIP3    H174464   0.975   3.755   2.416 -0.8366  0.0239 -1.1907
17683TIP3    H274465   0.842   3.696   2.458 -0.3417  0.5847  1.3544
17684TIP3   OH274466   1.457   4.666   0.705  0.5786 -0.9398 -0.6739
17684TIP3    H174467   1.485   4.743   0.656 -0.2679  0.6974  1.2777
17684TIP3    H274468   1.375   4.692   0.747  0.9325 -2.4451  1.0973
17685TIP3   OH274469   6.385   4.639   2.216 -0.1393 -0.3256 -0.2186
17685TIP3    H174470   6.375   4.708   2.150 -0.3967  0.0060  0.1603
17685TIP3    H274471   6.301   4.594   2.216  0.5031 -1.6245 -1.5290
17686TIP3   OH274472   5.203   5.319  13.744 -0.3909 -0.9658 -0.0557
17686TIP3    H174473   5.143   5.292  13.674 -0.6182 -0.3099 -0.1256
17686TIP3    H274474   5.182   5.262  13.817 -2.0553  0.1306  0.3657
17687TIP3   OH274475   5.290   5.584   3.690  0.2020  0.2346  0.0297
17687TIP3    H174476   5.303   5.489   3.687  1.3144  0.3759  0.0430
17687TIP3    H274477   5.197   5.595   3.713  0.0464 -0.8424 -0.0439
17688TIP3   OH274478   0.566   5.934   5.283  0.3093 -0.1357 -0.3359
17688TIP3    H174479   0.582   5.857   5.228  1.2936  0.6652 -1.1964
17688TIP3    H274480   0.653   5.970   5.300 -0.1726  1.1748 -0.5181
17689TIP3   OH274481   0.268   6.401   2.188  0.6757  0.4396 -0.2516
17689TIP3    H174482   0.256   6.308   2.167  0.4075  0.6228 -0.9441
17689TIP3    H274483   0.346   6.403   2.243  0.8037 -0.1813 -0.3991
17690TIP3   OH274484   0.077   3.402  16.932 -0.3202 -0.0971  0.2286
17690TIP3    H174485   0.018   3.381  17.004 -2.6242  1.1254 -1.1837
17690TIP3    H274486   0.090   3.497  16.937 -0.9473  0.0984 -1.2253
17691TIP3   OH274487   3.724   1.171  11.438 -0.3009 -0.1020  0.3337
17691TIP3    H174488   3.797   1.223  11.474 -0.8719  0.7373  0.3052
17691TIP3    H274489   3.691   1.224  11.366 -2.1012  0.3914  1.4750
17692TIP3   OH274490   6.050   0.629   3.613 -0.4600 -0.2673  0.2600
17692TIP3    H174491   6.007   0.550   3.580 -1.0513 -0.9022  2.4273
17692TIP3    H274492   6.032   0.629   3.707 -1.3665  2.9779  0.2114
17693TIP3   OH274493   0.657   5.069  13.119  0.0775  0.2106  0.2447
17693TIP3    H174494   0.699   5.089  13.203 -0.7624 -1.0373  0.9981
17693TIP3    H274495   0.646   4.974  13.120 -0.7493  0.2735 -0.8892
17694TIP3   OH274496   5.172   0.761  14.357 -0.0534  0.4229  0.1451
17694TIP3    H174497   5.256   0.732  14.391  0.0116  0.9328  0.4264
17694TIP3    H274498   5.189   0.849  14.324 -0.3969  0.3937 -0.1135
17695TIP3   OH274499   1.032   0.759  14.748  0.0826 -0.3491 -0.5181
17695TIP3    H174500   1.010   0.689  14.686  0.2901  0.0061 -1.0027
17695TIP3    H274501   1.114   0.796  14.714 -0.7678  1.0831 -1.1253
17696TIP3   OH274502   5.210   2.031  11.830  0.6491 -0.0296  0.3887
17696TIP3    H174503   5.278   2.092  11.856 -0.5267  1.9243 -0.8579
17696TIP3    H274504   5.254   1.946  11.825  2.8877  1.0767  0.0231
17697TIP3   OH274505   2.676   3.000   0.105  0.7730 -0.0868  0.0063
17697TIP3    H174506   2.764   2.964   0.116  1.6982  1.7684 -0.7792
17697TIP3    H274507   2.640   3.002   0.193  1.4037 -1.1438  0.3022
17698TIP3   OH274508   0.554   1.125   3.410  0.0434  0.4882  0.3123
17698TIP3    H174509   0.499   1.124   3.332 -0.9634  0.6236  1.0035
17698TIP3    H274510   0.534   1.043   3.455 -0.6283  1.1521  1.2589
17699TIP3   OH274511   4.128   0.356  14.704 -0.2449 -0.6988 -0.2512
17699TIP3    H174512   4.108   0.388  14.792 -0.5566 -1.1051 -0.1736
17699TIP3    H274513   4.139   0.436  14.652  0.0078 -0.4597  0.1701
17700TIP3   OH274514   1.078   1.185  16.397 -0.4394 -0.0422  0.2511
17700TIP3    H174515   1.122   1.183  16.482 -1.3554 -0.2409  0.7369
17700TIP3    H274516   1.031   1.269  16.396 -1.2350 -0.4776  0.3670
17701TIP3   OH274517   5.493   3.864  15.618 -0.1444  0.3011 -0.7850
17701TIP3    H174518   5.517   3.771  15.616  1.8155  0.7321  0.0926
17701TIP3    H274519   5.525   3.895  15.702 -1.4350  1.6364 -0.7473
17702TIP3   OH274520   0.566   5.111   2.674 -0.0527  0.0959 -0.0395
17702TIP3    H174521   0.567   5.085   2.582  0.8548 -1.2639  0.3180
17702TIP3    H274522   0.588   5.204   2.673  2.9806 -0.4857 -1.0907
17703TIP3   OH274523   6.471   1.989   3.068 -0.0267  0.3042  0.1790
17703TIP3    H174524   6.461   2.073   3.022  2.3511  0.0694 -0.9632
17703TIP3    H274525   6.565   1.985   3.089 -0.0537 -2.1256  0.0952
17704TIP3   OH274526   4.199   2.708   2.221 -0.0267  0.5276  0.1766
17704TIP3    H174527   4.223   2.628   2.268  1.1527  0.2635 -0.8011
17704TIP3    H274528   4.104   2.705   2.214  0.0841 -1.6962 -1.3313
17705TIP3   OH274529   3.298   6.513  10.342 -0.1494  0.0769 -0.4828
17705TIP3    H174530   3.316   6.602  10.372 -0.5818 -0.7704  2.6046
17705TIP3    H274531   3.359   6.458  10.391 -1.9826 -1.5738  0.0909
17706TIP3   OH274532   4.576   3.621  14.383  0.4732  0.3063  0.0359
17706TIP3    H174533   4.572   3.561  14.309  2.7231 -0.3190  0.3547
17706TIP3    H274534   4.644   3.684  14.359  0.9133  0.3652  1.3711
17707TIP3   OH274535   5.215   5.659   0.418  0.1379  0.9187  0.4047
17707TIP3    H174536   5.130   5.701   0.410  0.4600  1.5448  0.2252
17707TIP3    H274537   5.272   5.709   0.359  0.2664 -0.4854 -0.7232
17708TIP3   OH274538   5.290   4.981   2.552 -0.3087 -1.0200  0.1791
17708TIP3    H174539   5.333   5.064   2.573  0.6045 -2.0143  2.5771
17708TIP3    H274540   5.209   5.006   2.508  0.6461  1.0628 -0.5123
17709TIP3   OH274541   6.590   1.112   0.802 -0.0450  0.1471 -0.3070
17709TIP3    H174542   6.617   1.063   0.880  1.4941  0.9281 -0.2992
17709TIP3    H274543   6.591   1.047   0.731 -0.5359 -0.3684  0.1525
17710TIP3   OH274544   6.723   5.475  12.316 -0.5590 -0.2703 -0.7821
17710TIP3    H174545   6.819   5.473  12.319 -0.3891  1.7448 -2.7844
17710TIP3    H274546   6.698   5.507  12.403  0.4777 -1.8849  0.1684
17711TIP3   OH274547   5.625   6.016   0.898  0.6327 -0.1898  0.2233
17711TIP3    H174548   5.535   6.046   0.912 -0.0140 -1.2100 -1.4755
17711TIP3    H274549   5.618   5.921   0.896  1.4610 -0.2490 -1.5569
17712TIP3   OH274550   4.046   5.089   1.651 -0.4677 -0.2102  0.6188
17712TIP3    H174551   4.117   5.024   1.649 -1.5808 -1.4747  0.5952
17712TIP3    H274552   4.017   5.094   1.560 -1.0664 -0.4698  0.7903
17713TIP3   OH274553   5.766   0.159   5.763 -0.0536  0.2267 -0.0442
17713TIP3    H174554   5.694   0.174   5.701  1.1692  0.8395 -1.3779
17713TIP3    H274555   5.746   0.074   5.803 -2.7183  1.4227  1.3898
17714TIP3   OH274556   4.829   1.631  12.355 -0.6506 -0.3736 -0.0776
17714TIP3    H174557   4.854   1.720  12.382 -1.3280  0.0637 -0.8338
17714TIP3    H274558   4.809   1.586  12.437 -1.4766  0.5490  0.2532
17715TIP3   OH274559   1.584   6.627   2.067  0.1577  0.4485 -0.0828
17715TIP3    H174560   1.676   6.642   2.091  0.1118 -0.3847  0.6389
17715TIP3    H274561   1.536   6.633   2.150 -0.3184 -0.0616 -0.3133
17716TIP3   OH274562   2.525   1.033   1.741 -0.4429  0.2524  0.5931
17716TIP3    H174563   2.554   0.992   1.822  0.3177  0.8932  0.6650
17716TIP3    H274564   2.577   1.113   1.735  0.4511 -0.3901 -1.1494
17717TIP3   OH274565   2.433   6.592   2.450 -0.5019  0.6310  0.6904
17717TIP3    H174566   2.419   6.683   2.424  1.1392  0.5795 -0.4773
17717TIP3    H274567   2.502   6.560   2.392  0.2375 -0.8236  2.2852
17718TIP3   OH274568   1.555   5.749  12.799  0.4809  0.2600 -0.4325
17718TIP3    H174569   1.597   5.690  12.862 -1.1231 -1.0065 -0.4526
17718TIP3    H274570   1.502   5.808  12.854 -0.0709 -0.1450 -0.5133
17719TIP3   OH274571   2.411   0.289  12.651 -0.3531  0.3494  0.0322
17719TIP3    H174572   2.418   0.349  12.577  0.3645  0.4642  0.1866
17719TIP3    H274573   2.468   0.216  12.628 -0.7619  0.0022  0.1102
17720TIP3   OH274574   2.185   4.855   2.846 -0.2321 -0.6249 -0.3935
17720TIP3    H174575   2.122   4.782   2.849 -2.3384  1.0997  0.3383
17720TIP3    H274576   2.139   4.924   2.799  1.3620  0.5333 -0.3250
17721TIP3   OH274577   0.747   5.480   1.890  0.1679 -0.0592 -0.0269
17721TIP3    H174578   0.772   5.414   1.826 -3.0452  1.0652 -2.7440
17721TIP3    H274579   0.715   5.430   1.965  2.2284 -1.4401  0.0092
17722TIP3   OH274580   3.397   6.004  16.496 -0.0677 -0.2412  0.2391
17722TIP3    H174581   3.484   6.015  16.535 -0.0128  0.9727 -0.1740
17722TIP3    H274582   3.393   6.072  16.428 -0.8987 -1.0364 -0.5330
17723TIP3   OH274583   4.639   4.905   5.155  0.3749  0.4101  0.4989
17723TIP3    H174584   4.734   4.917   5.159  0.5342 -1.0118  1.6693
17723TIP3    H274585   4.605   4.989   5.123  2.0312  0.8631 -0.1391
17724TIP3   OH274586   4.008   5.427   6.264 -0.7937 -0.0493  0.1242
17724TIP3    H174587   3.922   5.396   6.238 -0.3549 -1.6012  0.4190
17724TIP3    H274588   4.017   5.402   6.356 -0.7340  1.7599  0.6568
17725TIP3   OH274589   5.069   6.256   4.227 -0.4878  0.3106 -0.8616
17725TIP3    H174590   5.119   6.287   4.152  2.1932  1.1972  1.1561
17725TIP3    H274591   5.121   6.184   4.263  0.2712  2.2040  2.1610
17726TIP3   OH274592   1.548   0.357   4.046 -0.2751  0.1460  0.0280
17726TIP3    H174593   1.458   0.342   4.074 -0.1970  1.2137  0.9282
17726TIP3    H274594   1.601   0.315   4.114 -0.0738 -0.3627 -0.4287
17727TIP3   OH274595   0.888   5.201  12.200 -0.0848  0.1336 -0.0865
17727TIP3    H174596   0.820   5.269  12.194  2.3100  3.0050  1.9304
17727TIP3    H274597   0.907   5.196  12.294  1.7644 -1.3443 -0.5024
17728TIP3   OH274598   5.022   2.024   0.630 -0.3646 -0.0253  0.3192
17728TIP3    H174599   5.094   2.066   0.678 -0.7811 -0.0193  0.9484
17728TIP3    H274600   5.038   1.930   0.639 -1.1061 -0.0485  1.5147
17729TIP3   OH274601   1.177   0.233  14.519 -0.2571 -0.6718  0.2731
17729TIP3    H174602   1.248   0.224  14.455  0.9967  2.8619  0.9304
17729TIP3    H274603   1.104   0.268  14.468  0.4418  1.2318  0.4664
17730TIP3   OH274604   4.149   5.738  15.758 -0.3730 -0.2264 -0.5507
17730TIP3    H174605   4.208   5.674  15.797 -2.1742 -1.6183  0.0105
17730TIP3    H274606   4.172   5.821  15.800  0.2421 -0.9920  0.6750
17731TIP3   OH274607   4.639   4.393   1.828  0.0541 -0.5496  0.0084
17731TIP3    H174608   4.726   4.399   1.787  0.0226  0.4016  0.0458
17731TIP3    H274609   4.634   4.470   1.885 -0.9789 -0.3311 -0.3425
17732TIP3   OH274610   1.949   6.509   4.881 -0.4253  0.5340  0.0976
17732TIP3    H174611   1.898   6.438   4.842  0.1072  0.7089 -0.9619
17732TIP3    H274612   2.009   6.536   4.811 -1.0889  2.4936  0.2102
17733TIP3   OH274613   0.240   0.998  16.785 -0.1697  0.2911 -0.1941
17733TIP3    H174614   0.265   0.963  16.871 -3.4876  2.2001  1.7723
17733TIP3    H274615   0.187   0.929  16.745  2.6242 -1.2341 -1.5912
17734TIP3   OH274616   6.435   6.435  14.561 -0.4318  0.4693  0.1181
17734TIP3    H174617   6.344   6.420  14.585 -0.7581  1.4700 -0.4342
17734TIP3    H274618   6.470   6.348  14.542 -1.0559  0.0001  1.0701
17735TIP3   OH274619   5.391   0.611  14.935  0.4619 -0.1323  0.2016
17735TIP3    H174620   5.302   0.612  14.901 -0.0056 -1.2619  1.3182
17735TIP3    H274621   5.435   0.682  14.888 -1.0394  0.5180 -0.2869
17736TIP3   OH274622   6.590   2.852   4.007  0.2156  0.5341 -0.1014
17736TIP3    H174623   6.547   2.812   4.083 -1.5432  2.1684 -0.1712
17736TIP3    H274624   6.575   2.946   4.018  1.8351  0.9709 -1.3572
17737TIP3   OH274625   1.301   2.027   2.035 -0.0343  0.0570 -0.4096
17737TIP3    H174626   1.368   1.983   1.984  0.1909  0.6597 -0.6403
17737TIP3    H274627   1.343   2.049   2.118 -0.6028 -1.5484  0.3358
17738TIP3   OH274628   3.213   5.708  15.499 -0.4215 -0.5726  0.7822
17738TIP3    H174629   3.151   5.781  15.501 -2.5165 -2.2719  1.5855
17738TIP3    H274630   3.163   5.634  15.463  1.0061 -2.1447  1.8284
17739TIP3   OH274631   1.790   3.891   3.672  0.0158  0.1486 -0.2555
17739TIP3    H174632   1.848   3.942   3.729 -0.7591  0.6652  0.0892
17739TIP3    H274633   1.806   3.926   3.584  2.1110 -1.4730 -0.5921
17740TIP3   OH274634   5.069   3.081   4.221  0.0961  0.1548  0.5767
17740TIP3    H174635   5.087   3.122   4.305  2.3156  1.2451 -0.3619
17740TIP3    H274636   5.152   3.044   4.193  0.0165  1.7487 -2.1184
17741TIP3   OH274637   5.217   6.062   4.701 -0.6114  0.2300 -0.4139
17741TIP3    H174638   5.200   5.973   4.731  2.9462 -1.0826 -1.7821
17741TIP3    H274639   5.230   6.113   4.781 -0.3525 -1.0477  0.3811
17742TIP3   OH274640   5.096   0.290   4.190  0.4932 -0.3771  0.2953
17742TIP3    H174641   5.008   0.301   4.155  1.0494  0.0622 -1.0322
17742TIP3    H274642   5.103   0.196   4.207  0.0077 -0.5283 -0.2701
17743TIP3   OH274643   1.575   6.608   4.352 -0.1223 -0.0867  0.7636
17743TIP3    H174644   1.483   6.598   4.378 -0.6705  1.0692 -0.6129
17743TIP3    H274645   1.575   6.679   4.288  1.4571 -1.3169 -0.7026
17744TIP3   OH274646   5.950   4.607   3.071  0.1855  0.3881 -0.6874
17744TIP3    H174647   6.009   4.672   3.034 -0.1695  0.3131 -1.4025
17744TIP3    H274648   5.862   4.634   3.043 -0.0325 -0.0237 -0.4299
17745TIP3   OH274649   5.209   6.274   4.921  0.0178 -0.4375 -0.1401
17745TIP3    H174650   5.253   6.308   4.999 -0.1884  1.7256 -0.8924
17745TIP3    H274651   5.152   6.346   4.893  0.2990 -1.0264 -2.4314
17746TIP3   OH274652   1.697   2.851  13.893 -0.0556  0.1624 -0.1731
17746TIP3    H174653   1.754   2.776  13.911 -0.3928 -0.2700 -0.8969
17746TIP3    H274654   1.754   2.914  13.848  0.3114  0.4912  0.7156
17747TIP3   OH274655   0.477   3.161  13.143  0.2576  0.1393  0.3976
17747TIP3    H174656   0.532   3.162  13.222 -0.7806 -2.1718  1.2524
17747TIP3    H274657   0.537   3.138  13.073  1.2436  2.4359  0.4029
17748TIP3   OH274658   1.955   3.190  13.555  0.0925  0.0945  0.0220
17748TIP3    H174659   1.976   3.251  13.625  0.8221 -0.2614  0.1206
17748TIP3    H274660   1.897   3.240  13.496  1.1207  1.0678 -0.1933
17749TIP3   OH274661   6.361   1.250   0.702 -0.3644  0.7957  0.2571
17749TIP3    H174662   6.324   1.311   0.765 -1.9138  0.0071  0.1688
17749TIP3    H274663   6.437   1.211   0.747  0.1139  2.1205  0.6266
17750TIP3   OH274664   2.899   2.966   0.583  0.1283  0.1584  0.5226
17750TIP3    H174665   2.975   2.949   0.528 -0.5983 -0.2579 -0.3732
17750TIP3    H274666   2.866   3.051   0.553 -0.2494 -0.0540  0.3297
17751TIP3   OH274667   0.060   1.723   4.448  0.2209  0.3176  0.1704
17751TIP3    H174668   0.030   1.701   4.360 -1.4128 -0.9800  0.9970
17751TIP3    H274669   0.144   1.677   4.457  0.1614  0.0609 -0.5270
17752TIP3   OH274670   2.301   5.661  13.387 -0.0128 -0.1330  0.3319
17752TIP3    H174671   2.394   5.665  13.363  0.1279 -1.8643  0.4918
17752TIP3    H274672   2.290   5.730  13.453  0.7879  1.1268 -0.7875
17753TIP3   OH274673   1.802   5.353  16.314 -0.2277  0.1086  0.1844
17753TIP3    H174674   1.750   5.286  16.270  1.0097  0.0972 -1.3708
17753TIP3    H274675   1.889   5.315  16.322 -0.2409  0.3988  2.0853
17754TIP3   OH274676   5.783   0.137   4.655 -0.1414 -0.0386 -0.2263
17754TIP3    H174677   5.694   0.168   4.642 -1.0288 -3.1695 -3.1923
17754TIP3    H274678   5.838   0.201   4.608 -1.3457 -0.2278 -2.0138
17755TIP3   OH274679   4.688   5.659  12.724  0.3346 -0.1004  0.1753
17755TIP3    H174680   4.704   5.719  12.796  0.5827  0.8830 -0.6883
17755TIP3    H274681   4.593   5.661  12.712  0.1526 -1.1550  1.2010
17756TIP3   OH274682   6.201   6.775  14.916  0.1898  0.2324  0.2085
17756TIP3    H174683   6.174   6.741  14.831  2.1085 -0.8758 -0.0100
17756TIP3    H274684   6.122   6.816  14.951 -1.1864 -1.0438 -1.2323
17757TIP3   OH274685   2.307   4.139   2.090  0.2060 -0.3855  1.0206
17757TIP3    H174686   2.251   4.209   2.058  1.1717 -0.2308 -0.4420
17757TIP3    H274687   2.324   4.085   2.013  1.6184 -0.7024  1.5173
17758TIP3   OH274688   2.895   4.761  15.026  0.0234  0.3971 -0.0570
17758TIP3    H174689   2.921   4.675  15.058  3.1165  1.5151  0.8221
17758TIP3    H274690   2.915   4.760  14.933 -2.2083 -0.5361 -0.5771
17759TIP3   OH274691   3.769   6.381  13.275 -0.0397  0.3828 -0.2301
17759TIP3    H174692   3.764   6.287  13.258 -0.1803  0.3221  0.1343
17759TIP3    H274693   3.690   6.401  13.325  0.6570  0.4225  0.9001
17760TIP3   OH274694   1.514   6.151  12.375  0.1897  0.5632  0.2086
17760TIP3    H174695   1.455   6.093  12.423  1.3960 -0.8128  0.0906
17760TIP3    H274696   1.503   6.126  12.283  1.0709  0.1754  0.2031
17761TIP3   OH274697   2.854   4.044   4.103 -0.7019  0.0194 -0.0543
17761TIP3    H174698   2.946   4.020   4.101 -0.0800  2.1950 -0.0079
17761TIP3    H274699   2.830   4.039   4.196 -0.1995  0.8452  0.1322
17762TIP3   OH274700   1.087   3.263   2.105  0.0400  0.8352  0.0895
17762TIP3    H174701   1.109   3.300   2.019  0.2651 -0.3979 -0.4051
17762TIP3    H274702   1.170   3.261   2.152  0.6134 -1.5204 -0.8838
17763TIP3   OH274703   3.379   1.742  16.392  0.4447 -0.8460  0.6184
17763TIP3    H174704   3.380   1.725  16.486 -1.0011 -0.2347  0.7584
17763TIP3    H274705   3.391   1.837  16.385  2.0561 -1.0404  0.0907
17764TIP3   OH274706   1.335   6.462   5.385 -0.0263  0.1360  0.1901
17764TIP3    H174707   1.402   6.504   5.332 -0.0275 -0.4754 -0.3151
17764TIP3    H274708   1.297   6.396   5.327 -1.4087  0.8018  0.2965
17765TIP3   OH274709   1.206   3.190  13.164 -0.0257  0.4850 -0.1753
17765TIP3    H174710   1.252   3.112  13.192 -1.1022 -0.5234 -1.1151
17765TIP3    H274711   1.263   3.230  13.099  2.0426  2.3268  2.5514
17766TIP3   OH274712   1.153   6.660  12.452  0.2877 -0.6341  0.5167
17766TIP3    H174713   1.091   6.602  12.408  1.8795 -0.9298 -1.5114
17766TIP3    H274714   1.232   6.656  12.398  1.0280  2.1387  1.1994
17767TIP3   OH274715   0.952   3.476  16.912 -0.1517 -0.7375 -0.2149
17767TIP3    H174716   0.962   3.440  16.824 -0.0733 -0.8641 -0.1541
17767TIP3    H274717   0.869   3.439  16.944 -0.7061  0.1080 -0.6236
17768TIP3   OH274718   1.938   6.422   1.233  0.3845 -0.5847 -0.1740
17768TIP3    H174719   1.983   6.475   1.299 -1.3709  0.4783  0.2343
17768TIP3    H274720   2.007   6.394   1.173  2.0215 -1.3770  1.9475
17769TIP3   OH274721   2.692   3.899  17.134 -0.3870  0.1844 -0.0096
17769TIP3    H174722   2.675   3.858  17.219 -2.0941  1.8362  0.5381
17769TIP3    H274723   2.611   3.885  17.085 -0.1872  0.9800 -0.5883
17770TIP3   OH274724   4.333   1.091  15.071  0.0556 -0.1472 -0.2009
17770TIP3    H174725   4.415   1.132  15.096 -1.2311  1.7037  1.1788
17770TIP3    H274726   4.311   1.131  14.986 -0.7189  1.4123  0.6943
17771TIP3   OH274727   3.510   6.190   1.363 -0.3080  0.4850  0.0900
17771TIP3    H174728   3.427   6.194   1.410 -1.0872  0.9416 -1.2426
17771TIP3    H274729   3.569   6.247   1.413 -0.5520 -0.4061  1.4475
17772TIP3   OH274730   6.125   0.182  14.442  0.2626  0.1572  0.3017
17772TIP3    H174731   6.064   0.168  14.515 -0.7553  1.6530 -0.2286
17772TIP3    H274732   6.207   0.141  14.471 -1.2994 -3.1823  0.4757
17773TIP3   OH274733   6.330   4.491   4.824  0.3170 -0.2636 -0.2015
17773TIP3    H174734   6.390   4.505   4.898  1.8505 -0.0430 -1.4313
17773TIP3    H274735   6.308   4.398   4.828  0.3593 -0.2530  0.5331
17774TIP3   OH274736   4.453   4.341  16.948  0.0091  0.3337  0.2617
17774TIP3    H174737   4.445   4.372  16.858 -2.5972 -0.1150  0.2540
17774TIP3    H274738   4.412   4.409  17.001  0.9583  0.3066  1.0682
17775TIP3   OH274739   3.489   6.162   0.397  0.4154 -0.1009 -0.1820
17775TIP3    H174740   3.528   6.222   0.334 -0.2804 -1.3352 -1.8421
17775TIP3    H274741   3.544   6.171   0.475  2.5593 -0.0371 -1.6108
17776TIP3   OH274742   1.941   1.015  15.396  0.0191 -0.7367 -0.0018
17776TIP3    H174743   1.859   1.048  15.360 -1.0410 -1.9621  1.1730
17776TIP3    H274744   1.966   1.080  15.463 -1.0913 -1.3603  1.0458
17777TIP3   OH274745   5.197   5.668  12.337 -0.3167 -0.2473 -0.7057
17777TIP3    H174746   5.116   5.712  12.313 -0.8694 -1.1895 -0.6299
17777TIP3    H274747   5.179   5.627  12.421  0.3338 -0.2188 -0.5443
17778TIP3   OH274748   0.918   3.405  13.745 -0.2916 -0.7531  0.0225
17778TIP3    H174749   0.876   3.456  13.814 -0.4306 -1.9550  0.8606
17778TIP3    H274750   0.985   3.463  13.709 -1.4107  0.5166 -0.0563
17779TIP3   OH274751   6.212   4.861   6.004 -0.6283 -0.2445 -0.0048
17779TIP3    H174752   6.206   4.943   6.053 -0.7103  0.1083 -0.5999
17779TIP3    H274753   6.145   4.868   5.936 -1.5302 -1.3455  0.7118
17780TIP3   OH274754   2.688   1.951  11.178 -0.5843 -0.1823 -0.0372
17780TIP3    H174755   2.729   1.870  11.150  0.4594 -0.3427  1.7865
17780TIP3    H274756   2.707   2.014  11.108  0.3926 -0.9784 -0.4949
17781TIP3   OH274757   5.138   5.349  11.576  0.3247  0.6041  0.2768
17781TIP3    H174758   5.230   5.332  11.592 -0.2342 -3.0698  0.4604
17781TIP3    H274759   5.105   5.269  11.535 -2.6460  2.0483 -0.4723
17782TIP3   OH274760   0.987   5.766  14.047  0.0426  0.2596  0.6228
17782TIP3    H174761   1.054   5.833  14.030 -0.8305  1.0521  0.2090
17782TIP3    H274762   0.923   5.810  14.103 -1.7632  0.5696 -1.5671
17783TIP3   OH274763   5.644   2.212  10.844  0.1365  0.0106 -0.4462
17783TIP3    H174764   5.693   2.134  10.869 -0.6841  0.0297  1.3880
17783TIP3    H274765   5.587   2.230  10.919 -3.5344 -0.6600 -2.8289
17784TIP3   OH274766   2.463   2.827  15.603 -0.7446  0.6746  0.2970
17784TIP3    H174767   2.546   2.784  15.625 -0.4066  0.5831 -1.0659
17784TIP3    H274768   2.488   2.899  15.546 -1.5494  1.0976  0.4706
17785TIP3   OH274769   0.348   2.662  15.905 -0.4291 -0.2887 -0.4526
17785TIP3    H174770   0.338   2.753  15.876  0.8095 -0.8520 -2.9032
17785TIP3    H274771   0.262   2.623  15.894 -0.9839  0.5745  0.6650
17786TIP3   OH274772   4.198   5.553   4.435 -0.5330 -0.2518  0.2520
17786TIP3    H174773   4.288   5.522   4.442  0.3324  2.1753  1.1655
17786TIP3    H274774   4.198   5.612   4.360 -1.1685  0.2775  0.6470
17787TIP3   OH274775   3.727   2.706  16.356  0.0997 -0.2450  0.5198
17787TIP3    H174776   3.677   2.773  16.308  1.2019  0.5927  0.4971
17787TIP3    H274777   3.681   2.624  16.338  0.1623  0.1157 -1.5714
17788TIP3   OH274778   1.242   1.413   1.709  0.1191  0.0492  0.4633
17788TIP3    H174779   1.245   1.480   1.777  1.4550 -0.6542  1.1394
17788TIP3    H274780   1.324   1.424   1.660  0.4035 -1.1139  0.6323
17789TIP3   OH274781   2.939   0.615  11.104  0.4213 -0.3823 -0.4540
17789TIP3    H174782   2.918   0.708  11.094  2.1616  0.2167  0.9138
17789TIP3    H274783   2.976   0.590  11.019  1.5019  0.6356 -0.3013
17790TIP3   OH274784   5.571   2.400   3.653 -0.2937  0.6708 -0.7932
17790TIP3    H174785   5.578   2.415   3.559  2.6323 -1.0955 -0.9577
17790TIP3    H274786   5.636   2.458   3.692  1.4063 -1.4661 -0.2868
17791TIP3   OH274787   6.048   5.447  14.435 -0.0701 -0.2308 -0.0540
17791TIP3    H174788   6.107   5.391  14.487  1.0218  0.6644 -0.2836
17791TIP3    H274789   5.960   5.419  14.461  0.4488 -1.0604  0.9123
17792TIP3   OH274790   0.359   5.073  16.616 -0.0467 -0.1737 -0.3032
17792TIP3    H174791   0.376   5.142  16.680  2.0811 -0.6280 -0.3314
17792TIP3    H274792   0.285   5.024  16.653  0.2680  0.3923  1.1301
17793TIP3   OH274793   0.781   4.429  12.207  0.0645 -0.4597 -0.3454
17793TIP3    H174794   0.739   4.496  12.153 -0.2618 -0.8533 -0.5878
17793TIP3    H274795   0.711   4.398  12.265 -0.1874 -1.6146 -1.2244
17794TIP3   OH274796   1.500   5.808   0.355 -0.4162 -0.0532 -0.1749
17794TIP3    H174797   1.544   5.793   0.438 -0.9814 -1.0578 -0.0377
17794TIP3    H274798   1.429   5.868   0.376  1.1884  2.0915 -0.5149
17795TIP3   OH274799   6.434   4.848  15.296  0.2852 -0.2480  0.3557
17795TIP3    H174800   6.367   4.916  15.306 -0.1982 -0.7479  0.5407
17795TIP3    H274801   6.501   4.889  15.241 -0.5233  0.0036 -0.4644
17796TIP3   OH274802   0.980   2.602  11.987 -0.5665 -0.4915 -0.2106
17796TIP3    H174803   0.920   2.653  11.931  0.4954  0.0911 -0.8568
17796TIP3    H274804   1.031   2.668  12.034 -1.0313 -0.9823  1.0151
17797TIP3   OH274805   2.520   3.905  12.897  0.7847  0.1437 -0.6047
17797TIP3    H174806   2.484   3.989  12.869  0.1782  0.0670 -0.0863
17797TIP3    H274807   2.614   3.921  12.903  0.4786  1.6003  2.0212
17798TIP3   OH274808   1.850   1.914  13.321 -0.0857  0.1363 -0.0069
17798TIP3    H174809   1.898   1.991  13.290 -0.4765 -0.5941 -2.6855
17798TIP3    H274810   1.885   1.842  13.269 -0.3858 -1.3764  1.7836
17799TIP3   OH274811   5.772   2.927   4.519  0.1098 -0.2976  0.0450
17799TIP3    H174812   5.753   3.000   4.579 -0.5791  1.5276 -2.2589
17799TIP3    H274813   5.763   2.849   4.574  0.6797  1.2936  2.5850
17800TIP3   OH274814   6.473   4.030  15.560 -0.9183 -0.1985 -0.1615
17800TIP3    H174815   6.489   4.117  15.523  1.5434  0.0841  1.3083
17800TIP3    H274816   6.465   4.046  15.654  2.1151 -1.6865  0.4816
17801TIP3   OH274817   0.774   5.756   3.821 -0.0887  0.1188 -0.1318
17801TIP3    H174818   0.851   5.733   3.875 -1.1901  1.8218  2.3850
17801TIP3    H274819   0.751   5.844   3.850 -3.8802 -0.8786  0.3337
17802TIP3   OH274820   6.696   5.769  11.970 -0.1873  0.1808 -0.2053
17802TIP3    H174821   6.682   5.683  11.931  0.4253  0.4901 -1.1269
17802TIP3    H274822   6.714   5.827  11.896 -1.7656  1.3722  0.2834
17803TIP3   OH274823   6.211   4.508  11.523  0.5115 -0.7092  0.3498
17803TIP3    H174824   6.249   4.537  11.606  0.2996  0.9919 -0.1085
17803TIP3    H274825   6.129   4.556  11.516 -1.4753 -3.7198  0.9401
17804TIP3   OH274826   0.923   5.306   4.967 -0.1822 -0.1000 -0.4211
17804TIP3    H174827   0.956   5.292   5.056 -1.7718 -2.2446 -0.0871
17804TIP3    H274828   0.829   5.312   4.977 -0.2601  1.7197 -1.7820
17805TIP3   OH274829   3.399   4.695  13.654  0.1039  0.5484 -0.1304
17805TIP3    H174830   3.483   4.675  13.613  0.2380  0.9787 -0.0696
17805TIP3    H274831   3.333   4.668  13.590  0.1488 -2.6297  0.9798
17806TIP3   OH274832   1.227   5.197   0.958  0.2125  0.6216 -0.0426
17806TIP3    H174833   1.191   5.250   1.028 -0.8681  0.5494 -0.5303
17806TIP3    H274834   1.282   5.133   1.002 -1.6494 -0.4103  0.8903
17807TIP3   OH274835   5.800   2.534   2.476 -0.0792 -0.4808 -0.3712
17807TIP3    H174836   5.776   2.493   2.559 -1.0253 -1.5930 -1.1633
17807TIP3    H274837   5.801   2.462   2.412  1.3473  0.2289 -1.1989
17808TIP3   OH274838   4.012   6.052   3.695  0.2581  0.3036  0.3986
17808TIP3    H174839   3.954   6.021   3.626 -0.5875 -1.8036  1.9394
17808TIP3    H274840   3.954   6.095   3.758  0.4179 -1.0790  1.5433
17809TIP3   OH274841   1.621   2.077   4.431 -0.4574 -0.7737  0.2109
17809TIP3    H174842   1.592   2.057   4.520 -2.1067  0.1381 -0.0664
17809TIP3    H274843   1.626   2.173   4.428  0.7077 -0.8359 -0.3635
17810TIP3   OH274844   3.735   0.155   1.458  0.2878 -0.0601  0.3595
17810TIP3    H174845   3.788   0.180   1.533 -1.3935 -0.1537  1.6409
17810TIP3    H274846   3.724   0.060   1.466 -0.7652  0.0727  0.6075
17811TIP3   OH274847   1.439   5.416  16.561 -0.0182  0.5735  0.5895
17811TIP3    H174848   1.532   5.420  16.584  0.5427 -2.1276 -0.7972
17811TIP3    H274849   1.406   5.339  16.606 -0.6926 -0.4759 -1.5739
17812TIP3   OH274850   0.746   0.026   3.287 -0.2623 -0.2836  0.6449
17812TIP3    H174851   0.679  -0.009   3.227 -0.2274 -0.3176  0.6258
17812TIP3    H274852   0.768   0.112   3.252  1.5389 -1.2847 -0.7944
17813TIP3   OH274853   2.326   1.078  13.594  0.2017 -0.5501 -0.5099
17813TIP3    H174854   2.294   1.004  13.542  0.5120 -1.4416  0.5370
17813TIP3    H274855   2.375   1.132  13.531  1.0141 -1.8816 -1.0618
17814TIP3   OH274856   5.118   5.434  15.408 -0.4283 -0.0783  0.1425
17814TIP3    H174857   5.113   5.343  15.380  3.3793 -0.8868  1.4530
17814TIP3    H274858   5.163   5.480  15.337 -0.8710  0.4338  0.1815
17815TIP3   OH274859   2.734   0.249  15.724  0.1443 -0.8747  0.2295
17815TIP3    H174860   2.800   0.253  15.793 -0.4817 -2.7663  1.0012
17815TIP3    H274861   2.678   0.324  15.740  1.8043  0.5170 -0.1801
17816TIP3   OH274862   0.136   3.318   3.675  0.7159 -0.1580  0.4697
17816TIP3    H174863   0.152   3.412   3.666  3.3348 -0.4986  0.8014
17816TIP3    H274864   0.138   3.285   3.585  0.5882 -0.0205  0.4153
17817TIP3   OH274865   5.298   5.404   1.935  0.2418 -0.3358  0.5522
17817TIP3    H174866   5.242   5.366   2.003  0.2072 -0.0981  0.6584
17817TIP3    H274867   5.299   5.498   1.954 -1.5945  0.0911 -1.0634
17818TIP3   OH274868   2.424   2.414   6.036  0.8131 -0.3422 -0.6982
17818TIP3    H174869   2.373   2.485   6.077  0.3305 -1.4657  0.7133
17818TIP3    H274870   2.514   2.431   6.063  0.7570 -0.0595 -0.6811
17819TIP3   OH274871   4.982   0.184   0.291 -0.3430  0.4712  0.2477
17819TIP3    H174872   4.895   0.170   0.256  0.0215 -2.0095  0.1959
17819TIP3    H274873   4.986   0.130   0.369  1.5777 -0.5558 -0.5025
17820TIP3   OH274874   4.650   3.418   2.695 -1.1313 -0.3879 -0.5982
17820TIP3    H174875   4.586   3.349   2.710 -2.5877  0.4459 -2.4207
17820TIP3    H274876   4.612   3.496   2.737  0.6424 -0.6724  1.7189
17821TIP3   OH274877   4.858   4.417  15.847 -0.2267 -0.3648 -0.1233
17821TIP3    H174878   4.811   4.341  15.812 -1.9170 -0.4845  2.1153
17821TIP3    H274879   4.796   4.456  15.909  1.7741  0.9818  1.1366
17822TIP3   OH274880   3.318   3.517  15.125  0.0874  0.1558 -0.7737
17822TIP3    H174881   3.355   3.565  15.051  1.2310 -1.1299 -1.0669
17822TIP3    H274882   3.353   3.428  15.117  0.4183  0.0277  1.4144
17823TIP3   OH274883   4.861   1.665   2.381  0.3137 -0.0281  0.3970
17823TIP3    H174884   4.845   1.736   2.319  0.0063 -1.0252 -0.7042
17823TIP3    H274885   4.779   1.616   2.383  0.9023 -1.0360  0.2351
17824TIP3   OH274886   1.915   1.108   1.155  0.5460 -0.0436  0.5777
17824TIP3    H174887   1.836   1.160   1.138  0.1563 -0.7953  0.0374
17824TIP3    H274888   1.987   1.162   1.123  0.2441  0.5782  0.9228
17825TIP3   OH274889   6.685   0.122  16.058 -0.3384 -0.0681 -0.0864
17825TIP3    H174890   6.717   0.057  16.120 -0.3899  0.0206  0.0335
17825TIP3    H274891   6.591   0.125  16.073 -0.2406  0.5574  0.4103
17826TIP3   OH274892   2.542   0.103   0.178  0.1004 -0.4556  0.2853
17826TIP3    H174893   2.579   0.153   0.251 -0.6242 -0.5761  0.7458
17826TIP3    H274894   2.493   0.168   0.128  1.2431 -0.2142 -0.5560
17827TIP3   OH274895   2.743   2.493   1.493 -0.5344 -0.7699 -0.0157
17827TIP3    H174896   2.684   2.418   1.505 -1.0919 -0.5753 -1.3447
17827TIP3    H274897   2.692   2.568   1.524 -0.3553 -0.8142  0.3850
17828TIP3   OH274898   0.597   2.568   1.962  0.8660 -0.7160  0.5354
17828TIP3    H174899   0.678   2.523   1.988  1.1877 -0.1171  0.5926
17828TIP3    H274900   0.575   2.621   2.038  0.5988 -0.6240  0.3914
17829TIP3   OH274901   4.825   2.914   0.181  0.2034  0.5214  0.6984
17829TIP3    H174902   4.895   2.933   0.243  0.1761 -0.3517  1.0249
17829TIP3    H274903   4.753   2.882   0.237  0.9176 -2.4008  0.1009
17830TIP3   OH274904   4.161   6.531   3.858 -0.3082  0.4379 -0.0915
17830TIP3    H174905   4.200   6.618   3.852 -1.2368  0.8067 -1.5459
17830TIP3    H274906   4.193   6.485   3.780 -0.4250 -0.2683  0.2656
17831TIP3   OH274907   5.751   3.871  12.053  0.5822  0.0531  0.0959
17831TIP3    H174908   5.796   3.913  11.980 -0.4349  1.0527 -0.0005
17831TIP3    H274909   5.811   3.879  12.127  1.3006 -0.2835 -0.4459
17832TIP3   OH274910   0.245   5.758   4.061 -0.0953  0.0343 -0.4692
17832TIP3    H174911   0.339   5.739   4.059 -0.5319 -3.0768  1.8706
17832TIP3    H274912   0.202   5.674   4.045 -2.4128  0.5619  2.1342
17833TIP3   OH274913   4.220   5.827  16.942 -0.5866  0.2729  0.4164
17833TIP3    H174914   4.177   5.747  16.973 -0.0064 -0.4430 -0.5930
17833TIP3    H274915   4.313   5.810  16.952 -0.4176  0.3934 -0.7918
17834TIP3   OH274916   4.490   6.442   1.663 -0.2125  1.1299  0.3523
17834TIP3    H174917   4.525   6.354   1.677 -1.1524  0.8229  0.8158
17834TIP3    H274918   4.465   6.444   1.571 -0.8947  0.6461  0.5212
17835TIP3   OH274919   4.531   0.552   5.272 -0.4788  0.0842  0.4136
17835TIP3    H174920   4.457   0.613   5.270  0.5853  1.4119 -1.1189
17835TIP3    H274921   4.557   0.549   5.364 -2.0427  0.0411  0.8866
17836TIP3   OH274922   4.076   1.316  10.490  0.0368 -0.5484 -0.7770
17836TIP3    H174923   4.064   1.410  10.479 -0.3619 -0.5213 -0.1044
17836TIP3    H274924   4.092   1.284  10.401  1.1026  0.2816 -0.9037
17837TIP3   OH274925   3.585   2.223   1.558 -0.0955 -0.3051  0.8038
17837TIP3    H174926   3.596   2.262   1.644  1.8985 -1.6773  1.2435
17837TIP3    H274927   3.623   2.287   1.497 -1.4579  0.6400  0.9069
17838TIP3   OH274928   6.460   0.251  12.375 -0.4144 -0.1141  0.3941
17838TIP3    H174929   6.492   0.246  12.284  1.7004  0.1707  1.0522
17838TIP3    H274930   6.375   0.294  12.368 -0.4792 -0.4570 -1.4886
17839TIP3   OH274931   2.174   1.386   3.547  0.1454 -0.1406 -0.2233
17839TIP3    H174932   2.254   1.429   3.576  0.1894  0.8689 -1.7198
17839TIP3    H274933   2.172   1.400   3.452 -0.6640 -2.0979 -0.5594
17840TIP3   OH274934   1.231   4.694   0.514  0.1516 -0.0110  0.0940
17840TIP3    H174935   1.180   4.654   0.443 -1.0054  1.0899  0.2805
17840TIP3    H274936   1.306   4.635   0.525 -0.7329 -1.3215 -0.6327
17841TIP3   OH274937   4.462   0.276  13.684 -0.6776 -0.0936  0.3631
17841TIP3    H174938   4.386   0.277  13.742  0.3329 -0.3989  1.7294
17841TIP3    H274939   4.527   0.223  13.730  0.7774  1.1095 -0.2400
17842TIP3   OH274940   2.697   3.652   1.449  0.2534 -0.1003 -0.2229
17842TIP3    H174941   2.751   3.690   1.380  0.3946 -0.3565 -0.2528
17842TIP3    H274942   2.752   3.585   1.489 -1.5921 -3.9668 -3.4468
17843TIP3   OH274943   0.117   1.360  10.946 -0.2306 -0.4181  0.0312
17843TIP3    H174944   0.130   1.367  11.040  0.1092  0.7453 -0.0755
17843TIP3    H274945   0.040   1.414  10.928 -0.3243 -0.6724 -0.3525
17844TIP3   OH274946   5.479   5.549   3.910  0.5832  0.1084 -0.6214
17844TIP3    H174947   5.429   5.596   3.843 -2.1193 -1.4498  0.1274
17844TIP3    H274948   5.422   5.550   3.987  1.9399 -1.4008  0.4621
17845TIP3   OH274949   5.775   5.521   3.608 -0.3441  0.1234 -0.5223
17845TIP3    H174950   5.692   5.517   3.655 -0.6912 -0.0397 -1.1402
17845TIP3    H274951   5.786   5.614   3.586 -0.2444  0.1805 -0.2225
17846TIP3   OH274952   1.995   4.270  11.493  0.7796  0.3598  0.8085
17846TIP3    H174953   1.905   4.240  11.507  0.9403  0.2788  1.7336
17846TIP3    H274954   2.008   4.264  11.399  0.3278 -1.1170  0.8112
17847TIP3   OH274955   3.205   6.230   0.409  0.6683  0.2802  0.1057
17847TIP3    H174956   3.254   6.176   0.470  1.1899  0.7513  0.1037
17847TIP3    H274957   3.248   6.315   0.411 -0.7841  1.0417  0.9074
17848TIP3   OH274958   3.531   1.631  14.042  0.1131 -0.2785 -0.4099
17848TIP3    H174959   3.536   1.722  14.015 -1.4016 -0.2598 -0.7481
17848TIP3    H274960   3.446   1.601  14.009  0.4909 -1.7506 -0.1282
17849TIP3   OH274961   3.356   4.479   3.328  0.3880  0.2735  0.2667
17849TIP3    H174962   3.391   4.559   3.365  0.8082  0.5290 -0.6481
17849TIP3    H274963   3.315   4.434   3.402  1.2611  0.7167  1.0417
17850TIP3   OH274964   3.567   2.742  14.732 -0.3398 -0.3525 -0.5745
17850TIP3    H174965   3.475   2.725  14.755 -0.1957 -1.3603 -0.6763
17850TIP3    H274966   3.603   2.655  14.716  0.3384  0.1190 -1.6817
17851TIP3   OH274967   4.739   6.420  15.455 -0.7038 -0.9450 -0.2204
17851TIP3    H174968   4.776   6.443  15.370  0.1041 -2.3876 -0.3054
17851TIP3    H274969   4.803   6.358  15.492 -0.6508  0.2325  1.7804
17852TIP3   OH274970   1.705   3.096   5.404 -0.9106  0.7658  0.2847
17852TIP3    H174971   1.789   3.054   5.422 -0.8788  1.3327  1.6487
17852TIP3    H274972   1.723   3.157   5.334  0.0514  1.5143  1.1511
17853TIP3   OH274973   5.252   3.357   6.216 -0.1007  0.3333 -0.4364
17853TIP3    H174974   5.335   3.382   6.255 -0.7967 -0.3764  1.6474
17853TIP3    H274975   5.275   3.295   6.147  1.0329 -2.0405  1.9077
17854TIP3   OH274976   2.153   3.628  15.162 -0.0032  0.2578 -0.2069
17854TIP3    H174977   2.158   3.550  15.106 -1.1960 -0.6838  0.9404
17854TIP3    H274978   2.187   3.699  15.107 -1.7314 -0.4742 -2.3631
17855TIP3   OH274979   2.122   3.385   1.678  0.3165  0.1857 -0.7783
17855TIP3    H174980   2.126   3.454   1.745 -0.8522  0.1917 -0.6924
17855TIP3    H274981   2.039   3.341   1.695  0.8015 -0.8969 -1.1846
17856TIP3   OH274982   1.754   3.812   6.196  0.2076 -0.1758  0.3335
17856TIP3    H174983   1.712   3.890   6.160  1.6559  0.3124 -0.3779
17856TIP3    H274984   1.694   3.740   6.176 -0.3533  0.5155 -0.5100
17857TIP3   OH274985   1.265   3.534  14.518 -0.0464  0.5920  0.1145
17857TIP3    H174986   1.323   3.459  14.530  0.0284  0.6456  0.0821
17857TIP3    H274987   1.320   3.602  14.481 -0.0075  0.8152  0.5774
17858TIP3   OH274988   6.204   0.529   5.100 -0.0651  0.3448  0.0199
17858TIP3    H174989   6.132   0.501   5.157 -2.4056  3.3267 -1.1791
17858TIP3    H274990   6.178   0.498   5.013  1.0284 -0.0740 -0.1631
17859TIP3   OH274991   3.940   2.374   3.609  0.7522  0.1167 -0.2682
17859TIP3    H174992   3.889   2.299   3.636  0.1929  1.1392  1.6899
17859TIP3    H274993   3.875   2.441   3.587  1.2108  1.0652  1.1648
17860TIP3   OH274994   1.437   3.264   1.257 -0.0287 -0.4953  0.6497
17860TIP3    H174995   1.441   3.267   1.353  1.1734  1.0416  0.5978
17860TIP3    H274996   1.527   3.284   1.229 -0.6877  0.6854 -0.7925
17861TIP3   OH274997   3.850   1.030   6.784  0.3511 -0.0655 -0.0545
17861TIP3    H174998   3.869   1.120   6.759  0.1415  0.0884  0.3188
17861TIP3    H274999   3.761   1.014   6.751  0.3096 -0.0637  0.0528
17862TIP3   OH275000   4.554   6.175  13.601  0.1468  0.2958  0.1129
17862TIP3    H175001   4.624   6.118  13.567 -0.2515  0.3280 -0.7843
17862TIP3    H275002   4.485   6.114  13.627 -1.4885  0.3507 -3.4915
17863TIP3   OH275003   1.753   5.730  13.733 -0.0017 -0.1861  0.9092
17863TIP3    H175004   1.667   5.717  13.692  0.3432  1.6728 -0.5344
17863TIP3    H275005   1.741   5.699  13.823 -1.8241 -1.1110  0.3944
17864TIP3   OH275006   2.440   2.491   0.967  0.0396  0.2862  0.1175
17864TIP3    H175007   2.460   2.559   0.902 -1.6748  1.7333  0.9975
17864TIP3    H275008   2.494   2.513   1.043 -0.9842  1.1286  0.6394
17865TIP3   OH275009   0.237   4.969  11.294  0.0618 -0.4565  0.0176
17865TIP3    H175010   0.252   4.874  11.302 -0.4537 -0.8008 -2.4131
17865TIP3    H275011   0.144   4.980  11.314  0.1873 -0.4177  0.5862
17866TIP3   OH275012   1.191   2.791  12.127 -0.2233  0.2770  0.1961
17866TIP3    H175013   1.137   2.823  12.200 -0.4039  1.7514 -0.5390
17866TIP3    H275014   1.270   2.759  12.169  0.3208  2.4738  0.9924
17867TIP3   OH275015   3.892   4.871  12.261  0.0991 -0.1674  0.3180
17867TIP3    H175016   3.871   4.785  12.223 -1.5528  1.0524 -1.7118
17867TIP3    H275017   3.871   4.934  12.192  0.5338  1.9587  2.0226
17868TIP3   OH275018   2.315   4.129   4.768 -0.0872  0.8643 -0.6147
17868TIP3    H175019   2.407   4.155   4.777  0.1760 -0.2097  0.0063
17868TIP3    H275020   2.268   4.183   4.832  0.1971  1.0459 -0.5588
17869TIP3   OH275021   3.272   4.110   4.237 -0.2528 -0.1621 -0.1156
17869TIP3    H175022   3.272   4.135   4.329 -0.1843  2.9259 -0.8347
17869TIP3    H275023   3.360   4.130   4.207 -0.6262  0.0139 -1.1240
17870TIP3   OH275024   4.341   1.306  12.814 -0.1046 -0.3579 -0.7103
17870TIP3    H175025   4.259   1.347  12.786 -0.4348 -1.3832 -1.2917
17870TIP3    H275026   4.350   1.229  12.758  0.0176 -1.6085  0.9676
17871TIP3   OH275027   6.704   5.591   3.824  0.6805 -0.1238  0.1282
17871TIP3    H175028   6.723   5.666   3.767 -1.5337 -1.5340 -2.7297
17871TIP3    H275029   6.624   5.616   3.870  0.6246 -0.2708  0.1087
17872TIP3   OH275030   6.334   2.259   4.736  0.0169  0.1005  0.0714
17872TIP3    H175031   6.300   2.185   4.685 -0.6940 -0.3940  1.2344
17872TIP3    H275032   6.288   2.335   4.701  1.2860  0.1565 -1.6475
17873TIP3   OH275033   3.274   6.425  12.062 -0.3794 -0.7278  0.1972
17873TIP3    H175034   3.222   6.357  12.103 -1.3909 -0.3407 -0.4212
17873TIP3    H275035   3.235   6.438  11.976 -0.2864  0.7098  0.3370
17874TIP3   OH275036   2.818   1.378  17.208 -0.1340  0.3923  0.2873
17874TIP3    H175037   2.815   1.308  17.142 -1.0809  1.5571 -0.9593
17874TIP3    H275038   2.905   1.417  17.199 -0.0584  0.1838  0.1158
17875TIP3   OH275039   4.776   3.912  12.669  0.3062 -0.0613  0.6076
17875TIP3    H175040   4.741   3.937  12.754 -2.2028  0.0782 -0.3760
17875TIP3    H275041   4.749   3.820  12.658  2.7361 -0.8842  0.9389
17876TIP3   OH275042   5.653   6.507   2.128 -0.8817 -0.2552  0.3299
17876TIP3    H175043   5.615   6.561   2.197 -0.5885  1.3909 -0.7386
17876TIP3    H275044   5.648   6.561   2.049  0.7322 -1.2410 -0.5137
17877TIP3   OH275045   5.753   1.414  15.514 -0.0654  0.5659  0.1884
17877TIP3    H175046   5.740   1.414  15.609 -0.4740  1.7892  0.1522
17877TIP3    H275047   5.716   1.497  15.485  1.0886  0.7310 -0.9018
17878TIP3   OH275048   5.130   6.242   3.049  0.1397  0.3516  0.2280
17878TIP3    H175049   5.214   6.279   3.074 -0.2834  0.7785  1.0397
17878TIP3    H275050   5.110   6.283   2.965  0.8249  0.0986 -0.0724
17879TIP3   OH275051   0.104   3.645  15.334 -0.6146  0.2481 -0.4319
17879TIP3    H175052   0.031   3.699  15.304 -0.0853  0.2735 -1.7109
17879TIP3    H275053   0.094   3.562  15.287 -0.8417 -0.4311  0.7592
17880TIP3   OH275054   1.896   5.461   4.740 -0.0397  0.3996  0.0838
17880TIP3    H175055   1.895   5.537   4.681 -0.3748  1.9105  1.9214
17880TIP3    H275056   1.955   5.399   4.698 -1.6279  0.6096 -2.7134
17881TIP3   OH275057   5.348   5.125  14.011 -0.1195 -0.3305 -0.0889
17881TIP3    H175058   5.293   5.048  14.025 -0.4972 -0.4163 -1.8200
17881TIP3    H275059   5.421   5.093  13.957 -0.8648  0.7064 -1.8051
17882TIP3   OH275060   0.501   3.242   1.478  0.2331  0.1875 -0.1903
17882TIP3    H175061   0.528   3.253   1.387  0.1174 -0.4060 -0.3016
17882TIP3    H275062   0.436   3.172   1.475  0.5577 -0.1405  0.4091
17883TIP3   OH275063   4.058   4.506  16.844 -0.2756  0.4545  0.3351
17883TIP3    H175064   3.985   4.555  16.882 -0.0440  2.5711 -1.6857
17883TIP3    H275065   4.116   4.574  16.808  0.2420 -1.2599 -2.3834
17884TIP3   OH275066   3.854   1.849   0.916 -0.4765  0.1827  0.3963
17884TIP3    H175067   3.835   1.920   0.978 -0.5745  0.7602 -0.2795
17884TIP3    H275068   3.948   1.858   0.897 -0.7425  0.9212 -0.6370
17885TIP3   OH275069   5.647   2.951  16.125  0.8296 -0.0412 -0.5504
17885TIP3    H175070   5.697   2.943  16.044  1.2888 -2.1427 -0.1314
17885TIP3    H275071   5.573   2.892  16.114  1.1020 -0.6581  0.6767
17886TIP3   OH275072   1.342   5.716   3.943  0.4330 -0.2814 -0.0136
17886TIP3    H175073   1.353   5.677   3.856  1.9719  1.8502 -0.8630
17886TIP3    H275074   1.268   5.776   3.934  1.3044  0.8012 -0.2380
17887TIP3   OH275075   5.810   4.461  11.809 -0.5866 -0.1197 -0.0660
17887TIP3    H175076   5.742   4.448  11.743 -3.1859  1.7020  2.0358
17887TIP3    H275077   5.776   4.418  11.888  2.6063 -2.6190  0.1549
17888TIP3   OH275078   5.242   2.349  13.460 -0.1736  0.4451  0.2893
17888TIP3    H175079   5.276   2.344  13.549 -0.1259  0.4322  0.2710
17888TIP3    H275080   5.184   2.273  13.452  2.3660 -1.5318 -0.7749
17889TIP3   OH275081   6.107   5.787  16.552 -0.0116  0.2057  0.3661
17889TIP3    H175082   6.055   5.772  16.473 -0.5782  2.7727  0.1432
17889TIP3    H275083   6.182   5.728  16.544 -1.4368 -1.5185 -0.7301
17890TIP3   OH275084   5.664   0.676  16.490  0.5135 -0.0324 -0.3689
17890TIP3    H175085   5.620   0.597  16.522  1.1052 -0.0272  0.4989
17890TIP3    H275086   5.751   0.644  16.463  0.6618  0.2736 -0.2526
17891TIP3   OH275087   5.733   4.219   1.694  0.1269 -0.4595 -0.3377
17891TIP3    H175088   5.718   4.189   1.605  2.9285 -1.3144 -0.6199
17891TIP3    H275089   5.768   4.308   1.683  0.3072 -0.4991 -0.0894
17892TIP3   OH275090   5.845   2.310   1.112  0.4622 -0.4020 -0.5372
17892TIP3    H175091   5.841   2.231   1.166  0.1563  0.4288  0.7003
17892TIP3    H275092   5.936   2.339   1.117  0.1327  0.5151  0.8432
17893TIP3   OH275093   0.517   5.073  16.387 -0.3075 -0.2031  0.1573
17893TIP3    H175094   0.450   5.093  16.452 -0.4498 -0.4958  0.1023
17893TIP3    H275095   0.541   4.982  16.404 -0.7064 -0.4451 -0.5158
17894TIP3   OH275096   4.915   4.701   4.050  0.0628 -0.6066 -0.4425
17894TIP3    H175097   4.972   4.773   4.077  0.8815 -1.3849 -0.0077
17894TIP3    H275098   4.827   4.730   4.072  0.4163  0.0927  0.1016
17895TIP3   OH275099   2.197   4.998  13.633 -1.1429 -0.0406 -0.4281
17895TIP3    H175100   2.213   5.045  13.551 -0.9647  0.3548 -0.1703
17895TIP3    H275101   2.102   4.994  13.641 -1.1641 -0.3203 -0.7878
17896TIP3   OH275102   1.147   4.153   1.972  0.0387 -0.4264  0.5362
17896TIP3    H175103   1.056   4.176   1.991 -0.4432 -0.1243 -1.7564
17896TIP3    H275104   1.145   4.127   1.880  2.5074  0.8792  0.0403
17897TIP3   OH275105   0.507   4.450   2.666 -0.2347  0.0599 -0.7683
17897TIP3    H175106   0.449   4.460   2.590  0.3174  2.4427 -0.9505
17897TIP3    H275107   0.584   4.405   2.631  0.4758  2.0767 -1.9518
17898TIP3   OH275108   3.765   3.208   1.820 -0.5397 -0.0514 -0.4873
17898TIP3    H175109   3.699   3.224   1.752 -0.3679 -1.6218 -1.0689
17898TIP3    H275110   3.783   3.114   1.813  2.7857  0.5409 -1.2719
17899TIP3   OH275111   1.648   0.926   0.480 -0.6983 -0.1789  0.4121
17899TIP3    H175112   1.663   0.895   0.391 -2.1836 -0.4937  0.2459
17899TIP3    H275113   1.664   1.021   0.475 -0.3873 -0.2511 -0.0897
17900TIP3   OH275114   1.187   2.989  17.017  0.0424  0.0773 -0.4059
17900TIP3    H175115   1.171   3.079  16.989 -0.4099 -0.5025 -2.0793
17900TIP3    H275116   1.108   2.964  17.065  0.1707  0.5519  0.0650
17901TIP3   OH275117   0.585   4.798   5.115 -0.4727 -0.2878  0.0813
17901TIP3    H175118   0.492   4.777   5.122  0.1943 -3.6035  0.9687
17901TIP3    H275119   0.623   4.767   5.198  1.4796  0.7131 -0.3655
17902TIP3   OH275120   2.841   6.297   5.528  0.4946  0.1501  0.1712
17902TIP3    H175121   2.903   6.297   5.456 -0.4238  0.9995 -0.6507
17902TIP3    H275122   2.817   6.390   5.539 -1.0404 -0.2116  0.0889
17903TIP3   OH275123   2.038   1.092  15.891  0.3346  0.1517 -0.3872
17903TIP3    H175124   2.035   1.041  15.972 -1.2892 -1.3831 -1.3361
17903TIP3    H275125   2.080   1.034  15.828 -1.4569 -0.0481 -1.4694
17904TIP3   OH275126   6.699   0.387  15.050  0.0570 -0.3722 -0.0629
17904TIP3    H175127   6.697   0.308  15.105 -1.0406 -1.5023 -1.6250
17904TIP3    H275128   6.625   0.439  15.080 -0.8952 -1.2616 -0.8285
17905TIP3   OH275129   4.748   1.743   0.579  0.1920  0.2728 -0.3210
17905TIP3    H175130   4.701   1.660   0.577  2.1553 -0.9427  0.6310
17905TIP3    H275131   4.818   1.732   0.514  0.5188  1.1569 -0.1336
17906TIP3   OH275132   3.527   5.413  11.304  0.1703 -0.0558  0.1487
17906TIP3    H175133   3.485   5.373  11.380  0.9319  1.2142  1.2899
17906TIP3    H275134   3.555   5.499  11.335 -0.7576  1.0896 -1.9834
17907TIP3   OH275135   6.126   2.855  16.657  0.3682 -0.5167  0.2301
17907TIP3    H175136   6.088   2.929  16.705 -1.2488 -0.5742 -0.8848
17907TIP3    H275137   6.220   2.863  16.672  0.2703  1.9255 -0.0506
17908TIP3   OH275138   2.348   5.822   3.275 -0.4013  0.8122 -0.3948
17908TIP3    H175139   2.295   5.894   3.309 -0.1283  0.2211  1.3997
17908TIP3    H275140   2.323   5.746   3.328  1.7391  0.3617  0.0799
17909TIP3   OH275141   2.319   1.608  16.564 -0.0896 -0.0846  0.3408
17909TIP3    H175142   2.266   1.583  16.640  0.9574  1.3471  1.5958
17909TIP3    H275143   2.261   1.662  16.511 -0.5249 -0.2822  0.6051
17910TIP3   OH275144   3.903   2.352   4.215  0.1294 -0.4653 -0.1545
17910TIP3    H175145   3.940   2.434   4.182  3.0335 -1.9795 -0.9175
17910TIP3    H275146   3.921   2.353   4.309  2.8394 -1.4128 -0.5853
17911TIP3   OH275147   4.444   1.959  11.337  0.0348 -0.1111 -0.2292
17911TIP3    H175148   4.412   2.034  11.386  2.7355  1.4247 -0.6175
17911TIP3    H275149   4.509   1.919  11.394 -1.3857 -2.2659 -0.0184
17912TIP3   OH275150   0.817   4.095   0.464 -0.2084 -0.5859  0.8226
17912TIP3    H175151   0.811   4.129   0.375  1.5516 -0.2253  0.7964
17912TIP3    H275152   0.752   4.025   0.468  1.1338 -2.1192 -1.4705
17913TIP3   OH275153   1.642   4.791  16.792 -0.3768 -0.4159 -0.7707
17913TIP3    H175154   1.649   4.846  16.714 -0.0197  0.1207 -0.3733
17913TIP3    H275155   1.559   4.746  16.782 -0.9057  0.5557 -0.8933
17914TIP3   OH275156   1.099   4.142  13.630  0.0915 -0.4755 -0.5094
17914TIP3    H175157   1.074   4.076  13.695 -1.1543  0.0290 -0.4605
17914TIP3    H275158   1.037   4.214  13.642 -0.2085 -0.3811 -2.2870
17915TIP3   OH275159   4.686   3.812  12.923  0.0267 -0.6208  0.3690
17915TIP3    H175160   4.657   3.746  12.859 -0.4910 -0.1544  0.1110
17915TIP3    H275161   4.608   3.864  12.940 -0.5177 -2.2153  3.2769
17916TIP3   OH275162   1.023   4.945   5.125  0.0402 -0.2126  0.0286
17916TIP3    H175163   0.993   4.855   5.111  0.9070 -0.4392 -0.4535
17916TIP3    H275164   0.945   4.992   5.156 -0.5873 -0.9700 -0.3647
17917TIP3   OH275165   6.553   4.952  11.496 -0.2726 -0.3236 -0.6013
17917TIP3    H175166   6.477   4.900  11.473 -1.8995  1.4354  0.5385
17917TIP3    H275167   6.569   4.933  11.588  0.0414  0.0596 -0.5730
17918TIP3   OH275168   3.899   1.260   1.319 -0.2702 -0.2278  0.8755
17918TIP3    H175169   3.826   1.210   1.356 -0.5722  0.6346  1.4887
17918TIP3    H275170   3.956   1.278   1.394 -0.5180  0.9313  0.7945
17919TIP3   OH275171   4.543   4.284  13.068 -0.0553  0.0226  0.1365
17919TIP3    H175172   4.476   4.324  13.124 -2.6307 -0.8761 -2.0672
17919TIP3    H275173   4.590   4.359  13.031  0.5753  0.6624  2.1036
17920TIP3   OH275174   2.169   2.028  17.052  0.3134 -0.0412 -0.0587
17920TIP3    H175175   2.220   2.078  17.116  0.6482 -0.2694 -0.1379
17920TIP3    H275176   2.178   1.937  17.082 -2.4907  0.1383  1.6319
17921TIP3   OH275177   2.587   2.972   5.972 -0.1237  0.0015 -0.0291
17921TIP3    H175178   2.603   2.882   5.944  1.8434 -0.2723  1.7464
17921TIP3    H275179   2.560   2.965   6.063 -1.7775  1.1318 -0.3861
17922TIP3   OH275180   1.838   4.234   2.841 -0.0103 -0.5949  0.5485
17922TIP3    H175181   1.924   4.231   2.882  0.2465 -0.7040 -0.0002
17922TIP3    H275182   1.791   4.302   2.890  0.9900  0.7735 -0.3138
17923TIP3   OH275183   3.077   4.170   0.218 -0.1625 -0.4101 -0.2967
17923TIP3    H175184   3.034   4.252   0.244  1.6423  0.0802  1.3717
17923TIP3    H275185   3.051   4.107   0.286  0.1194 -0.6665 -0.4248
17924TIP3   OH275186   0.480   1.632   0.780 -0.7774 -0.9237 -0.5409
17924TIP3    H175187   0.453   1.547   0.815  0.6263 -1.2224 -0.1162
17924TIP3    H275188   0.414   1.653   0.714 -1.8940 -1.6956  0.3071
17925TIP3   OH275189   5.417   6.342  17.022 -0.0457  0.4352  0.2179
17925TIP3    H175190   5.351   6.304  16.964 -0.9329  0.6961  1.0142
17925TIP3    H275191   5.391   6.434  17.031  1.1091  0.8396 -0.3626
17926TIP3   OH275192   4.860   3.743   0.025  0.1972  0.0235  0.0736
17926TIP3    H175193   4.777   3.703   0.050  0.1826 -0.4741 -0.7563
17926TIP3    H275194   4.926   3.697   0.077 -0.0916  0.8456  1.2048
17927TIP3   OH275195   1.091   5.970  13.085 -0.2409 -0.3845 -0.6233
17927TIP3    H175196   1.158   5.990  13.150  0.0143 -0.8202 -0.7463
17927TIP3    H275197   1.011   6.008  13.120 -0.1577 -0.8401  0.0752
17928TIP3   OH275198   5.794   6.342  11.194 -0.0828  0.4776 -0.1725
17928TIP3    H175199   5.751   6.257  11.186  1.3880 -0.3206 -0.0004
17928TIP3    H275200   5.853   6.332  11.269  1.9694  0.7976 -1.6738
17929TIP3   OH275201   2.820   1.656   5.797 -0.5260  0.4932  0.3383
17929TIP3    H175202   2.739   1.701   5.821  0.0493  1.2208  0.9690
17929TIP3    H275203   2.883   1.682   5.864  0.7880  1.5545 -1.2132
17930TIP3   OH275204   3.918   3.465   0.168  0.0787 -0.3760 -0.1601
17930TIP3    H175205   3.859   3.395   0.141  0.5864 -0.9737  0.2641
17930TIP3    H275206   3.997   3.453   0.114 -0.0026  0.1391 -0.4003
17931TIP3   OH275207   6.050   5.759   4.999 -0.2934  0.2660  0.2320
17931TIP3    H175208   6.031   5.765   5.092  0.6861  0.5016  0.4294
17931TIP3    H275209   6.020   5.672   4.974  1.1881 -0.5551  1.1975
17932TIP3   OH275210   6.205   3.023  14.094 -0.1965 -0.0126 -0.4140
17932TIP3    H175211   6.180   3.110  14.063 -1.5788 -0.2389 -0.0171
17932TIP3    H275212   6.151   2.963  14.042 -0.7956 -0.5096  0.7485
17933TIP3   OH275213   4.031   5.857   6.242 -0.0042 -0.0354  0.6174
17933TIP3    H175214   3.966   5.868   6.311 -1.4571 -0.7174 -0.5896
17933TIP3    H275215   4.030   5.940   6.194 -2.0902 -0.9548 -1.0884
17934TIP3   OH275216   5.753   4.578   3.702  0.5702  0.2600 -0.7362
17934TIP3    H175217   5.662   4.599   3.681  0.3069  0.0614  0.1638
17934TIP3    H275218   5.799   4.661   3.692  0.3537  0.2975 -1.4955
17935TIP3   OH275219   2.912   5.772   3.536  0.5517  0.4068  0.0303
17935TIP3    H175220   2.969   5.732   3.470  0.1300 -0.9868  0.4885
17935TIP3    H275221   2.838   5.807   3.486  1.3911  1.5262 -0.4807
17936TIP3   OH275222   4.793   5.754   0.641 -0.2851 -0.3625  0.3245
17936TIP3    H175223   4.729   5.730   0.708  1.0910  1.3180  2.3903
17936TIP3    H275224   4.830   5.671   0.613 -0.7422 -1.1387  1.8764
17937TIP3   OH275225   0.286   1.239   1.927  0.4116  0.6570 -0.1943
17937TIP3    H175226   0.251   1.278   2.007  1.0567  0.4023  0.2215
17937TIP3    H275227   0.211   1.199   1.885  0.0792  0.7286  0.3238
17938TIP3   OH275228   5.866   5.783   0.867  0.3818  1.1305 -0.0759
17938TIP3    H175229   5.901   5.831   0.942  2.4775 -0.0959 -0.1686
17938TIP3    H275230   5.923   5.807   0.794  1.6899 -1.5043 -0.0726
17939TIP3   OH275231   3.019   3.732   0.694  0.2375 -0.1735  0.8040
17939TIP3    H175232   3.074   3.694   0.762 -1.4847 -2.2237  1.1549
17939TIP3    H275233   3.081   3.762   0.627  1.8192 -1.6864  1.5101
17940TIP3   OH275234   4.287   2.621  10.416  0.3794  0.4721 -0.6267
17940TIP3    H175235   4.319   2.602  10.504  0.4726 -1.6560 -1.0610
17940TIP3    H275236   4.323   2.552  10.361 -1.2902  0.5743 -1.9675
17941TIP3   OH275237   4.456   1.040  12.775  0.0646  0.3677  0.1474
17941TIP3    H175238   4.526   1.098  12.743 -0.6590  1.2899  0.2050
17941TIP3    H275239   4.453   1.055  12.869  0.5626 -0.5462  0.3170
17942TIP3   OH275240   0.501   2.029   3.450  0.2410  0.2770 -0.7701
17942TIP3    H175241   0.522   1.942   3.486  1.2752  0.7320 -0.2314
17942TIP3    H275242   0.429   2.060   3.505  1.7706  0.9488  0.9878
17943TIP3   OH275243   3.511   0.633  11.288  0.2477 -0.2277  0.3604
17943TIP3    H175244   3.559   0.617  11.207  0.6553 -0.5180  0.6524
17943TIP3    H275245   3.541   0.720  11.317 -1.1224  0.6175 -0.6383
17944TIP3   OH275246   4.800   3.646  15.150  0.2812 -0.4043 -0.1263
17944TIP3    H175247   4.850   3.595  15.086 -0.1999 -1.3246  0.2086
17944TIP3    H275248   4.834   3.618  15.235  0.7158  0.5988  0.0496
17945TIP3   OH275249   3.016   2.235  12.230  0.0576 -0.0757  0.2348
17945TIP3    H175250   3.102   2.210  12.196  0.0455  1.1386 -0.7758
17945TIP3    H275251   2.955   2.177  12.185  0.2609 -0.2046  0.1221
17946TIP3   OH275252   4.021   5.156  12.214 -0.4212 -0.0363 -0.4120
17946TIP3    H175253   4.053   5.125  12.129 -0.1466 -1.1469  0.0754
17946TIP3    H275254   3.966   5.232  12.193  0.0270 -0.0018 -1.5318
17947TIP3   OH275255   3.156   5.180  12.315 -0.0046  0.3674  0.2372
17947TIP3    H175256   3.179   5.098  12.270 -0.3875  1.6923 -2.5913
17947TIP3    H275257   3.079   5.157  12.368 -1.2895 -0.7449 -1.9607
17948TIP3   OH275258   3.991   0.921   3.704 -0.1695 -0.2879  0.1252
17948TIP3    H175259   3.914   0.867   3.721 -0.4611  0.3693  0.9278
17948TIP3    H275260   4.063   0.873   3.744 -0.3962 -0.1784  0.6651
17949TIP3   OH275261   3.992   4.682  11.381  0.5354  0.2918  0.4389
17949TIP3    H175262   3.932   4.610  11.402  0.3306  0.8232  1.7197
17949TIP3    H275263   3.969   4.705  11.291  0.3480 -0.9847  0.1295
17950TIP3   OH275264   6.420   5.238   3.044  0.1252 -0.4305  0.4595
17950TIP3    H175265   6.345   5.296   3.060 -0.3335 -1.4119  2.1302
17950TIP3    H275266   6.497   5.292   3.060 -0.1795  0.5951 -1.2781
17951TIP3   OH275267   6.383   6.600  15.863  0.1168  0.1592 -0.4341
17951TIP3    H175268   6.368   6.506  15.853 -1.2904  0.4804 -1.8225
17951TIP3    H275269   6.298   6.635  15.891  0.4462  1.0928 -0.5734
17952TIP3   OH275270   1.755   0.399  11.385 -0.1736 -0.0725  0.2246
17952TIP3    H175271   1.826   0.462  11.399 -1.4082  1.2007  1.1424
17952TIP3    H275272   1.794   0.314  11.401  1.0844  0.6088  0.9181
17953TIP3   OH275273   6.697   3.161   1.577 -0.0738 -0.2691  0.1994
17953TIP3    H175274   6.629   3.191   1.516 -0.8377 -0.5174  0.9172
17953TIP3    H275275   6.675   3.204   1.660 -0.7039 -2.1133  1.0402
17954TIP3   OH275276   0.158   3.417   2.618  0.1738  0.5497 -0.0886
17954TIP3    H175277   0.170   3.506   2.587 -1.7143  1.1177  0.6910
17954TIP3    H275278   0.166   3.423   2.713  4.4588 -0.9212 -0.1208
17955TIP3   OH275279   1.740   6.717  12.354 -0.1282  0.5080  0.1166
17955TIP3    H175280   1.710   6.758  12.273 -0.8268 -0.5059 -0.1646
17955TIP3    H275281   1.820   6.670  12.329 -0.4106  0.0950 -0.0241
17956TIP3   OH275282   6.782   4.369  11.552  0.0113 -0.2754 -0.6697
17956TIP3    H175283   6.825   4.303  11.497  1.1267 -0.4068  0.3333
17956TIP3    H275284   6.731   4.318  11.615 -0.0704 -0.1511 -0.6347
17957TIP3   OH275285   2.117   6.298  12.308  0.2566 -0.3001 -0.6018
17957TIP3    H175286   2.130   6.234  12.238 -0.2587 -1.8435  0.6441
17957TIP3    H275287   2.124   6.246  12.388  0.2500  1.3081  0.4765
17958TIP3   OH275288   5.568   1.474  11.300  0.5080 -0.4136 -0.1958
17958TIP3    H175289   5.656   1.439  11.286  0.6312  0.3062 -1.3141
17958TIP3    H275290   5.536   1.495  11.213 -0.1204  0.9069  0.3269
17959TIP3   OH275291   6.619   2.283  10.939  0.0825  0.6027  0.8051
17959TIP3    H175292   6.705   2.281  10.981  0.9738 -3.3020 -0.7352
17959TIP3    H275293   6.635   2.324  10.854  0.5089 -0.2737  0.4504
17960TIP3   OH275294   5.001   5.278  13.051 -0.0718  0.0932  0.2049
17960TIP3    H175295   4.917   5.275  13.006 -0.1324 -0.8676  0.3709
17960TIP3    H275296   5.065   5.259  12.983  0.0360  0.9144  0.0599
17961TIP3   OH275297   0.211   0.660  15.834 -0.1401  0.3121  0.3505
17961TIP3    H175298   0.276   0.651  15.764  0.0053  1.8385  0.2560
17961TIP3    H275299   0.221   0.581  15.887 -0.5564 -1.1087 -1.5839
17962TIP3   OH275300   4.668   3.562  11.949 -0.8631 -0.2079  0.2269
17962TIP3    H175301   4.732   3.493  11.966  1.8893  1.9826 -0.4010
17962TIP3    H275302   4.696   3.635  12.005 -2.2654  1.1708 -0.7644
17963TIP3   OH275303   4.157   5.658   5.391  0.9054  0.1469  0.3959
17963TIP3    H175304   4.167   5.583   5.333  0.5374  0.2519  0.1940
17963TIP3    H275305   4.210   5.637   5.468  2.6076  0.6495 -0.5859
17964TIP3   OH275306   4.463   2.821  11.406  0.6045 -0.1128 -0.2272
17964TIP3    H175307   4.453   2.734  11.444  0.5218  0.4280  1.0574
17964TIP3    H275308   4.491   2.805  11.316 -0.2583 -1.4743 -0.2912
17965TIP3   OH275309   6.625   0.083   4.856  0.3389  1.1907 -0.3533
17965TIP3    H175310   6.699   0.087   4.917 -0.3920  1.8347  0.5230
17965TIP3    H275311   6.557   0.035   4.903 -0.1659  1.5058 -0.7468
17966TIP3   OH275312   4.604   1.911  11.555  0.5122  0.6685  0.3646
17966TIP3    H175313   4.573   1.972  11.623  1.5693  0.6318  0.8924
17966TIP3    H275314   4.668   1.856  11.600 -1.4438 -1.8368  0.2872
17967TIP3   OH275315   6.445   4.029   2.298 -0.3120  0.0561 -0.1803
17967TIP3    H175316   6.538   4.018   2.318 -0.3994 -0.9194 -0.2658
17967TIP3    H275317   6.417   3.943   2.266 -0.9832  0.6459 -1.2317
17968TIP3   OH275318   3.654   1.675  16.609 -0.3106 -0.7042 -0.0564
17968TIP3    H175319   3.571   1.688  16.654  1.3581  3.6310  2.3657
17968TIP3    H275320   3.653   1.739  16.538  0.7906 -0.8821 -0.2528
17969TIP3   OH275321   0.911   5.342  13.355 -0.4239 -0.1060  0.1860
17969TIP3    H175322   0.907   5.405  13.427  0.2283 -1.2126  1.2206
17969TIP3    H275323   0.826   5.298  13.357 -0.8788  0.7052 -0.5351
17970TIP3   OH275324   6.135   2.998   3.190  0.6231  0.5482  0.1917
17970TIP3    H175325   6.154   3.091   3.173 -0.8179  0.9819  0.7920
17970TIP3    H275326   6.221   2.957   3.197  1.3021  1.5911 -1.3240
17971TIP3   OH275327   5.331   6.385   3.168  0.6736  0.2551  0.5198
17971TIP3    H175328   5.417   6.419   3.146  1.9458 -1.8897  1.8272
17971TIP3    H275329   5.345   6.333   3.247 -1.6616 -0.8136  0.3280
17972TIP3   OH275330   1.896   3.044  16.026 -0.1541  0.4225 -0.6085
17972TIP3    H175331   1.816   3.014  16.069  0.6847  0.3896  0.9931
17972TIP3    H275332   1.958   3.060  16.098  0.9653  1.4019 -1.7348
17973TIP3   OH275333   3.239   2.559  14.526 -0.4480  0.3845  0.1768
17973TIP3    H175334   3.164   2.538  14.471  0.7183 -1.5924 -0.7799
17973TIP3    H275335   3.201   2.598  14.605 -2.5296 -1.0645 -0.0290
17974TIP3   OH275336   2.879   5.461  14.295 -0.2001  0.4012  0.6742
17974TIP3    H175337   2.883   5.412  14.213  0.9376 -0.5973  1.2888
17974TIP3    H275338   2.882   5.394  14.363  0.2575  1.2698  1.5366
17975TIP3   OH275339   2.527   1.082   0.825 -0.0900 -0.4147 -0.3644
17975TIP3    H175340   2.572   1.109   0.905 -0.8884 -0.1382 -0.0031
17975TIP3    H275341   2.573   1.003   0.798  3.4060  2.0216 -2.3644
17976TIP3   OH275342   0.905   4.378  14.203  0.5884  0.5199  0.0439
17976TIP3    H175343   0.853   4.433  14.145 -1.3723 -2.3370 -1.1701
17976TIP3    H275344   0.972   4.436  14.238 -1.7408  3.8086 -0.4678
17977TIP3   OH275345   4.713   0.647  11.898  0.0938 -0.0046 -0.8157
17977TIP3    H175346   4.745   0.630  11.986 -1.1079 -2.0887 -0.7226
17977TIP3    H275347   4.791   0.642  11.842  0.7840  0.8719  0.0373
17978TIP3   OH275348   3.923   4.827   2.307  0.7042 -0.1600  0.3272
17978TIP3    H175349   3.955   4.891   2.243  1.9900  2.7645  3.5914
17978TIP3    H275350   3.996   4.765   2.316 -0.3467 -2.0071 -2.4674
17979TIP3   OH275351   0.988   5.774  16.113 -0.1923 -0.2343  0.1869
17979TIP3    H175352   0.907   5.813  16.144  0.2044  0.2719  0.6045
17979TIP3    H275353   0.986   5.786  16.018 -0.0428  0.8817  0.3117
17980TIP3   OH275354   0.213   0.143   4.615 -0.0033 -0.4402  0.0134
17980TIP3    H175355   0.187   0.201   4.686  0.8883  0.5576 -0.4388
17980TIP3    H275356   0.276   0.083   4.655 -0.3430 -0.5981  0.3113
17981TIP3   OH275357   4.270   6.425  12.443  0.0702 -0.1130 -0.0774
17981TIP3    H175358   4.213   6.349  12.450 -1.1890  0.8114  0.1230
17981TIP3    H275359   4.296   6.444  12.533 -3.1703  2.2386  0.5175
17982TIP3   OH275360   2.532   1.577   2.691  0.0294 -0.0571  0.1433
17982TIP3    H175361   2.607   1.527   2.657  1.7524  1.8454  0.9535
17982TIP3    H275362   2.467   1.510   2.711  2.0278 -1.9611  0.7479
17983TIP3   OH275363   1.967   1.387  11.336  0.2419 -0.4195  0.4675
17983TIP3    H175364   1.952   1.312  11.395 -1.4058 -0.4863 -0.0077
17983TIP3    H275365   2.060   1.379  11.312  0.2411 -1.9978  0.8505
17984TIP3   OH275366   4.172   4.948   4.044 -0.3552 -0.1801 -0.2032
17984TIP3    H175367   4.170   4.898   3.963 -3.3481 -0.7758  0.1339
17984TIP3    H275368   4.202   4.886   4.110 -0.9134 -0.5958 -0.3378
17985TIP3   OH275369   0.231   6.578  12.787  0.3654 -0.0977 -0.0599
17985TIP3    H175370   0.299   6.513  12.768  0.6332  0.0174  0.4853
17985TIP3    H275371   0.165   6.529  12.837  1.1153  0.2925  1.3807
17986TIP3   OH275372   0.840   3.828  14.180 -0.3748 -0.3066  0.6000
17986TIP3    H175373   0.784   3.906  14.183  1.9427  1.4962 -0.1253
17986TIP3    H275374   0.781   3.758  14.152 -2.9355  0.7433  2.7812
17987TIP3   OH275375   4.276   4.926   1.671  0.2593  0.7223 -0.2305
17987TIP3    H175376   4.304   4.862   1.736 -0.2445 -0.3368 -1.0261
17987TIP3    H275377   4.358   4.961   1.636  0.7081 -1.7005 -1.9094
17988TIP3   OH275378   4.872   3.581   4.914  0.3997 -0.0566 -0.2913
17988TIP3    H175379   4.879   3.489   4.941  1.4926  0.6134  2.0190
17988TIP3    H275380   4.803   3.617   4.970 -0.0714  0.5323 -1.2262
17989TIP3   OH275381   1.838   1.516   1.755 -0.2498 -0.1780  0.3648
17989TIP3    H175382   1.885   1.466   1.821 -0.6076  2.6996  3.0707
17989TIP3    H275383   1.745   1.499   1.773 -0.4423 -2.6933 -2.3346
17990TIP3   OH275384   5.147   5.494   2.946 -0.4214 -0.3072 -0.6316
17990TIP3    H175385   5.131   5.533   3.031  0.0280 -1.7668  0.1533
17990TIP3    H275386   5.077   5.528   2.890 -0.1176  1.4722  0.0199
17991TIP3   OH275387   1.266   1.450   4.045 -0.5159  0.2736  0.0122
17991TIP3    H175388   1.350   1.443   4.000 -1.0849 -0.6377 -0.9679
17991TIP3    H275389   1.247   1.544   4.045 -0.5357  0.3109 -1.7933
17992TIP3   OH275390   0.567   0.225   3.916  0.1560 -0.1708  0.6645
17992TIP3    H175391   0.541   0.307   3.875  0.7660 -0.3968 -0.2112
17992TIP3    H275392   0.646   0.246   3.965 -0.7742  0.1794  2.0643
17993TIP3   OH275393   4.004   4.464  12.941 -0.1843 -1.0003  0.1197
17993TIP3    H175394   4.067   4.470  12.869  0.0457  0.7369  0.4187
17993TIP3    H275395   3.943   4.537  12.926 -0.1226 -0.5982  1.6543
17994TIP3   OH275396   2.969   4.447   4.314  0.0968  0.3470 -0.1567
17994TIP3    H175397   3.051   4.424   4.357  1.0115  1.6365 -1.1084
17994TIP3    H275398   2.982   4.538   4.286 -0.8516 -0.0607 -2.1255
17995TIP3   OH275399   0.298   1.521  10.756  0.1990  0.2488 -0.8041
17995TIP3    H175400   0.235   1.530  10.684 -0.8611  0.1635  0.0881
17995TIP3    H275401   0.246   1.493  10.831  1.1188  1.2005  0.2450
17996TIP3   OH275402   0.009   1.393  17.234  0.1713  1.1899  0.6777
17996TIP3    H175403  -0.025   1.481  17.222  0.0599  1.1654  0.8191
17996TIP3    H275404   0.101   1.406  17.258 -0.2482  1.3267  2.3077
17997TIP3   OH275405   6.251   1.595   4.568 -0.3326 -0.4027  0.2412
17997TIP3    H175406   6.252   1.655   4.642 -0.2758 -0.6220  0.4187
17997TIP3    H275407   6.221   1.648   4.494  0.0782 -0.0625  0.3162
17998TIP3   OH275408   2.517   5.382  10.665  0.2495  0.4176 -0.6161
17998TIP3    H175409   2.447   5.324  10.635  1.5476  0.4383 -4.1476
17998TIP3    H275410   2.517   5.454  10.601  2.5929  1.1152  0.0795
17999TIP3   OH275411   0.010   1.955   3.818  0.5785  0.1447 -0.2059
17999TIP3    H175412   0.080   1.890   3.819  0.1426 -0.3652  1.7123
17999TIP3    H275413  -0.069   1.907   3.792  0.3093 -0.0556  0.9427
18000TIP3   OH275414   2.456   2.086  13.014 -0.5479 -0.3636 -0.0796
18000TIP3    H175415   2.417   2.038  13.086 -0.8876  0.3441  0.2181
18000TIP3    H275416   2.382   2.127  12.969 -0.1455  1.2983  0.7106
18001TIP3   OH275417   1.402   4.859   0.254  0.3658  0.4423 -0.9674
18001TIP3    H175418   1.329   4.817   0.209  1.2433 -1.2071 -0.9009
18001TIP3    H275419   1.374   4.865   0.345  0.2754 -0.0914 -0.9605
18002TIP3   OH275420   1.391   4.641  16.798 -0.1083 -0.2338 -0.0572
18002TIP3    H175421   1.328   4.582  16.757  1.3529 -0.8159 -1.6268
18002TIP3    H275422   1.440   4.585  16.859 -0.1664 -0.1274  0.0870
18003TIP3   OH275423   5.497   6.349   0.288  0.0048 -0.1789 -0.3725
18003TIP3    H175424   5.588   6.336   0.314  0.0694  0.2220 -0.3893
18003TIP3    H275425   5.503   6.381   0.197 -0.2048 -1.3446 -0.8109
18004TIP3   OH275426   0.857   5.569  11.376  0.3156  0.4125  0.1361
18004TIP3    H175427   0.827   5.524  11.454  0.2156  0.6077  0.2114
18004TIP3    H275428   0.932   5.517  11.346  0.0578  0.0676  0.0864
18005TIP3   OH275429   6.516   5.813  16.447 -0.0324  0.0465 -0.0061
18005TIP3    H175430   6.511   5.815  16.352  0.6005 -0.6672 -0.0700
18005TIP3    H275431   6.541   5.723  16.467 -1.0790 -0.0650  0.8855
18006TIP3   OH275432   5.699   3.944   0.380  0.0262  0.4270 -0.3092
18006TIP3    H175433   5.651   3.979   0.305 -0.3436 -1.2277 -0.8975
18006TIP3    H275434   5.632   3.936   0.449  0.1288  0.9488 -0.1489
18007TIP3   OH275435   3.536   4.432  12.903  0.1890 -0.2620  0.0383
18007TIP3    H175436   3.463   4.393  12.854  1.2383 -0.3634 -1.5303
18007TIP3    H275437   3.496   4.505  12.950 -1.0828 -0.8314 -0.0981
18008TIP3   OH275438   0.038   3.906  11.859 -0.3322 -0.4536 -0.0366
18008TIP3    H175439   0.066   3.880  11.771  1.4872  0.4308  0.2378
18008TIP3    H275440  -0.020   3.836  11.887  0.1287 -1.4392 -1.4210
18009TIP3   OH275441   1.744   6.118  15.616  0.3030  0.2665 -0.0472
18009TIP3    H175442   1.721   6.184  15.682  0.1221 -1.2068  1.4211
18009TIP3    H275443   1.660   6.086  15.583  0.2698 -1.3318  1.4527
18010TIP3   OH275444   6.186   6.456  15.091 -0.2925  0.5093  0.4172
18010TIP3    H175445   6.211   6.476  15.181  1.6827  0.8185 -0.1359
18010TIP3    H275446   6.112   6.514  15.073  0.8256  2.2248  1.1035
18011TIP3   OH275447   0.549   5.385  10.718  0.7255  0.6523  0.1512
18011TIP3    H175448   0.600   5.380  10.637 -1.6433  1.7007 -1.5224
18011TIP3    H275449   0.497   5.465  10.709 -0.7976 -0.0326  2.0030
18012TIP3   OH275450   1.845   5.326   3.055 -0.1218 -0.7346  0.1995
18012TIP3    H175451   1.764   5.343   3.006  0.1387  0.6387  0.1937
18012TIP3    H275452   1.816   5.279   3.133 -0.8440 -0.8160 -0.1069
18013TIP3   OH275453   4.880   6.105  12.395  0.0295  0.7569  0.1810
18013TIP3    H175454   4.890   6.032  12.456 -1.2251 -1.3919 -1.9556
18013TIP3    H275455   4.967   6.117  12.357  0.5287  1.2544  1.4547
18014TIP3   OH275456   0.519   4.329   2.290 -0.4178  0.3210 -0.2626
18014TIP3    H175457   0.528   4.281   2.372  0.9144  0.5440 -0.2499
18014TIP3    H275458   0.442   4.385   2.302 -1.3736 -1.0215  0.1089
18015TIP3   OH275459   6.567   2.452   2.248  0.0070  0.1047  0.0164
18015TIP3    H175460   6.537   2.410   2.167  1.2370  1.7573 -1.3725
18015TIP3    H275461   6.627   2.389   2.287 -1.6456 -1.3002  0.4321
18016TIP3   OH275462   5.264   5.909   5.331  0.2195 -0.3707 -0.4109
18016TIP3    H175463   5.265   5.832   5.388 -0.8812 -1.3478 -1.6422
18016TIP3    H275464   5.276   5.874   5.243 -2.1446  0.6107 -1.2182
18017TIP3   OH275465   0.023   3.550  11.669 -0.3193 -0.1680  0.6655
18017TIP3    H175466  -0.051   3.602  11.638  1.2382  0.8875 -1.5793
18017TIP3    H275467   0.000   3.460  11.644 -0.1238  0.3746 -1.6829
18018TIP3   OH275468   5.285   1.751   5.115 -0.8012  0.7619  0.5126
18018TIP3    H175469   5.195   1.736   5.088 -0.4486  0.7402 -0.7099
18018TIP3    H275470   5.307   1.837   5.080  0.0440  0.2277 -0.3174
18019TIP3   OH275471   1.613   6.081  10.317 -0.6300  0.1634  0.2330
18019TIP3    H175472   1.675   6.152  10.299 -1.0297  0.2611 -0.8298
18019TIP3    H275473   1.531   6.125  10.338 -0.1949  0.0564  2.4411
18020TIP3   OH275474   3.805   5.452   1.386 -0.2933  0.0539 -0.1100
18020TIP3    H175475   3.799   5.475   1.293  0.7909  3.3754  0.4840
18020TIP3    H275476   3.778   5.532   1.432 -1.1476 -1.5956  2.4781
18021TIP3   OH275477   1.640   4.071   6.587 -0.3644 -0.4769  0.0864
18021TIP3    H175478   1.685   3.997   6.546 -1.7382 -1.3719  0.1064
18021TIP3    H275479   1.689   4.148   6.559 -1.0565 -1.0457 -3.1044
18022TIP3   OH275480   4.606   3.693   3.876 -0.2553  0.3274 -0.2921
18022TIP3    H175481   4.523   3.722   3.837 -1.1709  2.7362  3.0336
18022TIP3    H275482   4.580   3.630   3.943  0.8998 -0.8423 -0.9009
18023TIP3   OH275483   4.269   0.053   1.291 -0.1431  0.1280 -0.5496
18023TIP3    H175484   4.239   0.034   1.380  0.6592  1.9305  0.1755
18023TIP3    H275485   4.198   0.103   1.251 -0.1683  0.0367 -0.6182
18024TIP3   OH275486   3.362   6.583   4.951 -0.0236  0.3766 -0.0195
18024TIP3    H175487   3.412   6.509   4.983  2.2875  1.4833 -0.8640
18024TIP3    H275488   3.367   6.576   4.855 -0.8486  0.9496 -0.1241
18025TIP3   OH275489   0.641   0.885   4.845 -0.1566 -0.1587  0.3435
18025TIP3    H175490   0.592   0.829   4.784  1.2920 -2.0446  0.7934
18025TIP3    H275491   0.725   0.899   4.801  0.7716 -1.2421  1.6784
18026TIP3   OH275492   3.590   4.465   3.998 -0.1351  0.2192 -0.7395
18026TIP3    H175493   3.632   4.380   3.988 -1.5411 -0.4919 -0.8923
18026TIP3    H275494   3.662   4.528   3.999  1.0124 -1.0512  0.4483
18027TIP3   OH275495   0.351   0.937   2.958 -0.2061  0.2953 -0.6968
18027TIP3    H175496   0.259   0.934   2.982  0.3398 -1.8636  1.7001
18027TIP3    H275497   0.395   0.966   3.038  1.3253 -0.7401 -1.1259
18028TIP3   OH275498   5.946   0.065  10.956 -0.3998  0.1219  0.7450
18028TIP3    H175499   6.028   0.026  10.925  0.7979  1.5041  2.0327
18028TIP3    H275500   5.877   0.013  10.914  1.0494 -3.2006  2.0626
18029TIP3   OH275501   3.570   3.834  13.971  0.6505 -0.5817 -0.4089
18029TIP3    H175502   3.580   3.896  13.898  0.0374 -0.2102 -0.1863
18029TIP3    H275503   3.658   3.799  13.985  0.9702  0.1032 -0.6630
18030TIP3   OH275504   3.205   2.386   3.149 -0.4102 -0.3795 -0.3529
18030TIP3    H175505   3.170   2.345   3.070  0.1026 -1.3891 -0.0762
18030TIP3    H275506   3.189   2.321   3.218 -1.6583  0.8424  0.5720
18031TIP3   OH275507   5.048   4.008  17.074 -0.1955 -0.2481 -0.4395
18031TIP3    H175508   4.958   3.979  17.058  0.0319 -1.1217 -0.1787
18031TIP3    H275509   5.047   4.101  17.053 -0.7396 -0.6042 -2.1208
18032TIP3   OH275510   0.124   5.152   3.014 -0.2491  0.6100 -0.2110
18032TIP3    H175511   0.070   5.097   3.070  0.1376  1.5598  1.1358
18032TIP3    H275512   0.203   5.101   2.999  0.0711  0.7247  0.9604
18033TIP3   OH275513   4.654   6.631   3.166  0.0484  0.6526  0.5375
18033TIP3    H175514   4.692   6.620   3.253  0.4037 -1.3786  0.1851
18033TIP3    H275515   4.681   6.719   3.138  1.4705  0.6372  1.7492
18034TIP3   OH275516   4.793   1.130   4.465 -0.3882  0.3170 -0.0109
18034TIP3    H175517   4.740   1.075   4.524 -0.2619 -0.7866 -0.8913
18034TIP3    H275518   4.774   1.220   4.492 -2.6661 -0.0438 -0.2621
18035TIP3   OH275519   6.329   1.223  13.230 -0.5549 -0.3278  0.3148
18035TIP3    H175520   6.381   1.255  13.156  0.5723 -2.2024  0.2234
18035TIP3    H275521   6.341   1.290  13.297 -0.8504  0.9584 -0.8609
18036TIP3   OH275522   6.752   4.957   1.078  0.5752 -0.9875 -0.0003
18036TIP3    H175523   6.698   5.008   1.138  0.8164  0.7736 -1.2043
18036TIP3    H275524   6.716   4.869   1.082 -0.6093 -0.4738  1.2811
18037TIP3   OH275525   2.514   2.550  10.514  0.0679 -0.2193  0.4165
18037TIP3    H175526   2.551   2.462  10.524 -1.8693 -1.0728  0.5442
18037TIP3    H275527   2.465   2.547  10.432 -0.6557  0.4849  0.8036
18038TIP3   OH275528   2.832   2.544  15.778  0.2106 -0.1457  0.2971
18038TIP3    H175529   2.903   2.499  15.732 -1.2480 -1.9429 -0.3148
18038TIP3    H275530   2.810   2.486  15.851  0.1918  1.0106  1.2375
18039TIP3   OH275531   5.744   0.064   2.378 -0.2389  0.0830 -0.1067
18039TIP3    H175532   5.807   0.109   2.433  0.6215 -0.4500 -0.6251
18039TIP3    H275533   5.797   0.009   2.320 -1.0426  1.2329 -2.0397
18040TIP3   OH275534   4.636   5.019  17.181 -0.0292  0.2200 -0.7182
18040TIP3    H175535   4.640   5.112  17.201 -0.9443 -0.1254  1.3239
18040TIP3    H275536   4.704   5.005  17.115  2.4582  1.7412  1.3710
18041TIP3   OH275537   0.959   5.714   6.581 -0.2646 -0.4132  0.0122
18041TIP3    H175538   0.898   5.689   6.651  0.6291 -0.1213  0.9244
18041TIP3    H275539   1.035   5.658   6.594  0.0704 -0.0891 -0.5008
18042TIP3   OH275540   4.646   5.849   2.074 -0.0964 -0.2822  0.2005
18042TIP3    H175541   4.714   5.913   2.094 -0.4021 -0.0544  0.5188
18042TIP3    H275542   4.605   5.830   2.159 -2.0295  1.3916 -0.2907
18043TIP3   OH275543   6.303   1.453   5.482 -0.5522  0.4549 -0.4119
18043TIP3    H175544   6.381   1.439   5.535 -1.6202 -0.3308  1.0318
18043TIP3    H275545   6.307   1.545   5.457  2.4785 -0.2503 -3.1968
18044TIP3   OH275546   0.348   3.169  14.012 -0.1722  0.5934 -0.1871
18044TIP3    H175547   0.298   3.244  14.042  1.5946  2.2922 -1.2484
18044TIP3    H275548   0.367   3.119  14.091 -0.7846  1.6558  0.6481
18045TIP3   OH275549   6.489   6.314   0.395 -0.9867  0.4739 -0.7827
18045TIP3    H175550   6.507   6.233   0.442  1.6506  1.1498 -0.4926
18045TIP3    H275551   6.405   6.343   0.430 -0.0183  0.0039  2.2190
18046TIP3   OH275552   0.132   4.268  16.705  0.0623  0.0956  0.0731
18046TIP3    H175553   0.123   4.184  16.750  1.7562 -0.7317 -1.0201
18046TIP3    H275554   0.075   4.261  16.629  1.6248 -0.9026 -1.0787
18047TIP3   OH275555   2.867   0.279  13.074  0.0061 -0.0816 -0.2453
18047TIP3    H175556   2.941   0.224  13.101  1.6427  1.8107 -0.6434
18047TIP3    H275557   2.904   0.337  13.008 -2.0791  0.3892 -1.0638
18048TIP3   OH275558   6.240   1.342   3.430 -0.2562 -0.2225  0.4337
18048TIP3    H175559   6.200   1.365   3.346  0.6878  0.5051  0.1688
18048TIP3    H275560   6.306   1.276   3.408  2.2887  2.2382  0.0362
18049TIP3   OH275561   2.347   2.267   1.474 -0.5160 -0.0736 -0.3913
18049TIP3    H175562   2.281   2.206   1.506  0.2206  0.0487  1.4847
18049TIP3    H275563   2.367   2.237   1.385 -0.9022 -1.9530  0.1217
18050TIP3   OH275564   6.771   4.179   4.321 -0.4937 -0.1121  0.2406
18050TIP3    H175565   6.823   4.102   4.297 -0.4538 -0.2275  0.6966
18050TIP3    H275566   6.833   4.235   4.368 -1.0955 -0.8366  1.9739
18051TIP3   OH275567   2.318   2.765   3.193  0.3673  0.0422 -0.4937
18051TIP3    H175568   2.240   2.820   3.189  0.3744  0.2078  0.9848
18051TIP3    H275569   2.319   2.731   3.283  0.9120 -1.5700 -1.0736
18052TIP3   OH275570   3.932   6.451  10.857 -0.5521  0.2861 -0.1160
18052TIP3    H175571   3.919   6.534  10.903 -1.5444 -1.2059  2.5580
18052TIP3    H275572   3.849   6.433  10.814 -0.4679  0.5093 -0.3675
18053TIP3   OH275573   3.425   4.221   0.076  0.3036 -0.3894  0.0827
18053TIP3    H175574   3.483   4.185   0.144 -0.5820  1.3560  1.8868
18053TIP3    H275575   3.350   4.161   0.075  0.1725 -0.2539  0.9199
18054TIP3   OH275576   0.023   0.578  11.607  0.7202 -0.0813  0.2929
18054TIP3    H175577  -0.057   0.527  11.594  0.5830 -0.2736  1.7614
18054TIP3    H275578  -0.002   0.667  11.582  0.9825 -0.6737 -2.3684
18055TIP3   OH275579   1.304   0.488   3.690  0.3766 -0.0144 -0.4230
18055TIP3    H175580   1.392   0.519   3.713 -0.4946  1.2212  1.4407
18055TIP3    H275581   1.287   0.417   3.751 -0.0355 -0.0685 -0.5980
18056TIP3   OH275582   3.826   2.014   5.080  0.0097 -0.1244 -0.7469
18056TIP3    H175583   3.770   1.996   5.005 -0.9395 -0.9950  0.1305
18056TIP3    H275584   3.794   1.954   5.148  0.3846  1.1199  0.5607
18057TIP3   OH275585   4.063   3.165  11.428 -0.2666 -0.2393  0.5530
18057TIP3    H175586   4.101   3.205  11.350 -1.5735  1.6654  0.8234
18057TIP3    H275587   4.091   3.221  11.500 -0.6974 -0.8300  1.1973
18058TIP3   OH275588   1.890   5.758   5.031 -0.6593 -0.2736  0.2600
18058TIP3    H175589   1.920   5.667   5.036  1.4072  0.3866  0.5227
18058TIP3    H275590   1.967   5.807   5.005 -1.9763  1.3155 -0.7948
18059TIP3   OH275591   0.993   0.050  11.846  0.4016 -0.8011  0.0877
18059TIP3    H175592   0.993   0.131  11.897  0.5196 -0.4620 -0.4356
18059TIP3    H275593   1.082   0.017  11.851  0.4509 -0.6861 -0.0187
18060TIP3   OH275594   3.137   1.134  15.796  0.1963 -0.1080 -0.0766
18060TIP3    H175595   3.120   1.092  15.881  0.7468 -0.8789 -0.3407
18060TIP3    H275596   3.063   1.107  15.741 -0.7014  1.2219  0.4377
18061TIP3   OH275597   1.464   5.602   5.462 -0.2881  0.1905  0.5994
18061TIP3    H175598   1.423   5.533   5.409  0.5277  0.0176  0.1634
18061TIP3    H275599   1.397   5.629   5.524  0.2002 -3.0711  2.8016
18062TIP3   OH275600   1.614   1.657  13.083 -0.8194  1.0671  0.4780
18062TIP3    H175601   1.548   1.642  13.015 -0.2774 -1.1820  0.3797
18062TIP3    H275602   1.698   1.645  13.039 -0.4134  1.3315  1.1625
18063TIP3   OH275603   3.174   1.882  15.362  0.7047 -0.3034 -0.0722
18063TIP3    H175604   3.137   1.898  15.275 -0.9031  2.0842  0.9433
18063TIP3    H275605   3.237   1.954  15.374  0.2234 -0.0664  1.0835
18064TIP3   OH275606   4.742   0.513   1.599  0.5344  0.5438  0.4310
18064TIP3    H175607   4.794   0.437   1.571  1.9787  1.9028 -0.8034
18064TIP3    H275608   4.667   0.514   1.539 -0.7682 -1.1698  1.9308
18065TIP3   OH275609   5.745   1.485   1.929  0.0396 -0.1752  0.4739
18065TIP3    H175610   5.794   1.405   1.947 -0.8484 -1.0065 -0.6361
18065TIP3    H275611   5.811   1.549   1.905  0.7079 -0.8434  0.4920
18066TIP3   OH275612   1.041   5.724   4.057  0.6291  0.0975  0.0165
18066TIP3    H175613   1.088   5.797   4.017 -0.2635  0.8489  0.3086
18066TIP3    H275614   1.101   5.690   4.123  0.4086  1.6908  1.0959
18067TIP3   OH275615   1.868   6.415  11.125  0.1489 -0.2156  0.0836
18067TIP3    H175616   1.928   6.371  11.185  2.4057  0.6473 -1.4321
18067TIP3    H275617   1.826   6.345  11.077  1.3284 -0.8155 -0.1048
18068TIP3   OH275618   2.542   6.529  11.969 -0.7020  0.5627  0.0522
18068TIP3    H175619   2.480   6.598  11.945 -0.6017  0.9761  0.9347
18068TIP3    H275620   2.593   6.514  11.890 -4.1242 -2.2396 -1.9489
18069TIP3   OH275621   2.866   0.113   2.238 -0.1801  0.4971 -0.5797
18069TIP3    H175622   2.920   0.155   2.305 -0.7257  0.0880  0.1269
18069TIP3    H275623   2.861   0.177   2.167  0.4043  0.9362 -0.2326
18070TIP3   OH275624   4.481   6.112  12.491  0.1490 -0.2320 -0.8614
18070TIP3    H175625   4.525   6.196  12.503  1.2906 -1.0450  1.2382
18070TIP3    H275626   4.388   6.132  12.498  0.3600  0.9517 -1.1728
18071TIP3   OH275627   6.230   1.780   4.777 -0.2257  0.0928  0.0549
18071TIP3    H175628   6.218   1.711   4.843  1.2434 -0.5742 -0.3335
18071TIP3    H275629   6.253   1.858   4.827 -0.3824 -0.0786  0.4004
18072TIP3   OH275630   4.479   3.889   0.704  0.3579  0.1203 -0.1611
18072TIP3    H175631   4.465   3.981   0.685 -0.1024  0.8437  3.0552
18072TIP3    H275632   4.574   3.878   0.701  0.5816  1.2709  1.4058
18073TIP3   OH275633   4.756   0.397  14.770 -0.0166 -0.0132  0.3022
18073TIP3    H175634   4.715   0.419  14.686  0.8225  1.6994  0.2858
18073TIP3    H275635   4.696   0.336  14.811 -1.6780  0.9978 -0.5041
18074TIP3   OH275636   2.022   5.369  13.917 -0.5862  0.5478 -0.1216
18074TIP3    H175637   2.090   5.316  13.875 -0.4227 -1.3343  2.3014
18074TIP3    H275638   2.062   5.399  13.999 -3.0588 -2.2043  2.3426
18075TIP3   OH275639   4.701   4.938   5.584  0.4269 -0.2376  0.3532
18075TIP3    H175640   4.770   4.883   5.547  0.2830  0.2695 -0.6872
18075TIP3    H275641   4.665   4.885   5.656  1.3428 -0.8389  0.3857
18076TIP3   OH275642   5.029   6.785  11.392  0.0501  0.0080  1.1603
18076TIP3    H175643   4.988   6.701  11.410 -1.0568  0.0460 -0.9024
18076TIP3    H275644   4.965   6.850  11.420  0.8077  0.2244  2.5308
18077TIP3   OH275645   2.721   1.158   0.504 -0.0400 -0.4392  0.1862
18077TIP3    H175646   2.699   1.065   0.510  0.5974 -0.5136  1.9438
18077TIP3    H275647   2.817   1.159   0.494 -0.1386  0.0354 -0.9439
18078TIP3   OH275648   5.805   2.962   3.236 -1.0756 -0.2510  0.4943
18078TIP3    H175649   5.711   2.958   3.257 -1.7835  2.3455 -1.5218
18078TIP3    H275650   5.848   2.917   3.309 -3.6906  1.2607  3.2313
18079TIP3   OH275651   3.888   6.326   0.807  0.1559  0.5479  0.6991
18079TIP3    H175652   3.802   6.342   0.845  0.3991  1.7414  0.7842
18079TIP3    H275653   3.885   6.235   0.778 -2.2262  1.3626 -2.1234
18080TIP3   OH275654   1.910   5.483  13.601  0.4831 -0.1102  0.2313
18080TIP3    H175655   1.882   5.400  13.639  0.0036  0.9156  2.3332
18080TIP3    H275656   1.900   5.546  13.673  1.1826  1.6945 -1.1692
18081TIP3   OH275657   1.476   2.082  13.894 -0.8144  0.5885 -0.2364
18081TIP3    H175658   1.467   2.003  13.840  2.1047  0.7471 -1.1350
18081TIP3    H275659   1.495   2.152  13.831 -1.8391  1.7526  0.6866
18082TIP3   OH275660   1.973   3.026   0.874  0.1381 -0.0912  0.1519
18082TIP3    H175661   2.041   3.071   0.825 -1.6204  0.8915 -1.5605
18082TIP3    H275662   1.975   2.936   0.840 -0.3454  0.3074 -0.9790
18083TIP3   OH275663   5.868   5.598   3.231 -0.1717  0.5526 -0.3818
18083TIP3    H175664   5.922   5.611   3.308  0.2629 -2.4944 -0.0756
18083TIP3    H275665   5.781   5.577   3.265  0.2982 -2.0271 -0.5675
18084TIP3   OH275666   6.083   1.350  13.302  0.5163  0.5502 -0.2976
18084TIP3    H175667   6.028   1.414  13.349 -0.6610 -0.3789 -0.3509
18084TIP3    H275668   6.134   1.308  13.370 -0.3440  0.0119  0.0316
18085TIP3   OH275669   6.144   3.721  11.449 -0.8055 -0.6939  0.1684
18085TIP3    H175670   6.180   3.787  11.509 -2.0141 -0.4791  0.6977
18085TIP3    H275671   6.219   3.669  11.422  0.1327  0.7009 -0.0088
18086TIP3   OH275672   6.399   5.273   0.733 -0.7468  0.1833 -0.3472
18086TIP3    H175673   6.481   5.247   0.775 -0.2908 -0.6493 -1.7024
18086TIP3    H275674   6.334   5.271   0.804 -0.2468 -2.2830  0.1176
18087TIP3   OH275675   1.661   4.842   1.879 -0.3826 -0.3854 -0.0873
18087TIP3    H175676   1.651   4.773   1.945  0.1366  0.7481  1.2092
18087TIP3    H275677   1.722   4.804   1.815 -1.2967 -1.6907 -0.2236
18088TIP3   OH275678   5.429   5.830   4.444 -0.1571 -0.5009 -0.3830
18088TIP3    H175679   5.480   5.857   4.367  0.2767  1.4463  0.5075
18088TIP3    H275680   5.342   5.810   4.409 -0.3698  1.6593 -1.2733
18089TIP3   OH275681   0.050   0.269   4.813 -0.1361  0.0969 -0.1590
18089TIP3    H175682  -0.009   0.316   4.871 -1.9519 -0.9186 -1.0687
18089TIP3    H275683   0.074   0.190   4.862 -1.9595 -0.9423 -0.8286
18090TIP3   OH275684   2.732   4.043   1.381  0.1667  0.9130 -0.4114
18090TIP3    H175685   2.717   4.100   1.456  1.3538  1.3598 -0.4882
18090TIP3    H275686   2.815   4.000   1.400  0.1274  0.4968 -1.1402
18091TIP3   OH275687   5.096   5.185  15.371  0.3420 -0.1965  0.6622
18091TIP3    H175688   5.083   5.170  15.277  1.4567  0.4887  0.3718
18091TIP3    H275689   5.043   5.118  15.414 -1.2475  0.3046 -0.4252
18092TIP3   OH275690   2.299   1.994   4.683  0.1897 -0.3060 -0.0402
18092TIP3    H175691   2.252   2.065   4.640  0.0714 -0.4557 -0.1574
18092TIP3    H275692   2.319   1.932   4.613 -1.1010 -1.1542  0.3170
18093TIP3   OH275693   4.614   5.501  14.623 -0.1238  0.0277 -0.3145
18093TIP3    H175694   4.526   5.536  14.609  0.4201  0.2333 -4.0485
18093TIP3    H275695   4.670   5.578  14.626  0.2123 -0.2141 -0.4082
18094TIP3   OH275696   6.643   3.566  12.464  0.2890  0.3869  0.6555
18094TIP3    H175697   6.593   3.502  12.414  0.5981 -0.2910  1.2076
18094TIP3    H275698   6.579   3.602  12.526  0.7239 -1.4068  2.2499
18095TIP3   OH275699   6.355   0.327  15.947 -0.6401 -0.4502 -0.5267
18095TIP3    H175700   6.443   0.362  15.935 -1.0608  0.8551  0.0727
18095TIP3    H275701   6.300   0.383  15.893 -1.2159 -0.7105 -0.2137
18096TIP3   OH275702   3.382   4.288  14.539 -0.3294 -0.1438 -0.0043
18096TIP3    H175703   3.397   4.291  14.633 -1.8285  0.0316  0.2604
18096TIP3    H275704   3.354   4.199  14.522  0.0608 -0.2102 -0.3115
18097TIP3   OH275705   2.205   6.373  14.669 -0.0974  0.0898 -0.4269
18097TIP3    H175706   2.209   6.445  14.731 -2.3111 -0.2332  0.1935
18097TIP3    H275707   2.146   6.404  14.600 -0.7821 -0.9457 -0.3382
18098TIP3   OH275708   3.844   1.262  12.803  0.1894 -0.3337 -0.3229
18098TIP3    H175709   3.805   1.217  12.729 -0.7501  3.2553 -2.2110
18098TIP3    H275710   3.775   1.320  12.836  1.1772 -0.4623  2.2398
18099TIP3   OH275711   0.968   2.854  16.820  0.5375  0.0351 -0.6117
18099TIP3    H175712   1.039   2.801  16.858  0.2735 -1.2467 -1.8210
18099TIP3    H275713   0.906   2.789  16.786  0.0643  1.1293 -1.9176
18100TIP3   OH275714   5.522   6.299  16.398  0.2510  0.2606  0.5902
18100TIP3    H175715   5.608   6.265  16.375 -0.9661 -1.7535 -1.4319
18100TIP3    H275716   5.516   6.384  16.353  0.9818  0.1930  0.3667
18101TIP3   OH275717   0.817   0.499  13.092 -0.7359  0.4784 -0.5289
18101TIP3    H175718   0.751   0.558  13.055 -1.0953  0.6951  0.4219
18101TIP3    H275719   0.886   0.558  13.123 -0.3186  0.2823 -1.0697
18102TIP3   OH275720   5.289   4.726   0.287  0.2059 -0.3194 -0.1256
18102TIP3    H175721   5.208   4.692   0.250  0.3670 -0.4096 -0.4028
18102TIP3    H275722   5.263   4.806   0.333  0.0778  0.1111 -0.9061
18103TIP3   OH275723   3.404   6.587   3.734 -0.3749  0.2898  0.2916
18103TIP3    H175724   3.329   6.625   3.779  0.4236  0.5858  1.4257
18103TIP3    H275725   3.421   6.647   3.661 -1.1753  0.2706  0.0842
18104TIP3   OH275726   0.571   4.467   2.066  0.1649 -0.2455 -0.4514
18104TIP3    H175727   0.626   4.406   2.016  0.1146  0.4976 -1.4278
18104TIP3    H275728   0.565   4.427   2.154  3.1237  0.1646  0.0246
18105TIP3   OH275729   4.479   4.565  12.215  0.1681  0.1382 -0.2202
18105TIP3    H175730   4.460   4.511  12.138 -0.6800  1.7302 -1.1865
18105TIP3    H275731   4.504   4.650  12.179 -1.0375  1.1756  1.2420
18106TIP3   OH275732   4.141   0.899  11.207 -0.0878  0.0157  0.6061
18106TIP3    H175733   4.085   0.976  11.209  0.5907  0.5806 -0.7834
18106TIP3    H275734   4.136   0.868  11.116  1.2614 -0.3302  0.6218
18107TIP3   OH275735   1.610   0.391  14.200 -0.0951 -0.2748 -0.2969
18107TIP3    H175736   1.615   0.358  14.110  0.6478  0.2452 -0.4610
18107TIP3    H275737   1.701   0.405  14.225 -0.3453  0.6894  0.1184
18108TIP3   OH275738   3.903   2.670   2.931  0.0669 -0.1920 -0.1920
18108TIP3    H175739   3.831   2.731   2.914 -1.5474 -1.8838  0.3460
18108TIP3    H275740   3.943   2.657   2.845  0.0473  1.0962 -0.4286
18109TIP3   OH275741   5.804   6.226   1.080 -0.2065  0.6567 -0.4445
18109TIP3    H175742   5.767   6.150   1.035  0.7398 -0.7016  0.9679
18109TIP3    H275743   5.728   6.278   1.105 -0.9228 -0.1858 -0.8117
18110TIP3   OH275744   2.019   3.844   3.103  0.1302 -0.2468 -0.2627
18110TIP3    H175745   2.111   3.822   3.088  0.5290  0.0690  1.4766
18110TIP3    H275746   1.996   3.905   3.034  1.0599 -0.7613 -1.0423
18111TIP3   OH275747   3.674   2.486  13.799  0.5652  0.2577 -0.0538
18111TIP3    H175748   3.754   2.474  13.850  1.0158  0.7516 -0.6331
18111TIP3    H275749   3.620   2.410  13.822  0.6697  0.5609  1.2862
18112TIP3   OH275750   4.570   4.927  13.827 -0.7425 -0.0419 -0.3066
18112TIP3    H175751   4.539   4.920  13.737  2.3543 -0.5039 -1.4573
18112TIP3    H275752   4.521   5.002  13.863 -0.3365  1.7659 -3.1753
18113TIP3   OH275753   1.081   5.224   3.237  0.2863 -0.1498  0.2650
18113TIP3    H175754   1.034   5.220   3.154 -0.0304 -0.5605  0.4572
18113TIP3    H275755   1.164   5.179   3.221 -0.2109 -1.1747  0.4406
18114TIP3   OH275756   5.021   1.090  15.154  0.7546  0.8608 -0.0832
18114TIP3    H175757   4.943   1.084  15.099  0.8280 -0.6232 -0.0449
18114TIP3    H275758   4.996   1.152  15.223 -0.2181  0.7771 -0.3411
18115TIP3   OH275759   3.124   4.595   5.683 -0.1587  0.2874 -0.1823
18115TIP3    H175760   3.113   4.690   5.689 -3.2330  0.2518 -2.7360
18115TIP3    H275761   3.187   4.583   5.611 -0.1706  0.3870 -0.2091
18116TIP3   OH275762   1.153   0.618  16.923  0.2174 -0.1598  0.3681
18116TIP3    H175763   1.147   0.578  17.010  0.6318 -0.9903  0.0225
18116TIP3    H275764   1.213   0.691  16.934 -1.7871  1.4236  1.3777
18117TIP3   OH275765   2.223   6.091  14.699  0.4811 -0.1062  0.7537
18117TIP3    H175766   2.253   6.175  14.666  1.2291 -1.8032 -3.4522
18117TIP3    H275767   2.132   6.084  14.669  1.3023 -1.8822 -1.5468
18118TIP3   OH275768   4.195   1.555   3.115 -0.5753 -0.4706  0.8239
18118TIP3    H175769   4.207   1.579   3.207 -2.1650  0.1929  0.8821
18118TIP3    H275770   4.122   1.608   3.085 -0.7036 -1.3743 -0.5722
18119TIP3   OH275771   2.392   6.495   3.670 -0.6051 -0.0667 -0.5315
18119TIP3    H175772   2.415   6.407   3.638  0.1361  0.2802 -0.9664
18119TIP3    H275773   2.298   6.490   3.685 -0.8777 -0.4465 -2.1709
18120TIP3   OH275774   5.051   1.169   3.399 -0.3237 -0.2225  0.2209
18120TIP3    H175775   5.024   1.158   3.308  0.6831  4.5846 -0.9837
18120TIP3    H275776   5.147   1.166   3.396 -0.2530  0.7353  0.9070
18121TIP3   OH275777   2.996   6.260  13.981  0.1051 -0.4352 -0.2408
18121TIP3    H175778   2.993   6.316  14.058 -0.6304 -0.3281 -0.3415
18121TIP3    H275779   2.905   6.237  13.964  0.4343 -2.2584  0.2244
18122TIP3   OH275780   2.290   2.141  13.587  0.1466 -0.4217  0.4519
18122TIP3    H175781   2.305   2.208  13.520 -1.4399  0.1001  0.5606
18122TIP3    H275782   2.226   2.082  13.547  0.3002 -0.9474  0.9722
18123TIP3   OH275783   1.589   6.368  15.292 -0.1506  0.4647 -0.1046
18123TIP3    H175784   1.509   6.320  15.271 -1.2292  1.3544  1.7490
18123TIP3    H275785   1.634   6.377  15.208 -2.9924  1.7652 -1.6411
18124TIP3   OH275786   2.195   4.642  15.199  0.1697  0.6567  0.0334
18124TIP3    H175787   2.160   4.683  15.120 -1.0168 -1.4123 -0.5803
18124TIP3    H275788   2.285   4.675  15.205 -0.0682  1.6884 -1.5592
18125TIP3   OH275789   3.124   5.659   5.176  0.4135  0.3589 -0.1847
18125TIP3    H175790   3.104   5.565   5.180 -0.2553  0.5021 -0.1005
18125TIP3    H275791   3.199   5.664   5.117  0.3988 -0.2220 -0.2645
18126TIP3   OH275792   0.727   5.354  12.772 -0.0593  0.1760  0.0131
18126TIP3    H175793   0.777   5.285  12.816  0.5482 -0.7347 -2.0204
18126TIP3    H275794   0.649   5.310  12.739  0.3402  0.4403 -1.3110
18127TIP3   OH275795   1.844   6.501  15.127 -0.0798 -0.3314  0.2855
18127TIP3    H175796   1.906   6.468  15.063 -0.0015 -1.7140  1.0412
18127TIP3    H275797   1.758   6.482  15.090 -0.0539  0.1106 -0.0140
18128TIP3   OH275798   1.431   1.736   0.643 -0.3963  0.6232 -0.0001
18128TIP3    H175799   1.429   1.662   0.583 -0.6199  0.9682 -0.4272
18128TIP3    H275800   1.396   1.701   0.725 -0.6746  0.3015 -0.2511
18129TIP3   OH275801   2.949   3.259   1.731 -0.0681  1.1208  0.6188
18129TIP3    H175802   2.967   3.196   1.660  1.5840  2.4827 -0.2462
18129TIP3    H275803   2.866   3.229   1.769 -0.2218 -0.5526 -0.8871
18130TIP3   OH275804   3.809   5.328   2.857 -0.1273  0.1008 -0.6255
18130TIP3    H175805   3.870   5.280   2.913  2.6881  0.3215 -3.2601
18130TIP3    H275806   3.803   5.415   2.898 -0.8938 -0.7170  1.1181
18131TIP3   OH275807   2.213   4.178   3.059  0.3395  0.3272 -0.2373
18131TIP3    H175808   2.184   4.217   2.976  0.0868  1.0905  0.2020
18131TIP3    H275809   2.292   4.228   3.082  1.7993 -1.4316 -1.1897
18132TIP3   OH275810   4.989   5.089  15.711  0.0842 -0.0391  0.1153
18132TIP3    H175811   4.947   5.175  15.704 -0.6887 -0.3236  0.9887
18132TIP3    H275812   4.948   5.036  15.643  1.5499  0.6408 -1.3546
18133TIP3   OH275813   2.573   6.466   0.989 -0.4015  0.6028 -0.1892
18133TIP3    H175814   2.622   6.475   1.071 -0.4303  0.0798 -0.1097
18133TIP3    H275815   2.539   6.553   0.972  1.4103  1.2297 -0.7831
18134TIP3   OH275816   6.756   5.956  11.782  0.5499 -0.6933  0.1504
18134TIP3    H175817   6.771   6.039  11.828  1.2681 -0.3995 -0.5857
18134TIP3    H275818   6.732   5.982  11.693 -0.1338 -1.2660  0.1596
18135TIP3   OH275819   3.235   4.212   5.284  0.1996 -0.3471  0.3932
18135TIP3    H175820   3.193   4.210   5.198 -0.2252  1.3381  0.5271
18135TIP3    H275821   3.328   4.203   5.266  0.0742 -0.4975 -0.1961
18136TIP3   OH275822   3.251   4.249   1.779 -0.1438 -0.3055 -0.2452
18136TIP3    H175823   3.245   4.283   1.868  0.4537 -0.5023 -0.1289
18136TIP3    H275824   3.342   4.222   1.769 -0.4687 -1.3294 -0.5417
18137TIP3   OH275825   2.318   2.444   5.395  0.1646  0.2338 -0.2622
18137TIP3    H175826   2.258   2.409   5.330  1.4488  3.3310 -3.4475
18137TIP3    H275827   2.271   2.518   5.434  0.8373  0.9523 -0.7676
18138TIP3   OH275828   2.546   1.578  12.024  0.5657  0.0112 -0.5269
18138TIP3    H175829   2.477   1.568  12.089  2.4720  0.1762  1.6493
18138TIP3    H275830   2.571   1.670  12.029  1.5319 -0.2378 -0.6506
18139TIP3   OH275831   1.044   0.656   0.438 -0.5317  0.3866  0.0205
18139TIP3    H175832   0.990   0.586   0.475  0.2698  0.3314  1.1557
18139TIP3    H275833   1.111   0.673   0.505 -0.2517  1.7174 -0.5488
18140TIP3   OH275834   2.971   1.682   4.832  0.1965  0.1264 -0.0146
18140TIP3    H175835   3.031   1.737   4.883  1.3249 -0.5954 -0.5575
18140TIP3    H275836   2.909   1.648   4.898 -0.6127  2.0855  0.3298
18141TIP3   OH275837   6.447   4.769   4.869 -0.1795  0.1561  0.3650
18141TIP3    H175838   6.525   4.716   4.888  0.0623  0.3794  0.0145
18141TIP3    H275839   6.378   4.706   4.850  0.3508 -0.0323 -1.0267
18142TIP3   OH275840   2.797   1.229   1.880 -0.4756  0.3229  0.1824
18142TIP3    H175841   2.724   1.272   1.836 -0.1163  2.5025  1.5671
18142TIP3    H275842   2.843   1.182   1.810 -3.5381 -1.7969 -0.6038
18143TIP3   OH275843   2.315   2.590  12.192 -0.0212 -0.7329  0.1500
18143TIP3    H175844   2.294   2.514  12.246 -0.7422 -0.9309 -0.3913
18143TIP3    H275845   2.408   2.579  12.170 -0.4072 -2.1123 -0.9328
18144TIP3   OH275846   4.642   6.571  14.895 -0.1363  0.1709  0.1978
18144TIP3    H175847   4.695   6.637  14.939 -1.9760  1.9119 -0.0521
18144TIP3    H275848   4.562   6.564  14.948 -1.8653  1.4237 -2.0539
18145TIP3   OH275849   4.225   3.267  12.603  0.3632 -0.2181  0.6268
18145TIP3    H175850   4.138   3.266  12.643  0.1494 -1.1961  0.1868
18145TIP3    H275851   4.208   3.270  12.508  0.8315  0.4971  0.5530
18146TIP3   OH275852   2.840   5.807  12.517 -0.0008  0.2684  0.0834
18146TIP3    H175853   2.777   5.858  12.466  1.0895  0.8629 -0.7155
18146TIP3    H275854   2.821   5.716  12.495  0.6314  0.5109 -1.6977
18147TIP3   OH275855   4.533   4.035  11.525 -0.1820 -0.1288 -0.0296
18147TIP3    H175856   4.479   3.958  11.506  1.8650 -2.1697  1.8229
18147TIP3    H275857   4.614   3.999  11.563  2.0781  2.8009 -1.6444
18148TIP3   OH275858   0.726   3.837   0.493  0.0452 -0.8501  0.0568
18148TIP3    H175859   0.750   3.748   0.520  1.1407 -0.9299 -1.0982
18148TIP3    H275860   0.631   3.832   0.477  0.0589 -1.7584  0.1983
18149TIP3   OH275861   6.013   2.507  12.514 -0.3717 -0.1604 -0.1092
18149TIP3    H175862   5.984   2.468  12.431 -1.7081  1.3954 -0.4316
18149TIP3    H275863   6.063   2.584  12.488  1.5218 -1.1053  0.5300
18150TIP3   OH275864   1.627   5.219   0.330 -0.2710  0.2346 -0.4361
18150TIP3    H175865   1.544   5.178   0.352 -0.2861  0.5092  0.0539
18150TIP3    H275866   1.605   5.285   0.264 -0.2896 -0.3432 -1.0110
18151TIP3   OH275867   5.413   5.840   2.518  0.0219  0.3897 -0.1721
18151TIP3    H175868   5.430   5.908   2.584  0.8055 -0.1980  0.2579
18151TIP3    H275869   5.500   5.811   2.491 -0.1752 -2.4454  1.7755
18152TIP3   OH275870   1.217   6.057   3.475  0.1133 -0.6601 -0.6931
18152TIP3    H175871   1.301   6.074   3.516 -0.8507 -0.8026  1.4981
18152TIP3    H275872   1.205   6.127   3.411  2.6352 -1.6411 -2.3997
18153TIP3   OH275873   3.856   2.435   3.121  0.2068  0.0520 -0.6437
18153TIP3    H175874   3.938   2.485   3.124  0.2645  0.0260 -1.6893
18153TIP3    H275875   3.856   2.393   3.035 -0.3658 -0.8742 -0.2094
18154TIP3   OH275876   6.148   3.936   6.027  0.1149  0.1836 -0.6257
18154TIP3    H175877   6.109   3.990   6.096  0.5164 -2.1312  1.5535
18154TIP3    H275878   6.242   3.953   6.033  0.1980 -0.4010 -0.2561
18155TIP3   OH275879   3.609   1.762  14.663  0.3238 -0.8476  0.3213
18155TIP3    H175880   3.523   1.771  14.621  0.1254 -0.6689  0.7611
18155TIP3    H275881   3.594   1.790  14.753  0.7265 -1.3325  0.5369
18156TIP3   OH275882   4.917   4.235  12.220 -0.2910  0.1222 -0.3760
18156TIP3    H175883   4.879   4.150  12.199  0.5109 -0.1368 -0.8115
18156TIP3    H275884   4.894   4.250  12.311 -0.3179 -0.6275 -0.2554
18157TIP3   OH275885   2.346   3.187  13.273  0.3437  0.3961 -0.3835
18157TIP3    H175886   2.440   3.202  13.278  0.3120  0.7342 -0.7966
18157TIP3    H275887   2.307   3.274  13.270  0.0841  0.2625 -1.3252
18158TIP3   OH275888   0.021   6.349  15.173 -0.6150  0.3215  0.0960
18158TIP3    H175889   0.024   6.388  15.261  1.0418 -0.0069  0.2229
18158TIP3    H275890  -0.041   6.402  15.125  0.3034  2.0847  0.7692
18159TIP3   OH275891   4.669   4.679  13.876  0.2189 -0.1601 -0.0719
18159TIP3    H175892   4.622   4.622  13.815 -1.1883  0.8473  0.0265
18159TIP3    H275893   4.648   4.768  13.847  3.0796  0.3796 -0.7652
18160TIP3   OH275894   4.020   6.107  15.938  0.4875  0.0285  0.6272
18160TIP3    H175895   4.005   6.199  15.959 -0.0949  0.9739 -3.1349
18160TIP3    H275896   3.970   6.059  16.004 -1.8946  2.5435  0.8422
18161TIP3   OH275897   1.479   2.640   5.463  0.2426  0.1667 -0.7170
18161TIP3    H175898   1.555   2.616   5.516 -0.1427 -1.1581 -0.7376
18161TIP3    H275899   1.409   2.583   5.494 -0.0553 -0.4966 -2.4861
18162TIP3   OH275900   2.392   3.493   1.860 -0.2109  0.1695  0.1648
18162TIP3    H175901   2.479   3.510   1.897 -0.4820  1.0332  0.4225
18162TIP3    H275902   2.353   3.429   1.919  0.6321 -1.0409 -0.5346
18163TIP3   OH275903   6.578   3.689  11.583  0.3003  0.3983  0.1188
18163TIP3    H175904   6.605   3.754  11.518 -0.4718 -0.4854 -1.1369
18163TIP3    H275905   6.522   3.629  11.535  0.5327 -0.8895  1.3721
18164TIP3   OH275906   5.666   4.603   1.915  0.0028  0.3343  0.2325
18164TIP3    H175907   5.663   4.595   1.820 -1.7232 -0.4962  0.3118
18164TIP3    H275908   5.731   4.538   1.943 -2.5105 -2.5731 -0.1838
18165TIP3   OH275909   1.422   5.435   4.052 -0.4587 -0.4021 -0.0059
18165TIP3    H175910   1.516   5.426   4.066 -0.6876 -0.2220  1.9589
18165TIP3    H275911   1.383   5.363   4.102 -1.4313  0.6500  0.8207
18166TIP3   OH275912   6.521   0.165  11.451 -0.3432  0.4658  0.6447
18166TIP3    H175913   6.549   0.132  11.537 -0.2378 -0.8423  0.1269
18166TIP3    H275914   6.428   0.143  11.447 -0.5818  1.4200  0.8194
18167TIP3   OH275915   5.118   1.110  11.444  0.2769  0.3485 -0.1110
18167TIP3    H175916   5.185   1.118  11.512 -0.2043 -1.0347  0.5813
18167TIP3    H275917   5.157   1.053  11.378  0.4624  1.0727 -0.6361
18168TIP3   OH275918   4.969   2.482   3.046 -0.6117  0.6477  0.6358
18168TIP3    H175919   5.064   2.491   3.034 -0.4566  0.5467  1.6533
18168TIP3    H275920   4.960   2.408   3.105 -1.2566  1.4466  1.5710
18169TIP3   OH275921   3.635   2.195  11.856  0.4407  0.2628 -0.3354
18169TIP3    H175922   3.664   2.285  11.840 -0.5869  0.4984 -0.9046
18169TIP3    H275923   3.611   2.161  11.770  0.4116 -0.4206 -0.0654
18170TIP3   OH275924   3.184   0.363  12.255  0.2454 -0.0918  0.1756
18170TIP3    H175925   3.152   0.427  12.318 -1.0939 -1.6448  1.1317
18170TIP3    H275926   3.279   0.365  12.264  0.2891  2.1499 -0.2561
18171TIP3   OH275927   0.324   6.340   1.876  0.1790  0.2111  0.1051
18171TIP3    H175928   0.411   6.349   1.913  1.1799  1.2073 -2.2534
18171TIP3    H275929   0.289   6.429   1.874  0.5938  0.3741 -2.1682
18172TIP3   OH275930   4.553   2.804   2.803  0.0039  0.4268  0.4634
18172TIP3    H175931   4.586   2.734   2.860  0.4600  0.5790  0.3917
18172TIP3    H275932   4.629   2.860   2.789  0.1964 -0.1947 -1.1995
18173TIP3   OH275933   6.487   1.156  14.536 -0.6151  0.3781  0.3866
18173TIP3    H175934   6.420   1.186  14.596 -1.1227 -1.8091  0.9997
18173TIP3    H275935   6.438   1.120  14.462 -0.0583  0.6254 -0.1098
18174TIP3   OH275936   1.871   3.531   1.145 -0.0608 -0.1798 -0.2087
18174TIP3    H175937   1.842   3.622   1.144  0.7324  0.0833  0.0952
18174TIP3    H275938   1.915   3.520   1.229  1.4591 -0.3230 -0.9774
18175TIP3   OH275939   0.758   3.937  15.751  0.0574  0.0690  0.4590
18175TIP3    H175940   0.735   4.030  15.740 -0.7585 -0.4588 -4.0647
18175TIP3    H275941   0.849   3.932  15.724  0.2605 -0.4377  1.2013
18176TIP3   OH275942   2.563   0.296   4.376 -0.5134  0.0693  0.0562
18176TIP3    H175943   2.589   0.230   4.440  2.4646  2.8050  1.9758
18176TIP3    H275944   2.500   0.351   4.422 -0.7826  0.2423 -0.5077
18177TIP3   OH275945   3.067   6.077   4.512  0.4550 -0.4007  0.1835
18177TIP3    H175946   3.078   5.987   4.544 -2.1278 -0.4366  1.1789
18177TIP3    H275947   2.999   6.114   4.568 -0.4853  1.2941 -1.9761
18178TIP3   OH275948   1.253   0.518  10.621  0.3667 -0.5430 -0.2817
18178TIP3    H175949   1.297   0.450  10.672  0.1549 -0.8248 -0.4708
18178TIP3    H275950   1.321   0.582  10.602  0.4802 -0.5096  0.2329
18179TIP3   OH275951   3.866   0.953   5.651 -0.7428  0.6056 -0.4448
18179TIP3    H175952   3.856   0.904   5.569 -0.6643 -0.6417  0.2666
18179TIP3    H275953   3.777   0.973   5.678 -0.7930  0.4943 -0.5266
18180TIP3   OH275954   5.406   1.302  10.461  0.0061  0.7176 -0.2393
18180TIP3    H175955   5.355   1.253  10.396 -0.1637 -0.7685  0.9535
18180TIP3    H275956   5.343   1.325  10.529  0.0128  2.9622 -0.9036
18181TIP3   OH275957   6.025   4.557   4.371  0.1297  0.2148  0.0011
18181TIP3    H175958   5.983   4.475   4.399 -0.3865  1.0646  1.8916
18181TIP3    H275959   5.997   4.621   4.436  0.7750  1.8429 -1.2675
18182TIP3   OH275960   0.854   0.309   5.435  0.2640 -0.3899 -0.3217
18182TIP3    H175961   0.914   0.331   5.507  0.9944  0.2262 -1.1019
18182TIP3    H275962   0.767   0.329   5.470  0.5423 -0.8230  0.6558
18183TIP3   OH275963   6.590   4.189   3.472  0.5481  0.3315 -0.4596
18183TIP3    H175964   6.633   4.127   3.413  1.1340  0.7396 -0.4656
18183TIP3    H275965   6.661   4.242   3.508  0.1052  0.6624 -0.0573
18184TIP3   OH275966   5.612   0.566  13.360 -0.8069 -0.3236  0.0686
18184TIP3    H175967   5.583   0.626  13.429 -0.4837  2.3688 -2.0043
18184TIP3    H275968   5.530   0.535  13.320 -0.9862  1.4362 -0.9994
18185TIP3   OH275969   5.189   1.902  13.243 -0.4246 -0.1918  1.2883
18185TIP3    H175970   5.143   1.976  13.282 -2.4569  0.1574 -1.4228
18185TIP3    H275971   5.231   1.938  13.165 -0.8518 -1.7115  0.2986
18186TIP3   OH275972   4.643   1.357  14.853  0.4613 -0.1131  0.1286
18186TIP3    H175973   4.637   1.279  14.799 -0.1088 -0.5419  0.7843
18186TIP3    H275974   4.726   1.348  14.900  0.7205  0.0161 -0.3042
18187TIP3   OH275975   4.185   0.686  12.633 -0.5795 -0.0619  0.4535
18187TIP3    H175976   4.233   0.768  12.616 -0.5847 -0.1081  0.2039
18187TIP3    H275977   4.101   0.698  12.589 -0.7788 -0.0036  0.8459
18188TIP3   OH275978   5.414   0.520   2.276 -0.5526  0.4047 -0.0100
18188TIP3    H175979   5.340   0.459   2.276 -0.5457  0.3860 -0.7332
18188TIP3    H275980   5.377   0.603   2.305 -0.6241  0.1322  0.6957
18189TIP3   OH275981   5.811   4.942  14.568  0.4912  0.4199 -0.1463
18189TIP3    H175982   5.867   4.892  14.628 -0.9927 -1.2560 -0.0712
18189TIP3    H275983   5.821   4.899  14.483 -0.2350  0.4286 -0.2476
18190TIP3   OH275984   5.381   1.980   1.464  0.0565 -0.1773  0.2364
18190TIP3    H175985   5.437   1.913   1.504 -0.8687 -1.4653 -0.5429
18190TIP3    H275986   5.302   1.981   1.518 -0.6407 -0.9656 -0.7275
18191TIP3   OH275987   5.385   0.046   2.203 -0.5576  0.1590  0.0411
18191TIP3    H175988   5.372  -0.027   2.143  0.0698  1.1664 -1.3986
18191TIP3    H275989   5.452   0.016   2.264 -1.3040 -0.9382  0.3384
18192TIP3   OH275990   4.512   2.480   1.708 -0.4000  0.1942 -0.1627
18192TIP3    H175991   4.594   2.524   1.685 -1.1320  0.7880 -1.8020
18192TIP3    H275992   4.537   2.414   1.773  1.2687  0.7703 -0.1815
18193TIP3   OH275993   4.034   4.841   3.188 -0.2162 -0.6130  0.0687
18193TIP3    H175994   4.105   4.880   3.136  1.0412 -4.5508 -1.5986
18193TIP3    H275995   4.077   4.808   3.266 -0.5100 -1.5846 -0.1685
18194TIP3   OH275996   5.097   3.117   2.101  0.4276  0.4364 -0.4473
18194TIP3    H175997   5.084   3.208   2.127  1.6973  0.4233  0.3269
18194TIP3    H275998   5.121   3.072   2.181 -0.3568 -0.6339 -0.7951
18195TIP3   OH275999   5.648   3.446  15.052 -0.1499  0.0535 -0.8585
18195TIP3    H176000   5.581   3.431  15.119 -0.2170 -0.8223 -1.1073
18195TIP3    H276001   5.730   3.419  15.094 -0.1873 -0.4580 -1.1132
18196TIP3   OH276002   5.232   3.084  13.760 -0.1232  0.4613  0.3316
18196TIP3    H176003   5.183   3.002  13.753  0.7050 -0.0066 -0.2032
18196TIP3    H276004   5.172   3.150  13.727 -1.1333  0.2168  1.6368
18197TIP3   OH276005   4.636   1.650   4.080  0.5544 -0.4622 -0.0764
18197TIP3    H176006   4.726   1.679   4.062  1.3696 -1.8092  1.5535
18197TIP3    H276007   4.634   1.559   4.052  0.2316 -0.9356  1.3616
18198TIP3   OH276008   5.022   3.980   4.731  0.0090 -0.2936  0.0440
18198TIP3    H176009   5.090   3.916   4.754  0.8806  0.2213 -1.0023
18198TIP3    H276010   5.020   3.978   4.635  1.9044  3.0892 -0.1881
18199TIP3   OH276011   4.627   2.745  12.595  0.4936  0.2342  0.1461
18199TIP3    H176012   4.553   2.781  12.646  1.3265  1.7597  0.3426
18199TIP3    H276013   4.705   2.779  12.639  1.2992 -0.4291 -0.7268
18200TIP3   OH276014   6.624   5.240   0.860  0.2317 -0.3500 -0.4097
18200TIP3    H176015   6.710   5.268   0.891 -0.2145  0.0556  0.5046
18200TIP3    H276016   6.568   5.244   0.938 -1.5388  3.0173 -1.6718
18201TIP3   OH276017   1.946   6.012  11.009 -0.0196 -0.5978 -0.5774
18201TIP3    H176018   1.992   6.000  10.926  0.2783  2.0007 -0.8623
18201TIP3    H276019   2.015   6.036  11.071 -0.5088 -0.4307 -0.0936
18202TIP3   OH276020   1.350   3.299  17.144 -0.2599  0.6762  0.2922
18202TIP3    H176021   1.260   3.288  17.116  0.3586  0.8113 -1.9062
18202TIP3    H276022   1.388   3.361  17.082  1.0564  1.5709  1.8696
18203TIP3   OH276023   6.752   2.921   1.384 -0.3869  0.4850 -0.5388
18203TIP3    H176024   6.812   2.851   1.412 -0.1491  0.5648 -0.8478
18203TIP3    H276025   6.717   2.955   1.466 -0.5522 -0.0380 -0.3870
18204TIP3   OH276026   0.759   0.821   6.006 -0.2899 -0.5798 -0.2298
18204TIP3    H176027   0.710   0.889   6.053  0.3390 -0.6557  0.5424
18204TIP3    H276028   0.754   0.745   6.063 -0.9473 -1.1888 -1.0689
18205TIP3   OH276029   6.002   3.538  11.627 -0.4698  0.3413 -0.9280
18205TIP3    H176030   6.036   3.622  11.595  0.3413  0.7074  0.7817
18205TIP3    H276031   5.961   3.498  11.550  1.2763  1.2085 -2.3839
18206TIP3   OH276032   1.623   3.654   0.617  0.4311  0.1459  0.3090
18206TIP3    H176033   1.681   3.627   0.546 -0.3387 -0.3252 -0.1457
18206TIP3    H276034   1.662   3.614   0.696 -0.8911 -2.7742 -0.3728
18207TIP3   OH276035   1.203   1.223  12.417 -0.4939 -0.4327 -0.2472
18207TIP3    H176036   1.201   1.134  12.454 -0.0549  0.1265  1.2175
18207TIP3    H276037   1.110   1.247  12.408 -0.6196 -0.5800  0.5580
18208TIP3   OH276038   3.756   4.048   1.633  0.1178  0.1505  0.1869
18208TIP3    H176039   3.731   4.026   1.723  0.4498 -1.5639 -0.0971
18208TIP3    H276040   3.710   4.130   1.614 -0.9415 -0.1082  1.4967
18209TIP3   OH276041   3.642   6.680   1.523 -0.2337 -0.1899 -0.0298
18209TIP3    H176042   3.641   6.688   1.618 -1.9999 -1.6089  0.1383
18209TIP3    H276043   3.708   6.614   1.505  0.6420  0.6276  0.1316
18210TIP3   OH276044   6.025   5.013   5.897  0.0605  0.2817 -0.0938
18210TIP3    H176045   6.092   5.070   5.859 -1.3681  2.1402  0.0064
18210TIP3    H276046   5.944   5.063   5.888 -1.1642 -1.4680  0.6818
18211TIP3   OH276047   0.796   0.423   0.824 -0.2227 -0.4978  0.4122
18211TIP3    H176048   0.737   0.439   0.751 -0.5131 -2.2464  0.2206
18211TIP3    H276049   0.853   0.500   0.826 -1.0220  0.1649 -0.8383
18212TIP3   OH276050   2.511   4.429   2.031 -0.2646  0.3769  0.1056
18212TIP3    H176051   2.599   4.404   2.003 -0.0948  0.8424  0.2138
18212TIP3    H276052   2.474   4.349   2.068 -0.7320 -0.4208 -2.0108
18213TIP3   OH276053   1.760   2.241   1.050 -0.0732 -0.2891  0.7522
18213TIP3    H176054   1.759   2.177   1.120  0.5460 -0.0299  1.0067
18213TIP3    H276055   1.836   2.297   1.069 -0.3458  0.2523  0.3030
18214TIP3   OH276056   4.941   0.312   1.149 -0.1450  0.2429 -0.4795
18214TIP3    H176057   5.019   0.277   1.105  1.6040  1.8945  1.0755
18214TIP3    H276058   4.913   0.384   1.094 -1.2899 -1.0041 -1.5957
18215TIP3   OH276059   1.503   5.207   2.941 -0.2543  0.1694  0.5843
18215TIP3    H176060   1.414   5.173   2.940 -0.0087 -0.4928  1.0781
18215TIP3    H276061   1.519   5.230   3.032  0.5632 -1.0267  0.7665
18216TIP3   OH276062   3.034   0.570   1.208 -0.4292  0.0550  0.4593
18216TIP3    H176063   3.009   0.651   1.163  0.1802  0.1558  0.2962
18216TIP3    H276064   3.129   0.566   1.199 -0.5671 -1.3778 -0.6943
18217TIP3   OH276065   1.189   6.192  16.673 -0.2023  0.6744 -0.3091
18217TIP3    H176066   1.128   6.188  16.598 -1.3554 -0.8639  0.6304
18217TIP3    H276067   1.135   6.166  16.748  1.3195  0.5950  0.7861
18218TIP3   OH276068   6.056   6.723   0.921  0.2993 -0.2340 -0.2655
18218TIP3    H176069   6.041   6.812   0.953  0.3713 -0.3779  0.1818
18218TIP3    H276070   6.148   6.721   0.896  0.4810 -0.3760  0.3843
18219TIP3   OH276071   5.613   4.030  14.660 -0.8646  0.1978  0.1901
18219TIP3    H176072   5.678   3.971  14.622 -0.7226  0.1614  0.4875
18219TIP3    H276073   5.543   3.973  14.689 -1.1354  0.2567 -0.3380
18220TIP3   OH276074   0.438   0.237   2.422  0.3380 -0.1252 -0.1324
18220TIP3    H176075   0.372   0.168   2.427  1.9831 -2.0119 -2.0730
18220TIP3    H276076   0.392   0.311   2.382 -1.3701 -0.1667  1.6074
18221TIP3   OH276077   4.827   1.550   2.046 -0.5808 -0.1154 -0.5578
18221TIP3    H176078   4.787   1.468   2.076 -0.4793 -0.5820 -1.6472
18221TIP3    H276079   4.883   1.524   1.973 -2.2497  1.1937 -2.4039
18222TIP3   OH276080   2.879   6.382   2.732  0.1135  0.4799 -0.1843
18222TIP3    H176081   2.932   6.416   2.804  1.9628 -0.1712 -1.1765
18222TIP3    H276082   2.932   6.396   2.654 -0.4304 -1.7371 -1.0208
18223TIP3   OH276083   1.729   3.671  14.199 -0.0654 -0.3257 -0.1823
18223TIP3    H176084   1.782   3.732  14.148  0.7759  0.4265  1.4887
18223TIP3    H276085   1.776   3.588  14.194 -0.5606 -0.5497 -1.4626
18224TIP3   OH276086   5.763   6.176  15.269 -0.1605  0.5262  0.2944
18224TIP3    H176087   5.700   6.117  15.227 -0.1793 -0.4762  1.6964
18224TIP3    H276088   5.839   6.174  15.211 -0.6746  0.2215 -0.3927
18225TIP3   OH276089   2.337   2.376  16.814 -0.5846 -0.1179  0.0236
18225TIP3    H176090   2.430   2.370  16.792 -0.8304  2.3071 -2.1096
18225TIP3    H276091   2.299   2.295  16.780  0.5573 -0.6574 -0.0213
18226TIP3   OH276092   1.622   5.125  13.314  0.1552  0.3044 -1.1202
18226TIP3    H176093   1.629   5.212  13.275 -1.1254 -0.0070 -2.0844
18226TIP3    H276094   1.608   5.066  13.240 -0.2351 -0.5696 -0.3645
18227TIP3   OH276095   4.584   3.455  16.920 -0.1580  0.0114 -0.6381
18227TIP3    H176096   4.554   3.512  16.849  0.3753 -1.6158 -2.2520
18227TIP3    H276097   4.611   3.374  16.876  0.5396 -0.9340  1.4015
18228TIP3   OH276098   2.979   3.637  12.695 -0.0063  0.0701 -0.1116
18228TIP3    H176099   2.887   3.628  12.722  0.4243 -1.2118  1.0435
18228TIP3    H276100   3.029   3.610  12.772  1.3215 -0.7849 -1.2230
18229TIP3   OH276101   5.448   1.347  13.449  0.3620 -0.3761 -0.2654
18229TIP3    H176102   5.395   1.309  13.519 -1.8978  1.7881 -0.6672
18229TIP3    H276103   5.426   1.295  13.371 -0.4358 -0.1292 -0.2127
18230TIP3   OH276104   3.264   2.231  15.158 -0.1666 -1.0259  0.1009
18230TIP3    H176105   3.303   2.176  15.090 -2.3045 -2.6885  0.1167
18230TIP3    H276106   3.316   2.213  15.237  0.3268 -1.5798 -0.3394
18231TIP3   OH276107   0.121   0.462  13.488 -0.6272 -0.4989  0.0767
18231TIP3    H176108   0.054   0.402  13.521  0.4378 -2.6394 -1.4350
18231TIP3    H276109   0.075   0.545  13.477 -2.5425 -1.3944  0.8606
18232TIP3   OH276110   2.170   1.213   5.204 -0.5769  0.2258 -0.0371
18232TIP3    H176111   2.171   1.248   5.292  0.7242 -0.2801  0.1647
18232TIP3    H276112   2.229   1.269   5.154 -1.9533  1.0367 -0.8270
18233TIP3   OH276113   0.545   1.808   2.861  0.1091 -0.5474  0.4825
18233TIP3    H176114   0.595   1.889   2.856 -1.2052  0.3377  1.1331
18233TIP3    H276115   0.499   1.802   2.777  0.7608 -1.0006  0.1544
18234TIP3   OH276116   6.668   1.660  12.563 -0.1945  0.5060 -0.1627
18234TIP3    H176117   6.654   1.631  12.473  0.7502 -1.4890  0.2794
18234TIP3    H276118   6.763   1.659  12.574 -0.3299 -0.6501  1.2440
18235TIP3   OH276119   1.043   0.572   0.165 -0.1940 -0.7651  0.0759
18235TIP3    H176120   1.062   0.593   0.257 -1.8158 -1.7855  0.6856
18235TIP3    H276121   0.961   0.618   0.147  0.3813 -0.1362 -1.0569
18236TIP3   OH276122   2.114   1.953  13.487  0.5123  0.3974 -0.1790
18236TIP3    H176123   2.087   2.001  13.409 -0.4118 -0.3595 -0.3439
18236TIP3    H276124   2.169   1.882  13.455 -0.9453 -0.7244 -0.3251
18237TIP3   OH276125   3.077   4.496   1.468 -0.3409  0.4976  0.0682
18237TIP3    H176126   3.101   4.509   1.560 -0.4377  0.4233  0.1048
18237TIP3    H276127   2.981   4.503   1.467 -0.2950  1.1398 -0.1332
18238TIP3   OH276128   3.547   1.065  13.829 -0.0569  0.0506  0.0269
18238TIP3    H176129   3.569   1.033  13.742  1.3318 -0.6027  0.5832
18238TIP3    H276130   3.499   1.147  13.813  1.7895  0.9410 -1.3453
18239TIP3   OH276131   0.935   2.484  10.697  0.6341 -0.4824 -0.4478
18239TIP3    H176132   0.991   2.469  10.773  0.5173 -1.1019 -0.4839
18239TIP3    H276133   0.986   2.544  10.641 -0.1264  1.6992  1.0600
18240TIP3   OH276134   6.496   2.465  13.347 -0.5557  0.1509  0.2621
18240TIP3    H176135   6.453   2.385  13.315 -1.5474  0.5788  0.5065
18240TIP3    H276136   6.438   2.498  13.415 -0.4319  1.3767 -0.1993
18241TIP3   OH276137   4.425   5.176  13.832 -0.9670 -0.5008 -0.4944
18241TIP3    H176138   4.373   5.212  13.903 -0.9574 -0.3200 -0.5780
18241TIP3    H276139   4.378   5.202  13.753 -0.9946 -0.7265 -0.5527
18242TIP3   OH276140   6.210   0.427   1.867  0.0052  0.0295 -0.2210
18242TIP3    H176141   6.181   0.372   1.795 -2.6290  0.2283  0.5811
18242TIP3    H276142   6.158   0.398   1.942  0.9213  1.4258  1.0233
18243TIP3   OH276143   0.094   1.892  14.374 -0.8925 -0.0209 -0.4997
18243TIP3    H176144   0.100   1.969  14.317 -1.6556  0.6406  0.2830
18243TIP3    H276145   0.025   1.914  14.437  0.8016 -0.1496  1.5310
18244TIP3   OH276146   4.478   4.803   4.902  0.4153  0.1450  0.1101
18244TIP3    H176147   4.495   4.897   4.911  3.1390 -0.2971  0.4454
18244TIP3    H276148   4.404   4.787   4.960 -0.8406  2.2343 -0.7897
18245TIP3   OH276149   0.152   4.818  12.865  0.3729 -0.5340 -0.0497
18245TIP3    H176150   0.096   4.755  12.911  0.8464  0.5120  2.1006
18245TIP3    H276151   0.237   4.812  12.909  0.3505  1.7949  0.4541
18246TIP3   OH276152   0.307   0.093  13.419  0.1241 -0.1297  0.2990
18246TIP3    H176153   0.244   0.085  13.347  0.6251 -1.7644 -0.0063
18246TIP3    H276154   0.253   0.104  13.497 -0.5415 -1.2573  0.0136
18247TIP3   OH276155   3.560   1.850   5.133  0.0138  0.0759  0.1643
18247TIP3    H176156   3.605   1.771   5.160 -0.9249 -0.5724 -0.1076
18247TIP3    H276157   3.573   1.854   5.038 -2.3023 -1.3480 -0.2892
18248TIP3   OH276158   5.580   6.517   6.414 -0.4512  0.3754 -0.0977
18248TIP3    H176159   5.654   6.487   6.467 -0.6442  2.1263  1.2810
18248TIP3    H276160   5.504   6.472   6.450 -0.4464  0.8439  0.5189
18249TIP3   OH276161   0.039   3.990   3.989  0.0543  0.4541  0.1782
18249TIP3    H176162  -0.057   3.984   3.995  0.0953 -1.9900 -0.6167
18249TIP3    H276163   0.070   3.968   4.077 -0.0970 -1.4525 -0.2067
18250TIP3   OH276164   4.000   1.886  15.302 -0.1266 -0.1203 -0.4089
18250TIP3    H176165   3.952   1.949  15.247  1.5539  0.7408 -0.9700
18250TIP3    H276166   4.065   1.849  15.243  0.2518 -0.8603  0.4662
18251TIP3   OH276167   6.532   0.904   5.039  0.4576  0.8167  0.4199
18251TIP3    H176168   6.445   0.871   5.016  0.4037  0.2919  1.3248
18251TIP3    H276169   6.522   0.999   5.041  0.5889  0.9687 -2.1368
18252TIP3   OH276170   1.412   5.400  12.956  0.1097 -0.4028 -0.0792
18252TIP3    H176171   1.320   5.421  12.937  0.4232 -0.6549 -2.0562
18252TIP3    H276172   1.450   5.483  12.984 -0.5281 -0.1233 -0.0260
18253TIP3   OH276173   1.026   3.330  16.675  0.0789  0.0793 -0.0951
18253TIP3    H176174   1.002   3.248  16.720 -0.3869  0.4414  0.3365
18253TIP3    H276175   1.061   3.302  16.591  1.3941 -0.6449  0.6634
18254TIP3   OH276176   6.320   1.510   2.518  0.3017 -0.5421 -0.1046
18254TIP3    H176177   6.361   1.457   2.587 -0.2381 -1.4966 -0.5018
18254TIP3    H276178   6.310   1.450   2.444 -0.9384 -0.0748 -0.3364
18255TIP3   OH276179   1.236   5.287   2.742 -0.4449  0.1515 -0.2887
18255TIP3    H176180   1.254   5.194   2.750 -0.9475 -0.0614 -1.4690
18255TIP3    H276181   1.235   5.319   2.832 -0.1993 -0.9643  0.1249
18256TIP3   OH276182   2.192   5.083  11.411 -0.0484 -0.0797  0.3946
18256TIP3    H176183   2.179   5.164  11.461  0.4653  0.9085 -0.9722
18256TIP3    H276184   2.285   5.083  11.390  0.3517 -2.0577  1.9814
18257TIP3   OH276185   0.788   5.102  15.705  0.1769  0.0069 -0.4477
18257TIP3    H176186   0.819   5.176  15.651  0.7472 -0.6301 -1.0114
18257TIP3    H276187   0.852   5.033  15.689  0.8335  0.0523  1.6879
18258TIP3   OH276188   4.875   3.452  11.484  0.1504 -0.1422  0.3890
18258TIP3    H176189   4.803   3.513  11.470 -0.6993 -0.3674  3.1066
18258TIP3    H276190   4.854   3.376  11.430  0.6286  1.3936 -2.1360
18259TIP3   OH276191   1.125   1.248   1.275  0.4288 -0.5049 -0.4115
18259TIP3    H176192   1.204   1.197   1.297  0.5695  0.5348  1.8209
18259TIP3    H276193   1.053   1.189   1.298  0.5944 -0.1695  1.1087
18260TIP3   OH276194   4.939   2.431  11.784  0.1429 -0.1782 -0.4698
18260TIP3    H176195   5.004   2.490  11.822 -0.4709 -0.0039  0.3261
18260TIP3    H276196   4.988   2.352  11.761  0.3893 -0.6250  1.4734
18261TIP3   OH276197   4.785   2.668  15.053 -0.3274 -0.2238 -0.5936
18261TIP3    H176198   4.693   2.685  15.071 -0.0722  1.1175 -0.4333
18261TIP3    H276199   4.828   2.680  15.138 -0.0071 -0.8446 -0.6669
18262TIP3   OH276200   0.013   0.829  12.192  0.0489 -0.5480 -0.2838
18262TIP3    H176201   0.038   0.862  12.279  2.5187 -0.4032 -0.9671
18262TIP3    H276202   0.085   0.771  12.168 -0.3001 -0.1340 -2.4755
18263TIP3   OH276203   6.251   4.196  14.374  0.6557  0.1982 -0.2826
18263TIP3    H176204   6.305   4.190  14.453  1.0704 -0.6801 -0.6225
18263TIP3    H276205   6.313   4.216  14.304  0.2575  1.1946 -0.3691
18264TIP3   OH276206   1.678   1.191   4.254 -0.1839  0.1221 -0.0890
18264TIP3    H176207   1.722   1.222   4.334 -0.9619 -0.8410  0.7306
18264TIP3    H276208   1.656   1.272   4.207  0.2679  0.7053  0.6677
18265TIP3   OH276209   1.775   4.855  10.266  0.0039 -0.0775 -0.0305
18265TIP3    H176210   1.817   4.939  10.283  1.2728 -0.2935 -1.7696
18265TIP3    H276211   1.682   4.870  10.282  0.5105  0.8127  2.6094
18266TIP3   OH276212   2.810   4.195  13.000 -0.3522  0.2160  0.0842
18266TIP3    H176213   2.840   4.105  12.989 -1.1155  0.0058 -0.3763
18266TIP3    H276214   2.887   4.244  13.028  1.0984  0.2313 -3.4701
18267TIP3   OH276215   1.727   4.364  13.295 -0.1960  0.8039  0.4576
18267TIP3    H176216   1.761   4.336  13.210  0.4961  2.4637  0.1466
18267TIP3    H276217   1.632   4.362  13.285 -0.1570 -0.5804  0.1972
18268TIP3   OH276218   6.398   2.862  16.627  0.0835 -0.0457  0.6896
18268TIP3    H176219   6.471   2.882  16.568 -0.5537 -0.1629 -0.1553
18268TIP3    H276220   6.404   2.768  16.643 -0.1609 -0.1385  0.2367
18269TIP3   OH276221   0.755   2.733  12.600  0.0996 -0.4162  0.3402
18269TIP3    H176222   0.703   2.772  12.531 -0.0079 -0.1946  0.5441
18269TIP3    H276223   0.781   2.807  12.656  0.3477 -0.5664  0.4271
18270TIP3   OH276224   2.581   2.482  12.989 -0.4248 -0.2341 -0.1271
18270TIP3    H176225   2.560   2.567  13.029  0.8442  0.2537 -0.4686
18270TIP3    H276226   2.500   2.457  12.944 -0.5543  1.2272 -0.7793
18271TIP3   OH276227   5.203   6.635   3.126  0.1366  0.0204 -0.2560
18271TIP3    H176228   5.232   6.545   3.112  1.6468  0.3258  0.6115
18271TIP3    H276229   5.133   6.628   3.191  1.4460 -0.4539  1.1964
18272TIP3   OH276230   3.123   0.289  15.518  0.2418  0.0503  0.2541
18272TIP3    H176231   3.076   0.223  15.468  0.6309  0.0293 -0.0917
18272TIP3    H276232   3.182   0.239  15.574 -0.3879  0.0654  0.9369
18273TIP3   OH276233   1.616   6.084  14.200  0.5953  0.1030 -0.7810
18273TIP3    H176234   1.525   6.095  14.229  0.2540  1.6501 -2.2836
18273TIP3    H276235   1.608   6.034  14.118  1.0024  0.9977 -1.3818
18274TIP3   OH276236   3.555   3.060  15.550 -0.9399 -0.8012 -0.2857
18274TIP3    H176237   3.570   3.088  15.459 -0.8341  0.5793  0.1301
18274TIP3    H276238   3.470   3.097  15.573 -0.6354 -0.5008  0.4015
18275TIP3   OH276239   4.461   2.026  12.754  0.1870 -0.1478 -0.1986
18275TIP3    H176240   4.555   2.019  12.766  0.2550  1.9953  1.3296
18275TIP3    H276241   4.426   2.033  12.843 -1.2224  0.5999 -0.7635
18276TIP3   OH276242   5.850   1.093   2.866 -0.1578 -0.0637 -0.1419
18276TIP3    H176243   5.837   1.121   2.776  0.2497 -0.5391 -0.3526
18276TIP3    H276244   5.915   1.023   2.860  0.8524  0.7776  0.6621
18277TIP3   OH276245   6.602   6.296  15.907  0.0607  0.1036 -0.0982
18277TIP3    H176246   6.530   6.253  15.954 -1.0475 -0.0853 -1.8467
18277TIP3    H276247   6.572   6.299  15.816  2.7911 -1.0605 -1.1392
18278TIP3   OH276248   5.266   5.692   1.895 -0.2193  0.1174 -0.0034
18278TIP3    H176249   5.356   5.716   1.874  0.1272 -1.9141 -1.0584
18278TIP3    H276250   5.217   5.775   1.890  1.6350  1.3473  1.1105
18279TIP3   OH276251   2.204   6.063  14.405 -0.0423 -0.0975 -0.1611
18279TIP3    H176252   2.186   6.130  14.339 -0.6781  1.0793  1.1628
18279TIP3    H276253   2.296   6.040  14.391  0.1513  0.9751 -0.7271
18280TIP3   OH276254   6.282   5.423   3.823 -0.4855  0.0153 -0.1586
18280TIP3    H176255   6.376   5.421   3.804 -0.1770  0.9212  1.1162
18280TIP3    H276256   6.248   5.494   3.768 -0.0115  1.0994  0.8804
18281TIP3   OH276257   1.294   0.494  14.132 -1.3262 -0.1783 -0.6147
18281TIP3    H176258   1.345   0.542  14.067 -0.2854 -2.0273 -1.2543
18281TIP3    H276259   1.281   0.556  14.204  2.9286  0.1304  0.1596
18282TIP3   OH276260   2.655   6.229  12.104  0.4576 -0.0077  0.1312
18282TIP3    H176261   2.590   6.223  12.034 -0.4281 -2.0488  1.0300
18282TIP3    H276262   2.612   6.280  12.172  0.2570 -0.2975  0.2268
18283TIP3   OH276263   1.884   3.697   2.654 -0.0102 -0.0606 -0.2192
18283TIP3    H176264   1.927   3.764   2.600  0.2933 -0.6406 -0.7129
18283TIP3    H276265   1.808   3.742   2.692  1.1677  1.0582  0.8921
18284TIP3   OH276266   5.866   6.362  13.316  0.4617 -0.5504 -0.3126
18284TIP3    H176267   5.792   6.413  13.349  0.3531 -0.5592 -0.5372
18284TIP3    H276268   5.888   6.302  13.387  0.9677  0.2068  0.1882
18285TIP3   OH276269   0.140   3.551   4.237  0.6083 -0.8492 -0.1927
18285TIP3    H176270   0.172   3.590   4.155 -0.2957  0.2739 -0.0379
18285TIP3    H276271   0.072   3.612   4.267  0.6101 -1.4906  1.1572
18286TIP3   OH276272   5.640   5.599  10.899 -0.1442 -0.3719  0.6492
18286TIP3    H176273   5.664   5.654  10.824 -0.9258 -0.9408 -0.0407
18286TIP3    H276274   5.723   5.580  10.943  0.2870  0.2468  0.1215
18287TIP3   OH276275   3.699   3.187   1.231  0.2406 -0.0666  0.0729
18287TIP3    H176276   3.717   3.106   1.184  0.2849  0.0796 -0.1624
18287TIP3    H276277   3.627   3.164   1.291 -0.3732 -0.0463 -0.6406
18288TIP3   OH276278   1.705   1.408   4.923  1.0743  0.3018  0.4625
18288TIP3    H176279   1.723   1.358   5.002  1.5768 -1.9780 -0.9955
18288TIP3    H276280   1.770   1.478   4.923  0.4363  0.9645  2.5168
18289TIP3   OH276281   2.652   0.230  14.044  0.1425  0.2846 -0.3759
18289TIP3    H176282   2.693   0.297  13.990  1.7190 -0.2803  0.0788
18289TIP3    H276283   2.702   0.150  14.026 -0.5692 -0.3615  0.4231
18290TIP3   OH276284   6.234   6.401   0.590 -0.1055  0.2133 -0.2021
18290TIP3    H176285   6.244   6.312   0.622 -2.4953  0.3358  1.1136
18290TIP3    H276286   6.144   6.406   0.558 -0.0878  2.1782 -0.0988
18291TIP3   OH276287   2.591   4.972   1.328 -0.1742  0.1157  0.1269
18291TIP3    H176288   2.661   4.920   1.368  1.3100  1.3170 -0.7593
18291TIP3    H276289   2.510   4.937   1.365  0.9606 -0.5214  2.1448
18292TIP3   OH276290   0.996   0.205   4.266 -0.1333  0.2614  0.5717
18292TIP3    H176291   0.916   0.153   4.269 -0.3010  0.5035  0.3826
18292TIP3    H276292   0.971   0.284   4.217 -0.4240  1.4205  2.4670
18293TIP3   OH276293   1.834   4.283   4.243  0.1468  0.0842 -0.1022
18293TIP3    H176294   1.886   4.219   4.291  0.1878  1.2076  1.4239
18293TIP3    H276295   1.836   4.361   4.298 -1.0099  0.9710 -1.2681
18294TIP3   OH276296   2.004   5.264   6.098 -0.1139  0.2391 -0.4920
18294TIP3    H176297   2.076   5.261   6.035  0.6580  3.0173  0.1428
18294TIP3    H276298   1.951   5.339   6.071  0.3895  1.7009  2.2010
18295TIP3   OH276299   0.858   4.747  16.692  0.5635  0.3031 -0.2698
18295TIP3    H176300   0.784   4.693  16.720  1.0416  1.9479  5.2726
18295TIP3    H276301   0.933   4.686  16.691  0.2157 -0.1495  0.5386
18296TIP3   OH276302   1.910   0.886  10.664 -0.9337  0.3682 -0.0623
18296TIP3    H176303   1.845   0.865  10.596 -0.9685  0.4914 -0.0670
18296TIP3    H276304   1.888   0.827  10.736 -1.5509  0.9484  0.2424
18297TIP3   OH276305   6.542   4.211  13.485 -0.0373  0.0694 -0.0409
18297TIP3    H176306   6.517   4.256  13.404 -1.5723  1.3422  1.0820
18297TIP3    H276307   6.459   4.182  13.523  0.7044 -1.0621  0.7917
18298TIP3   OH276308   4.934   6.712   6.222 -0.3340 -0.4244  0.6076
18298TIP3    H176309   4.915   6.676   6.309 -0.5670 -1.3631  0.1795
18298TIP3    H276310   4.925   6.807   6.233  2.1569 -0.2811  2.2351
18299TIP3   OH276311   6.203   6.317   3.857  0.6528  0.1008  0.1815
18299TIP3    H176312   6.222   6.359   3.773 -3.0754  1.3013 -0.2732
18299TIP3    H276313   6.175   6.389   3.914  0.8411 -0.9847  1.7160
18300TIP3   OH276314   6.702   3.560  10.790 -0.6978 -0.1445 -0.3481
18300TIP3    H176315   6.794   3.533  10.794 -0.9978 -1.0415  2.2865
18300TIP3    H276316   6.705   3.655  10.796  0.0798 -0.0865 -1.3756
18301TIP3   OH276317   4.059   1.462   4.507 -0.3377  0.4582 -0.6035
18301TIP3    H176318   3.998   1.438   4.577  0.4357  0.4367  0.0716
18301TIP3    H276319   4.012   1.440   4.427 -1.8644  1.9433 -0.1568
18302TIP3   OH276320   0.358   0.366   4.527  0.5667  0.0425 -0.4479
18302TIP3    H176321   0.317   0.280   4.538  0.8865  0.1283  1.8667
18302TIP3    H276322   0.439   0.349   4.479  0.6763 -0.9843  0.0838
18303TIP3   OH276323   3.066   3.732   6.788 -0.1361  0.1675  0.4154
18303TIP3    H176324   3.160   3.744   6.798  0.3230 -2.8652  0.6723
18303TIP3    H276325   3.054   3.714   6.694 -0.4074  0.2966  0.4245
18304TIP3   OH276326   0.897   1.771  13.131  0.5085  0.2951 -0.1420
18304TIP3    H176327   0.911   1.704  13.198 -0.5445  0.3663  0.1583
18304TIP3    H276328   0.985   1.787  13.095  0.7914 -1.1803 -0.1720
18305TIP3   OH276329   1.466   3.753   3.489  0.5344 -0.3997  0.4480
18305TIP3    H176330   1.377   3.765   3.456  0.7101 -2.2528 -0.8749
18305TIP3    H276331   1.472   3.811   3.564 -1.1221  1.2938 -0.6353
18306TIP3   OH276332   4.463   0.558  11.922 -0.0885 -0.2528  0.0915
18306TIP3    H176333   4.483   0.534  12.012  1.2771 -1.2113 -0.4391
18306TIP3    H276334   4.547   0.581  11.884 -0.8201  1.4300 -0.5934
18307TIP3   OH276335   1.174   2.431  10.378  0.1563  0.1009 -0.1813
18307TIP3    H176336   1.234   2.407  10.448  0.1813  3.2916  1.0664
18307TIP3    H276337   1.095   2.380  10.395  1.7283 -2.7196 -0.7386
18308TIP3   OH276338   1.284   2.733  15.457 -0.6181 -0.1726 -0.4578
18308TIP3    H176339   1.275   2.824  15.428  1.6586  0.3368  0.2330
18308TIP3    H276340   1.195   2.706  15.479 -1.4417  1.6406 -1.3724
18309TIP3   OH276341   4.213   3.271  12.286 -0.2311 -0.4556 -0.2284
18309TIP3    H176342   4.179   3.357  12.314 -0.0066  0.1925 -1.8822
18309TIP3    H276343   4.306   3.286  12.270 -0.2706 -0.9097 -0.8974
18310TIP3   OH276344   3.563   1.856   0.840 -0.1232 -0.4841  0.1490
18310TIP3    H176345   3.653   1.844   0.869  0.5626 -0.6641 -1.9204
18310TIP3    H276346   3.560   1.819   0.751 -1.9596  0.4550 -0.2438
18311TIP3   OH276347   3.799   1.926  11.299 -0.0366  0.5390  0.6480
18311TIP3    H176348   3.781   1.966  11.384  0.9535 -0.7843  1.5183
18311TIP3    H276349   3.870   1.865  11.316  0.9052  0.9893 -1.3565
18312TIP3   OH276350   2.006   1.932   4.673  0.6084 -1.0049  0.1669
18312TIP3    H176351   1.966   1.986   4.604 -1.4055  0.3884  2.2516
18312TIP3    H276352   2.084   1.980   4.698 -0.7664  0.6984  1.4845
18313TIP3   OH276353   6.216   4.999  15.287 -0.5000 -0.5053  0.0079
18313TIP3    H176354   6.247   5.080  15.328  0.3471 -0.1838 -1.2132
18313TIP3    H276355   6.127   4.986  15.323 -1.2074  1.7130 -0.8119
18314TIP3   OH276356   5.679   5.109  14.776  0.9792 -0.2811 -0.2958
18314TIP3    H176357   5.701   5.016  14.780  1.0095 -0.2819 -0.4918
18314TIP3    H276358   5.584   5.112  14.791  0.3660 -0.6262 -3.3576
18315TIP3   OH276359   3.348   4.090  16.111  0.0612 -0.7381  0.0200
18315TIP3    H176360   3.252   4.094  16.116 -0.0831 -3.1956  0.6702
18315TIP3    H276361   3.366   4.063  16.021  0.0841 -1.0628  0.1201
18316TIP3   OH276362   1.922   6.651  12.169 -0.1752  0.2028  0.4114
18316TIP3    H176363   1.899   6.618  12.082  1.7318 -0.6938  0.1835
18316TIP3    H276364   1.927   6.572  12.224 -0.3587  0.6517  1.0831
18317TIP3   OH276365   1.615   0.341   2.639  0.3703  0.1410 -0.1321
18317TIP3    H176366   1.668   0.418   2.622  1.1529 -0.9364 -3.1871
18317TIP3    H276367   1.524   0.371   2.632  0.6442  1.0035 -0.0244
18318TIP3   OH276368   5.094   1.546  13.976  0.1533  0.2741  0.4984
18318TIP3    H176369   5.082   1.457  14.010 -4.1029 -0.7035 -2.7307
18318TIP3    H276370   5.133   1.533  13.890 -3.5753  0.9800 -1.4823
18319TIP3   OH276371   2.649   5.887   4.216 -0.2163  0.4585  0.5190
18319TIP3    H176372   2.710   5.895   4.290 -0.3632  0.5227  0.6332
18319TIP3    H276373   2.563   5.905   4.254 -0.2942  0.4719  0.3358
18320TIP3   OH276374   4.737   4.173   0.975 -0.4010  0.4596  0.2614
18320TIP3    H176375   4.747   4.246   1.036 -0.5396  0.2916  0.4855
18320TIP3    H276376   4.707   4.213   0.893 -1.7111  0.5183  0.7523
18321TIP3   OH276377   6.684   2.767  15.869 -0.6608 -0.0576  0.2130
18321TIP3    H176378   6.754   2.792  15.929 -0.5593 -0.9594  0.4797
18321TIP3    H276379   6.728   2.751  15.785 -0.2581 -2.2671  0.7815
18322TIP3   OH276380   0.299   1.480  16.251 -0.3267 -0.1424 -0.3319
18322TIP3    H176381   0.254   1.547  16.198 -1.4149  0.8549  1.7164
18322TIP3    H276382   0.341   1.423  16.187 -3.3631 -0.3178 -2.3831
18323TIP3   OH276383   5.045   4.524  14.171 -0.4883  0.4143  0.2138
18323TIP3    H176384   5.010   4.579  14.101 -0.1989  0.8249  0.3847
18323TIP3    H276385   5.139   4.520  14.153 -0.4980  0.0391  0.2484
18324TIP3   OH276386   5.476   2.365   2.761  0.5426  0.5071 -0.0662
18324TIP3    H176387   5.563   2.379   2.723  1.2007 -1.0590  0.7502
18324TIP3    H276388   5.493   2.363   2.856 -0.5414  1.0355  0.1509
18325TIP3   OH276389   5.330   2.416   1.594 -0.0498  0.4022  0.4205
18325TIP3    H176390   5.402   2.470   1.626 -1.0301  0.6088  2.3741
18325TIP3    H276391   5.283   2.473   1.533 -0.4310  1.4056  1.6175
18326TIP3   OH276392   1.744   4.554   5.184  0.1597 -0.2901  0.0995
18326TIP3    H176393   1.803   4.564   5.258 -0.6791 -2.4324  1.1581
18326TIP3    H276394   1.656   4.559   5.222 -0.3316  0.4638 -1.0667
18327TIP3   OH276395   0.686   3.285   5.628  0.7923  0.9426 -0.1667
18327TIP3    H176396   0.706   3.372   5.661 -0.7977  0.6109  1.8954
18327TIP3    H276397   0.722   3.225   5.695 -0.0551  0.1250 -0.4192
18328TIP3   OH276398   4.849   1.575  16.104 -0.6960 -0.1856  0.3447
18328TIP3    H176399   4.906   1.545  16.034 -0.4418 -1.3688  1.0342
18328TIP3    H276400   4.908   1.616  16.168 -0.7584 -0.3723  0.5220
18329TIP3   OH276401   4.944   5.545  16.753  0.5692 -0.4246  0.3037
18329TIP3    H176402   5.021   5.585  16.712  0.8467 -0.4681  0.7720
18329TIP3    H276403   4.875   5.554  16.688  0.8290  0.1216  0.0914
18330TIP3   OH276404   4.545   0.347   0.588 -0.3036  0.0219  0.6849
18330TIP3    H176405   4.640   0.356   0.590 -0.2711 -0.1815  0.2091
18330TIP3    H276406   4.512   0.434   0.566 -0.1572 -0.1888 -0.4541
18331TIP3   OH276407   1.368   5.755   1.946  0.5081  0.4221 -0.2697
18331TIP3    H176408   1.377   5.840   1.988 -2.4386  0.9605 -0.5008
18331TIP3    H276409   1.283   5.759   1.902  1.2065 -1.9115 -2.0600
18332TIP3   OH276410   1.480   2.262  16.914 -0.0745 -0.1672  0.3329
18332TIP3    H176411   1.447   2.294  16.830 -1.0985 -2.5320 -0.2222
18332TIP3    H276412   1.507   2.342  16.960  0.1392  1.2395 -2.0459
18333TIP3   OH276413   5.390   3.151  11.527 -0.1844 -0.7326  0.4461
18333TIP3    H176414   5.332   3.106  11.589 -0.0981 -1.1889  0.2018
18333TIP3    H276415   5.478   3.131  11.557 -0.1318  0.8010  1.4178
18334TIP3   OH276416   4.105   5.277  11.705 -0.0449  0.2538 -0.5075
18334TIP3    H176417   4.122   5.224  11.628 -0.3901 -0.6269  0.0019
18334TIP3    H276418   4.128   5.220  11.779  1.4942  1.5074  0.0395
18335TIP3   OH276419   0.821   4.615   1.669  0.5902 -0.2268 -0.1255
18335TIP3    H176420   0.864   4.624   1.754 -0.8719 -0.0230  0.6213
18335TIP3    H276421   0.751   4.551   1.684  0.2396 -0.1018 -1.1513
18336TIP3   OH276422   4.386   3.051  12.551 -0.1949  0.3021  0.0054
18336TIP3    H176423   4.301   3.006  12.548 -0.1421  0.2399 -1.2872
18336TIP3    H276424   4.364   3.142  12.570 -0.6890  0.5346 -1.5459
18337TIP3   OH276425   0.238   2.787  13.422  0.7469  0.7266 -0.0801
18337TIP3    H176426   0.172   2.819  13.360  0.5285  0.5091  0.0374
18337TIP3    H276427   0.246   2.694  13.401 -0.2422  0.3681  1.0370
18338TIP3   OH276428   2.949   3.490   0.580  0.3984 -0.3258  0.2330
18338TIP3    H176429   2.895   3.525   0.650  1.6571 -0.0972  1.1220
18338TIP3    H276430   2.949   3.557   0.512 -2.2835 -1.2795 -0.8375
18339TIP3   OH276431   4.199   6.071   2.639  0.1640  0.4093 -0.5591
18339TIP3    H176432   4.163   6.159   2.639  0.5252  0.6631  2.1178
18339TIP3    H276433   4.293   6.083   2.625  0.4686  0.6795  1.4300
18340TIP3   OH276434   0.212   5.430   3.073  0.0465 -0.5185 -0.5454
18340TIP3    H176435   0.244   5.413   3.162 -0.7194 -0.5946 -0.2752
18340TIP3    H276436   0.203   5.343   3.034  2.5276 -0.4160 -1.5025
18341TIP3   OH276437   4.517   6.758  12.305  0.2411  0.2877  0.0785
18341TIP3    H176438   4.504   6.682  12.249 -1.0261  0.3524  0.2522
18341TIP3    H276439   4.478   6.733  12.389  1.3387  0.5091  0.6806
18342TIP3   OH276440   1.360   3.359  13.857  0.2252  0.1079 -0.0794
18342TIP3    H176441   1.442   3.406  13.848 -0.0843  0.5828 -0.4765
18342TIP3    H276442   1.300   3.421  13.897  0.2479 -0.4663  0.8722
18343TIP3   OH276443   5.858   4.237  13.550  0.3944 -0.1261 -0.1557
18343TIP3    H176444   5.825   4.286  13.626  0.8664  1.0483 -0.6907
18343TIP3    H276445   5.823   4.149  13.562 -1.4699  0.6143  0.2232
18344TIP3   OH276446   4.858   0.882   6.371 -0.0513  0.5847 -0.6999
18344TIP3    H176447   4.952   0.870   6.379 -0.2624 -0.6171  0.0940
18344TIP3    H276448   4.835   0.940   6.444 -0.0516  0.1917 -0.3873
18345TIP3   OH276449   5.481   4.312  13.359  0.2004 -0.0003 -0.1341
18345TIP3    H176450   5.539   4.256  13.410  0.6145  0.9240  0.4302
18345TIP3    H276451   5.399   4.312  13.409 -0.0637 -0.7148 -0.5478
18346TIP3   OH276452   2.493   3.085  14.790  0.0779 -1.0050 -0.4383
18346TIP3    H176453   2.582   3.107  14.817 -0.3951  1.3876 -0.6892
18346TIP3    H276454   2.442   3.083  14.872 -0.3980  1.5828 -0.6092
18347TIP3   OH276455   2.705   3.844   3.833 -0.2732  0.4243  0.4054
18347TIP3    H176456   2.638   3.784   3.800 -0.2783 -0.5795  2.1455
18347TIP3    H276457   2.657   3.907   3.887  0.0503  0.3979  0.7256
18348TIP3   OH276458   6.097   5.037  16.748 -0.5428  0.8438 -0.3152
18348TIP3    H176459   6.120   4.958  16.699  2.5240  1.0107  0.6423
18348TIP3    H276460   6.102   5.011  16.840  0.0854  2.0068 -0.0019
18349TIP3   OH276461   0.099   2.843   5.115 -0.0245  0.0475 -0.5337
18349TIP3    H176462   0.037   2.915   5.105 -2.1257 -1.7727 -1.4573
18349TIP3    H276463   0.066   2.793   5.190  1.7297  0.2882  0.4523
18350TIP3   OH276464   5.350   0.888   0.663  0.0006 -0.1762  0.2600
18350TIP3    H176465   5.357   0.933   0.579 -2.7714  1.4348  0.7591
18350TIP3    H276466   5.399   0.943   0.724 -0.0602  0.0248  0.1299
18351TIP3   OH276467   0.103   5.537   5.161 -0.3393  0.6622 -0.4953
18351TIP3    H176468   0.186   5.509   5.200  0.4925  1.1886 -1.8000
18351TIP3    H276469   0.064   5.457   5.128 -0.4551  0.3831  0.2911
18352TIP3   OH276470   1.039   3.968   3.556  0.3912  0.1171 -0.3063
18352TIP3    H176471   1.054   3.901   3.489  1.7802 -1.3231  1.3241
18352TIP3    H276472   1.090   4.043   3.526  0.5883 -0.3172 -1.1053
18353TIP3   OH276473   2.620   6.326  11.127  0.2764  0.6825  0.2950
18353TIP3    H176474   2.654   6.350  11.041  0.5325 -1.8477 -0.3896
18353TIP3    H276475   2.611   6.231  11.124 -1.5574  0.6883  2.4092
18354TIP3   OH276476   4.797   1.380  17.140  0.5493 -0.3636  0.6792
18354TIP3    H176477   4.868   1.362  17.078 -0.3572 -0.9251 -0.2356
18354TIP3    H276478   4.839   1.429  17.211  1.7923 -0.4598  0.0456
18355TIP3   OH276479   1.445   4.397   4.704  0.1627 -0.2385 -0.3253
18355TIP3    H176480   1.394   4.317   4.695 -0.3522  0.1882 -1.3307
18355TIP3    H276481   1.526   4.380   4.657 -0.0456 -0.0911 -0.7409
18356TIP3   OH276482   5.569   4.787   6.037 -0.2152  0.0705 -0.3770
18356TIP3    H176483   5.525   4.744   6.110 -0.4609 -2.0099 -1.6866
18356TIP3    H276484   5.657   4.749   6.035  0.5106  1.6328  0.0637
18357TIP3   OH276485   0.413   6.341  16.303 -0.3717  0.4222  0.0685
18357TIP3    H176486   0.353   6.273  16.331 -0.2460  0.2360 -0.1094
18357TIP3    H276487   0.357   6.411  16.269 -0.4857  0.2183 -0.1648
18358TIP3   OH276488   5.099   4.824   4.787 -0.5672  0.0017  0.0060
18358TIP3    H176489   5.024   4.883   4.777 -1.6709 -1.3158  0.2649
18358TIP3    H276490   5.108   4.812   4.881 -0.4963 -0.4239 -0.0527
18359TIP3   OH276491   4.779   1.711   3.795 -0.2943 -0.6280 -0.3782
18359TIP3    H176492   4.849   1.770   3.769 -0.8581 -0.7950 -2.5117
18359TIP3    H276493   4.811   1.667   3.874  1.7290 -0.2547 -0.9531
18360TIP3   OH276494   2.108   2.078   4.284  0.1488 -0.2614 -0.0442
18360TIP3    H176495   2.031   2.073   4.340 -0.7743 -1.5290 -1.3715
18360TIP3    H276496   2.074   2.084   4.195  1.5866  1.3442 -0.5561
18361TIP3   OH276497   1.849   4.868  10.685 -0.8358 -0.0017  0.0639
18361TIP3    H176498   1.814   4.821  10.609  1.1314 -2.2566  0.4428
18361TIP3    H276499   1.944   4.862  10.675 -0.5310  0.1634  2.3927
18362TIP3   OH276500   3.110   4.528   4.901 -0.6526 -0.4256  0.5463
18362TIP3    H176501   3.031   4.530   4.847  0.1727 -2.0102 -0.8391
18362TIP3    H276502   3.118   4.436   4.928  1.1501 -0.4769 -0.0520
18363TIP3   OH276503   1.583   3.682  13.926 -0.4371  0.1176  0.2841
18363TIP3    H176504   1.612   3.591  13.933  0.6505  0.4597  0.4817
18363TIP3    H276505   1.546   3.703  14.011  0.7036  0.3056  0.7474
18364TIP3   OH276506   0.087   4.387   0.351  0.9931  0.1747 -0.3639
18364TIP3    H176507   0.165   4.415   0.302  1.1295 -0.9133 -0.8037
18364TIP3    H276508   0.057   4.466   0.395  2.1853  0.6788 -0.4117
18365TIP3   OH276509   0.477   4.460  10.785  0.0928 -0.1405 -0.3087
18365TIP3    H176510   0.504   4.473  10.876 -2.4145  2.1325  0.2683
18365TIP3    H276511   0.553   4.487  10.733  1.4471 -1.1478  1.0721
18366TIP3   OH276512   1.885   2.090   4.450  0.3623 -0.5914 -0.3560
18366TIP3    H176513   1.879   2.180   4.482 -0.8931 -0.7289 -0.1453
18366TIP3    H276514   1.799   2.072   4.413  1.5023 -0.6690 -3.2405
18367TIP3   OH276515   5.037   1.291  16.268  0.6111 -0.0839 -0.1671
18367TIP3    H176516   5.071   1.346  16.339 -0.3368  0.0446  0.2016
18367TIP3    H276517   5.110   1.284  16.207  0.9423  1.1160  0.0527
18368TIP3   OH276518   6.542   2.581  12.806 -0.2966  0.1731 -0.5140
18368TIP3    H176519   6.558   2.607  12.715 -0.3991 -0.3759 -0.6933
18368TIP3    H276520   6.450   2.556  12.808 -0.2575  0.0496 -0.2936
18369TIP3   OH276521   3.999   2.339   2.669 -0.4522 -0.4358  0.0073
18369TIP3    H176522   3.990   2.367   2.578  0.8788 -2.1060 -0.7090
18369TIP3    H276523   4.070   2.275   2.666 -0.1777 -0.2930  2.2913
18370TIP3   OH276524   6.676   3.878  12.671  0.3530  0.7006 -0.0897
18370TIP3    H176525   6.619   3.801  12.673 -0.3279  1.1916 -0.5669
18370TIP3    H276526   6.677   3.905  12.580  1.4965  0.6040 -0.1304
18371TIP3   OH276527   6.139   1.515  10.988  0.0306  0.0043 -0.2843
18371TIP3    H176528   6.147   1.534  11.081  1.2889  1.0189 -0.5623
18371TIP3    H276529   6.126   1.420  10.983 -2.8533  0.2288  1.0164
18372TIP3   OH276530   5.343   4.142   6.086  0.1060  0.0195  0.4560
18372TIP3    H176531   5.322   4.188   6.167 -1.1157 -0.9488  0.7237
18372TIP3    H276532   5.435   4.117   6.095 -0.0226 -0.1015  1.5575
18373TIP3   OH276533   3.458   0.369   1.661 -0.0870 -0.0007 -0.0689
18373TIP3    H176534   3.516   0.391   1.588 -0.5170  1.3397 -0.0398
18373TIP3    H276535   3.488   0.426   1.733  0.2880 -1.2497  0.8044
18374TIP3   OH276536   2.360   3.013   1.883 -0.2180 -0.3881  0.0936
18374TIP3    H176537   2.289   2.985   1.940  0.6440  0.3377  1.5788
18374TIP3    H276538   2.440   2.988   1.929  0.5435  2.1033  0.2762
18375TIP3   OH276539   5.657   6.259  10.882  0.1234 -0.3755  0.2439
18375TIP3    H176540   5.737   6.310  10.887 -0.8004  1.1214  0.5022
18375TIP3    H276541   5.686   6.168  10.873  1.8692  0.3667 -3.0817
18376TIP3   OH276542   3.449   1.241   0.066  0.6147 -0.1406 -0.3463
18376TIP3    H176543   3.470   1.334   0.073  1.4081 -0.4230  1.6604
18376TIP3    H276544   3.527   1.201   0.027 -0.5340  0.2371 -3.3586
18377TIP3   OH276545   3.087   5.155  13.871 -0.3844 -0.8347  0.4942
18377TIP3    H176546   3.179   5.130  13.872 -0.0413  0.3460  0.0309
18377TIP3    H276547   3.059   5.141  13.780  0.6879  3.2983 -0.6523
18378TIP3   OH276548   0.965   0.569  14.541  0.2775 -0.1215 -0.5940
18378TIP3    H176549   1.000   0.507  14.477  0.7325  0.2776 -0.7391
18378TIP3    H276550   0.926   0.513  14.609  0.7846 -0.5732 -0.6635
18379TIP3   OH276551   4.902   3.629  10.510 -0.7658  1.1146  0.5358
18379TIP3    H176552   4.859   3.583  10.438  2.0481  2.6329 -2.3493
18379TIP3    H276553   4.965   3.565  10.544 -1.2171  0.8059  0.7944
18380TIP3   OH276554   0.991   1.151   6.445  0.5253 -0.1235  0.4320
18380TIP3    H176555   1.074   1.122   6.406  0.6834  1.0340 -0.1492
18380TIP3    H276556   1.013   1.171   6.536  0.1272 -2.9748  1.2232
18381TIP3   OH276557   2.321   0.902   2.748  1.1303  0.8139 -0.2468
18381TIP3    H176558   2.278   0.970   2.800  0.8200  0.4815 -0.0678
18381TIP3    H276559   2.398   0.946   2.711  1.7212  0.8984  1.0015
18382TIP3   OH276560   6.462   6.068  14.382  0.3029  0.6865 -0.0568
18382TIP3    H176561   6.507   6.085  14.464  0.4928  0.3655 -0.0896
18382TIP3    H276562   6.507   6.123  14.318  1.9503 -1.0403 -0.4762
18383TIP3   OH276563   0.592   3.768   2.965  0.2220  0.6103  0.4490
18383TIP3    H176564   0.530   3.742   3.034 -1.2826 -0.6198 -1.2646
18383TIP3    H276565   0.637   3.687   2.942 -1.5595  0.2058 -2.1054
18384TIP3   OH276566   2.616   1.912   0.314  0.6247  0.1326 -0.1613
18384TIP3    H176567   2.708   1.912   0.341  0.3184  2.7083  1.1180
18384TIP3    H276568   2.585   2.001   0.331 -1.4628  0.0746 -2.9067
18385TIP3   OH276569   2.536   3.438  17.023  0.0856  0.5228 -0.5817
18385TIP3    H176570   2.626   3.408  17.036 -0.1332  0.2476  0.4202
18385TIP3    H276571   2.521   3.499  17.095 -0.5706  0.4781 -0.6706
18386TIP3   OH276572   0.183   0.686  14.806 -0.1475 -0.2756 -0.2388
18386TIP3    H176573   0.180   0.602  14.852 -0.2813 -1.2498 -1.9396
18386TIP3    H276574   0.108   0.684  14.747  0.4826  0.5693 -1.0895
18387TIP3   OH276575   2.881   5.103  12.143 -0.3417 -0.1507 -0.7024
18387TIP3    H176576   2.944   5.158  12.190 -1.0133  0.5454 -0.6028
18387TIP3    H276577   2.912   5.105  12.052  0.7462 -1.2004 -0.3740
18388TIP3   OH276578   5.794   0.409  11.858  0.3070 -0.5863  0.2303
18388TIP3    H176579   5.730   0.354  11.812  1.7648 -1.3778 -0.9281
18388TIP3    H276580   5.813   0.480  11.797  0.2213 -0.1121  0.7512
18389TIP3   OH276581   2.334   2.558   2.978  0.2907 -0.1445 -0.1326
18389TIP3    H176582   2.349   2.642   3.022  0.4642 -0.9697  1.4422
18389TIP3    H276583   2.317   2.496   3.049  0.4386 -1.5109 -1.2471
18390TIP3   OH276584   4.932   1.868   4.549 -0.2674  0.3922  0.9481
18390TIP3    H176585   4.892   1.951   4.571 -1.4027  0.7367 -1.9674
18390TIP3    H276586   4.875   1.802   4.589 -1.3980  0.9740  0.3425
18391TIP3   OH276587   5.698   1.975  12.514 -0.0848 -0.2287 -0.5000
18391TIP3    H176588   5.688   1.920  12.592  1.1769  0.1029 -0.0700
18391TIP3    H276589   5.655   1.927  12.444  2.0417 -2.4109 -0.4171
18392TIP3   OH276590   2.803   3.236   5.375  0.6496  0.3182  0.0709
18392TIP3    H176591   2.872   3.301   5.365 -0.2954  1.3838  0.3493
18392TIP3    H276592   2.755   3.263   5.453 -1.3258  0.7853 -1.2263
18393TIP3   OH276593   2.199   5.151   1.553  0.3295  0.1815 -0.0385
18393TIP3    H176594   2.118   5.152   1.604  0.2021 -1.5705 -0.1499
18393TIP3    H276595   2.179   5.202   1.475 -1.1188 -1.3057 -0.6846
18394TIP3   OH276596   5.595   3.792  12.883  0.4911 -0.2994  0.7533
18394TIP3    H176597   5.567   3.882  12.870 -0.3254 -0.9656 -3.6752
18394TIP3    H276598   5.689   3.792  12.862  0.2847 -0.5774 -0.2262
18395TIP3   OH276599   2.305   1.707  12.377  0.0654 -0.0030 -0.2138
18395TIP3    H176600   2.306   1.634  12.316  0.8807 -0.0381 -0.1719
18395TIP3    H276601   2.376   1.764  12.348 -0.4109  0.6605 -0.1069
18396TIP3   OH276602   6.188   6.132   1.689 -0.0243 -0.2439  0.7368
18396TIP3    H176603   6.259   6.072   1.666 -0.4015  0.0418 -1.3630
18396TIP3    H276604   6.232   6.213   1.713  0.3762 -0.0231 -0.6849
18397TIP3   OH276605   0.513   4.950   3.668  0.3264  0.4480  0.0253
18397TIP3    H176606   0.429   4.906   3.660  1.1628 -1.1034 -0.5350
18397TIP3    H276607   0.522   4.966   3.762 -1.0274  1.5849  0.0055
18398TIP3   OH276608   0.781   4.968   3.652 -0.0138  0.6322 -0.2325
18398TIP3    H176609   0.785   4.876   3.629  0.7527  0.6192 -0.0680
18398TIP3    H276610   0.688   4.986   3.665 -0.2891  0.1827 -1.4741
18399TIP3   OH276611   2.862   2.022   1.849  0.2690  0.0966 -0.0428
18399TIP3    H176612   2.920   2.092   1.878 -0.3883  0.7475 -0.2681
18399TIP3    H276613   2.893   1.944   1.896  0.3664  0.7480  1.0011
18400TIP3   OH276614   0.150   6.002  13.873  0.0706  0.4423 -0.1577
18400TIP3    H176615   0.060   6.029  13.892 -0.3942 -1.1400  0.0776
18400TIP3    H276616   0.192   6.081  13.839 -0.9542  1.6298  1.2034
18401TIP3   OH276617   2.509   5.997   3.972  0.0427 -0.5319 -0.1179
18401TIP3    H176618   2.440   6.038   3.919 -0.2373  0.4905  0.9861
18401TIP3    H276619   2.471   5.915   4.003 -0.7116  0.0292  0.4928
18402TIP3   OH276620   5.997   6.523  16.732  0.6739  0.3033  0.0092
18402TIP3    H176621   6.084   6.534  16.771  0.5532  1.2648  0.0174
18402TIP3    H276622   5.968   6.612  16.712 -1.9651  0.4006  3.4919
18403TIP3   OH276623   3.232   6.434  16.345  0.3804 -0.4712  0.0964
18403TIP3    H176624   3.249   6.519  16.385  0.5146  0.8467 -2.5398
18403TIP3    H276625   3.150   6.446  16.297  0.7670 -1.5949 -0.8977
18404TIP3   OH276626   4.702   1.198   0.361 -0.1873 -0.1523 -0.5828
18404TIP3    H176627   4.750   1.253   0.422  0.3081  0.0811 -1.1656
18404TIP3    H276628   4.623   1.173   0.408 -0.2603  0.7774 -0.1832
18405TIP3   OH276629   4.932   3.801  11.912  0.0566 -0.2906 -0.1050
18405TIP3    H176630   4.952   3.895  11.909  2.0595 -0.5367  2.7183
18405TIP3    H276631   4.969   3.766  11.831  1.5497  0.9871 -0.0090
18406TIP3   OH276632   1.880   1.542   5.633  0.5324 -0.3344 -0.0770
18406TIP3    H176633   1.790   1.539   5.601  0.6674  1.7491 -0.8404
18406TIP3    H276634   1.920   1.461   5.603 -0.8750 -0.9403 -0.3834
18407TIP3   OH276635   0.566   0.330  16.452  0.1469 -0.0173  0.8016
18407TIP3    H176636   0.569   0.376  16.368 -1.3673 -0.8186  0.2690
18407TIP3    H276637   0.657   0.325  16.480  0.5141  2.0766  0.2241
18408TIP3   OH276638   2.301   0.618  14.581 -0.8500 -0.3300 -0.3063
18408TIP3    H176639   2.325   0.710  14.592  0.5023 -0.7774  0.9020
18408TIP3    H276640   2.362   0.584  14.516  1.4303 -1.2598  2.1286
18409TIP3   OH276641   1.567   1.351  15.225  0.2642 -0.7113  0.5344
18409TIP3    H176642   1.582   1.398  15.307  1.0635  0.4739 -0.2559
18409TIP3    H276643   1.472   1.346  15.217  0.1182  1.3129  0.3825
18410TIP3   OH276644   4.797   2.158  14.231  0.2777  0.0132 -0.3954
18410TIP3    H176645   4.873   2.116  14.271  0.6558 -0.5940 -1.6690
18410TIP3    H276646   4.825   2.178  14.141 -0.7115  0.7728 -0.5569
18411TIP3   OH276647   1.255   0.664   5.084  0.2909 -0.7633  0.3092
18411TIP3    H176648   1.171   0.654   5.129 -0.1938  0.2448 -0.3266
18411TIP3    H276649   1.289   0.748   5.115  0.1848 -0.2860 -0.8227
18412TIP3   OH276650   5.105   3.295  13.660  0.1238  0.5553 -0.7873
18412TIP3    H176651   5.081   3.372  13.710  0.2882  0.0781  0.0561
18412TIP3    H276652   5.119   3.327  13.571 -1.2013  1.2452 -0.7667
18413TIP3   OH276653   0.902   1.058  13.131 -0.3794  0.1459 -0.0707
18413TIP3    H176654   0.916   1.101  13.046 -1.6822  1.5991  0.4096
18413TIP3    H276655   0.817   1.014  13.122 -0.0351 -0.5770  0.1531
18414TIP3   OH276656   5.355   0.441  13.317 -0.2312 -0.1042  0.2864
18414TIP3    H176657   5.266   0.475  13.308  0.1642  0.7670 -0.4135
18414TIP3    H276658   5.356   0.363  13.261  0.8176  2.6258 -4.0192
18415TIP3   OH276659   5.374   0.294   1.374 -0.5931  0.1303  0.1623
18415TIP3    H176660   5.379   0.207   1.412  1.3390  0.7244  1.4192
18415TIP3    H276661   5.361   0.279   1.280  0.5661 -1.5531  0.2304
18416TIP3   OH276662   2.957   1.013  13.795 -0.2918  0.1395  0.2079
18416TIP3    H176663   2.892   1.015  13.866  1.1509 -1.0306  1.6314
18416TIP3    H276664   3.041   1.018  13.840  0.6486  0.5040 -1.5311
18417TIP3   OH276665   0.769   1.762   5.222  0.2564  0.6036  0.0990
18417TIP3    H176666   0.812   1.792   5.142  1.8536  0.9759  1.0414
18417TIP3    H276667   0.824   1.691   5.253 -1.2587 -0.6443  0.0299
18418TIP3   OH276668   5.076   5.835   3.771  0.0136 -0.3642 -0.0334
18418TIP3    H176669   5.021   5.897   3.724  1.0561  0.3180 -0.3872
18418TIP3    H276670   5.035   5.750   3.755 -1.3085  0.1976  0.2846
18419TIP3   OH276671   1.689   4.316   0.055  0.0000  0.1757  0.3139
18419TIP3    H176672   1.759   4.366   0.013 -0.6124  0.3139 -0.5610
18419TIP3    H276673   1.673   4.362   0.138 -2.1143  2.8808 -1.4418
18420TIP3   OH276674   1.389   5.184  15.071 -0.4977 -0.0024  0.2498
18420TIP3    H176675   1.351   5.097  15.064  0.9036 -0.5967 -0.2122
18420TIP3    H276676   1.356   5.231  14.994 -2.2617  0.3391  1.1331
18421TIP3   OH276677   3.054   4.814  15.250  0.1754 -0.3377  0.1196
18421TIP3    H176678   2.987   4.829  15.183  0.2828 -1.4287 -0.2552
18421TIP3    H276679   3.061   4.898  15.297 -2.3046 -0.5224  0.9593
18422TIP3   OH276680   1.915   3.921   0.379 -1.1840 -0.3806 -0.7061
18422TIP3    H176681   1.968   3.994   0.346 -0.6013  0.9395  2.7235
18422TIP3    H276682   1.832   3.961   0.404 -1.8700 -1.4464 -1.2195
18423TIP3   OH276683   3.366   3.367  13.556  0.2542  0.5660  0.8523
18423TIP3    H176684   3.332   3.424  13.625 -0.5851  3.0476 -1.4283
18423TIP3    H276685   3.440   3.415  13.520 -0.9194  0.6840 -1.6166
18424TIP3   OH276686   5.266   1.968   4.234 -0.2464  0.0780 -0.2013
18424TIP3    H176687   5.329   1.908   4.193 -1.3904 -1.5497  0.3324
18424TIP3    H276688   5.215   2.002   4.161 -1.0764 -1.4036 -0.3616
18425TIP3   OH276689   5.827   4.639  16.819 -0.0525  0.2855 -0.3650
18425TIP3    H176690   5.847   4.730  16.795  0.8135  0.7720  1.9376
18425TIP3    H276691   5.744   4.645  16.867  0.5386  0.0528  0.7217
18426TIP3   OH276692   0.077   0.629  16.130 -0.0928 -0.2281  0.2547
18426TIP3    H176693   0.089   0.721  16.153 -1.4730  0.3047 -1.0303
18426TIP3    H276694   0.162   0.589  16.149  0.3655  1.1651  1.3811
18427TIP3   OH276695   2.891   2.694  12.707  0.6925 -0.0825  0.0768
18427TIP3    H176696   2.891   2.670  12.615 -0.6353 -0.0901  0.0571
18427TIP3    H276697   2.923   2.615  12.752 -1.6502 -1.2792 -0.1547
18428TIP3   OH276698   0.675   4.971   2.888 -0.1601 -0.2073  0.4201
18428TIP3    H176699   0.652   5.018   2.808 -0.0942  0.0717  0.5625
18428TIP3    H276700   0.732   4.900   2.859  0.4156  0.3022  0.2989
18429TIP3   OH276701   5.781   3.971   1.244 -0.2348  0.6834  0.1552
18429TIP3    H176702   5.856   3.961   1.185 -0.2503 -2.5397  0.4998
18429TIP3    H276703   5.705   3.950   1.189 -0.6187  1.2484  0.4641
18430TIP3   OH276704   4.066   5.141  13.249 -0.3050 -0.1474  0.1080
18430TIP3    H176705   4.117   5.062  13.268 -0.5403 -0.0615  1.1426
18430TIP3    H276706   4.127   5.213  13.262  0.6046 -0.1639 -3.0488
18431TIP3   OH276707   5.849   4.849   1.939 -0.0143  0.4090 -0.6333
18431TIP3    H176708   5.766   4.804   1.930  0.5747 -0.3929 -2.4008
18431TIP3    H276709   5.873   4.838   2.031 -0.0211 -2.6733 -0.9263
18432TIP3   OH276710   5.997   6.376   0.452 -0.3410  0.2154  0.0190
18432TIP3    H176711   5.950   6.426   0.519  0.1525  1.2007 -0.3541
18432TIP3    H276712   5.953   6.400   0.370  1.1574  1.6381 -0.4195
18433TIP3   OH276713   1.585   2.662   0.685 -0.2894  0.8705 -0.1063
18433TIP3    H176714   1.645   2.684   0.613 -0.0617 -1.4219 -0.6948
18433TIP3    H276715   1.612   2.718   0.757 -0.5387  3.2753 -1.7700
18434TIP3   OH276716   4.239   1.980  11.795 -0.1394  0.0132  0.3887
18434TIP3    H176717   4.312   2.037  11.770 -0.4535  0.1790 -0.1697
18434TIP3    H276718   4.264   1.946  11.880  0.9795 -0.5792 -0.1554
18435TIP3   OH276719   2.367   6.079  15.896  0.3247  0.1699 -0.8057
18435TIP3    H176720   2.459   6.052  15.887 -0.0218 -2.2299  1.5872
18435TIP3    H276721   2.321   6.026  15.831  0.4038 -0.2308 -0.5389
18436TIP3   OH276722   2.717   1.649   1.911  0.5093 -0.1053 -0.8507
18436TIP3    H176723   2.739   1.563   1.946  2.0592  0.9301  0.9109
18436TIP3    H276724   2.627   1.664   1.940 -0.2375 -1.5722 -2.2202
18437TIP3   OH276725   3.957   0.124  14.006 -0.5110  0.0551 -0.2542
18437TIP3    H176726   3.955   0.031  13.983 -0.6712  0.0607 -0.2622
18437TIP3    H276727   3.958   0.125  14.102 -1.3160  0.0582 -0.2368
18438TIP3   OH276728   2.280   3.218   4.296 -0.0522  0.5756 -0.1671
18438TIP3    H176729   2.332   3.182   4.368 -1.1294 -2.3044 -0.6690
18438TIP3    H276730   2.189   3.208   4.325 -0.4553  2.9854 -0.4099
18439TIP3   OH276731   6.104   6.515  13.362  0.1726 -0.3328 -0.2681
18439TIP3    H176732   6.197   6.492  13.369  0.0151 -1.6839 -2.0663
18439TIP3    H276733   6.057   6.440  13.397 -0.2869 -2.1155 -4.1787
18440TIP3   OH276734   4.601   5.178   5.674  1.1385 -0.2667  0.3489
18440TIP3    H176735   4.649   5.098   5.650 -0.1035 -1.1582  0.7353
18440TIP3    H276736   4.509   5.150   5.680  0.4457  1.5164 -1.0198
18441TIP3   OH276737   2.533   2.715  13.497 -0.3283  0.0087 -0.3299
18441TIP3    H176738   2.476   2.750  13.566  0.1718 -0.6523  0.4301
18441TIP3    H276739   2.622   2.730  13.530 -0.0873 -2.2896  0.2154
18442TIP3   OH276740   2.156   2.596   5.638  0.4623  0.0192 -0.2047
18442TIP3    H176741   2.127   2.674   5.685 -1.3680 -0.2179 -0.8805
18442TIP3    H276742   2.228   2.561   5.692  0.9957  1.8679  0.3592
18443TIP3   OH276743   5.278   0.514   4.192 -0.1441  0.5339 -0.1200
18443TIP3    H176744   5.203   0.464   4.160  0.2981  0.5805 -1.2590
18443TIP3    H276745   5.239   0.593   4.230 -0.7993 -0.3478  1.1344
18444TIP3   OH276746   4.246   2.086   5.750  0.0232  0.2888  0.7103
18444TIP3    H176747   4.212   2.030   5.680  1.3668  1.4410 -0.9225
18444TIP3    H276748   4.185   2.072   5.823 -0.4274 -2.2753 -0.0615
18445TIP3   OH276749   0.613   4.391  13.140  0.2391  0.5584  0.0673
18445TIP3    H176750   0.690   4.414  13.192 -0.0425  2.1670 -0.1723
18445TIP3    H276751   0.638   4.412  13.050 -0.4811  1.1324 -0.0100
18446TIP3   OH276752   4.530   2.678  15.520  0.2096 -0.8035 -0.1573
18446TIP3    H176753   4.447   2.700  15.562 -0.1552 -1.6854 -0.3939
18446TIP3    H276754   4.567   2.763  15.495  0.2774 -0.2625  1.5992
18447TIP3   OH276755   0.510   0.672   2.333  0.3757  0.3753 -0.5209
18447TIP3    H176756   0.554   0.748   2.370 -0.0216 -0.4670  1.9095
18447TIP3    H276757   0.504   0.610   2.407  0.5170 -1.9432 -2.3221
18448TIP3   OH276758   5.999   6.346  16.258  0.0721  0.3093  0.2785
18448TIP3    H176759   5.974   6.338  16.350 -0.5551 -0.9267  0.0195
18448TIP3    H276760   5.998   6.440  16.240 -1.7239  0.4541  1.0096
18449TIP3   OH276761   6.058   1.791   5.720  0.6310  0.2400  0.4187
18449TIP3    H176762   5.988   1.852   5.743  0.2756 -0.2091  0.5581
18449TIP3    H276763   6.061   1.730   5.793  0.5752 -0.2596  0.0129
18450TIP3   OH276764   5.490   6.579  16.294 -0.6440  0.2765 -0.4559
18450TIP3    H176765   5.584   6.568  16.306 -0.6075  0.5982 -0.4220
18450TIP3    H276766   5.472   6.540  16.209 -0.2397  1.3987 -1.0865
18451TIP3   OH276767   3.558   4.318  15.693 -0.3967  0.5467 -0.5269
18451TIP3    H176768   3.497   4.363  15.634  0.9435  2.3309 -0.6351
18451TIP3    H276769   3.641   4.363  15.680  0.5511 -0.7265  0.8463
18452TIP3   OH276770   3.852   3.920   0.547  0.3700  0.3392  0.0956
18452TIP3    H176771   3.760   3.936   0.525  0.9684  2.0644 -1.3823
18452TIP3    H276772   3.885   4.006   0.575  1.5720 -0.2396  0.5117
18453TIP3   OH276773   1.352   5.493  12.092  0.1004 -0.1200 -0.6815
18453TIP3    H176774   1.336   5.450  12.176 -1.0068  0.0290 -0.7999
18453TIP3    H276775   1.265   5.503  12.053  0.4920  0.8100 -1.3566
18454TIP3   OH276776   4.811   0.653  13.352  0.0459  0.1090 -0.1667
18454TIP3    H176777   4.884   0.714  13.361  0.8009 -0.7294 -0.4029
18454TIP3    H276778   4.736   0.708  13.331  0.2364  1.1593  1.7092
18455TIP3   OH276779   4.492   2.099   1.005  0.1902  0.3269  0.0765
18455TIP3    H176780   4.501   2.194   1.008 -0.2290  0.3498  3.2993
18455TIP3    H276781   4.420   2.084   0.943 -1.9704  2.3561  1.9159
18456TIP3   OH276782   5.815   6.218  13.099  0.4604  0.1275 -0.7298
18456TIP3    H176783   5.795   6.270  13.021  3.5873 -2.0121 -3.2342
18456TIP3    H276784   5.833   6.283  13.167 -2.0789  2.0924 -1.7642
18457TIP3   OH276785   4.822   5.673  11.948  0.7232  0.2748  0.5858
18457TIP3    H176786   4.741   5.653  11.900  2.5662  0.2309 -2.7865
18457TIP3    H276787   4.826   5.606  12.016 -0.6425 -1.6705 -1.0934
18458TIP3   OH276788   5.370   4.069  10.997  0.6180  1.1157  0.0617
18458TIP3    H176789   5.282   4.073  11.034  0.5924  1.7761 -0.0560
18458TIP3    H276790   5.423   4.027  11.065 -0.5726 -3.3051 -1.4507
18459TIP3   OH276791   1.797   5.175   4.704 -0.4508  0.6821  0.1832
18459TIP3    H176792   1.891   5.186   4.722  0.0648  1.3290 -2.4405
18459TIP3    H276793   1.794   5.117   4.629 -2.3359 -1.2315  1.6304
18460TIP3   OH276794   5.556   0.545  11.685 -0.0092  0.0534 -0.4022
18460TIP3    H176795   5.478   0.598  11.668 -0.6319 -0.9860 -0.8416
18460TIP3    H276796   5.602   0.593  11.754 -1.3439  0.3834  0.2930
18461TIP3   OH276797   0.479   4.209  13.816  0.0151 -0.1055  0.0281
18461TIP3    H176798   0.560   4.251  13.844 -0.7699  0.7708  1.0593
18461TIP3    H276799   0.502   4.117  13.804  1.1711  0.1479  0.2171
18462TIP3   OH276800   0.739   3.426   6.076  0.4653 -0.2007 -0.0966
18462TIP3    H176801   0.786   3.463   6.150 -2.4382  1.5004  1.0506
18462TIP3    H276802   0.741   3.495   6.009  2.1822 -1.3349 -1.3180
18463TIP3   OH276803   1.775   3.181  12.426 -0.4359 -0.1312  0.2652
18463TIP3    H176804   1.750   3.147  12.512 -1.3566  1.3878  0.6316
18463TIP3    H276805   1.695   3.219  12.391  0.4310  1.2352 -0.3175
18464TIP3   OH276806   2.462   4.448  15.438  0.1198 -0.7733 -0.1153
18464TIP3    H176807   2.378   4.463  15.482 -0.4753 -0.0672 -1.4131
18464TIP3    H276808   2.527   4.487  15.497 -0.5189 -0.8502  0.6594
18465TIP3   OH276809   4.342   0.969  13.776  0.2670 -0.2707 -0.0323
18465TIP3    H176810   4.393   1.034  13.728 -1.2676  0.4004 -0.8483
18465TIP3    H276811   4.257   0.968  13.731 -0.5312 -1.1321  1.4244
18466TIP3   OH276812   6.129   4.161  16.281 -0.6208  0.1504 -0.1109
18466TIP3    H176813   6.171   4.186  16.363 -1.3391 -2.7238  1.2535
18466TIP3    H276814   6.047   4.210  16.280 -0.1779  0.9135  0.3974
18467TIP3   OH276815   2.935   5.834  14.035 -0.7535  0.3458 -0.2686
18467TIP3    H176816   2.895   5.765  14.087 -1.1176  0.9771  0.3039
18467TIP3    H276817   2.975   5.893  14.100 -1.1619  1.1092 -0.6953
18468TIP3   OH276818   1.593   1.675   3.742 -0.4805  0.1817  0.0248
18468TIP3    H176819   1.687   1.687   3.726 -0.4297 -0.5836 -0.3005
18468TIP3    H276820   1.564   1.619   3.670 -1.2709  0.7267 -0.0875
18469TIP3   OH276821   5.970   5.876   0.163 -0.2709 -0.1201 -0.0057
18469TIP3    H176822   5.955   5.860   0.070 -0.8702 -1.2857  0.2781
18469TIP3    H276823   5.887   5.910   0.195 -0.7116 -1.6114  0.4950
18470TIP3   OH276824   0.972   5.163   0.885 -0.6335 -0.0144 -0.2565
18470TIP3    H176825   0.962   5.088   0.943  0.6525 -1.7275 -2.1381
18470TIP3    H276826   1.059   5.197   0.904 -1.1811  1.0104  0.5335
18471TIP3   OH276827   1.844   5.261  13.741  0.4936  0.3099  0.1045
18471TIP3    H176828   1.907   5.293  13.805 -1.1196 -0.2759  2.1096
18471TIP3    H276829   1.851   5.166  13.745  1.2802  0.2469 -1.6277
18472TIP3   OH276830   5.416   6.436   0.906  0.7249  0.2536 -0.3037
18472TIP3    H176831   5.465   6.434   0.824 -0.4939  0.4622 -1.0515
18472TIP3    H276832   5.369   6.519   0.905  1.2071  0.5764  0.9360
18473TIP3   OH276833   3.827   6.097   0.216  1.0432  0.1399  0.1604
18473TIP3    H176834   3.913   6.057   0.228  1.1265  0.6921  1.5084
18473TIP3    H276835   3.812   6.148   0.295 -0.1081  0.8525 -0.4810
18474TIP3   OH276836   4.624   1.520   2.443 -0.3671  0.6477 -0.2402
18474TIP3    H176837   4.646   1.505   2.534  2.5907  2.0189 -0.6205
18474TIP3    H276838   4.555   1.587   2.445  0.0507  1.0525  0.9666
18475TIP3   OH276839   0.148   1.471   3.929  0.2661 -0.3687  0.8590
18475TIP3    H176840   0.123   1.404   3.866 -0.3675  1.4174 -0.9198
18475TIP3    H276841   0.243   1.478   3.919  0.2103 -0.3244  0.3140
18476TIP3   OH276842   3.547   2.760   2.275  0.6486  0.0255 -0.3411
18476TIP3    H176843   3.559   2.689   2.211  0.6843  0.3451 -0.6937
18476TIP3    H276844   3.463   2.741   2.316  0.4238  0.0474 -0.7818
18477TIP3   OH276845   6.058   1.663  11.922  0.0096 -0.5487  0.1741
18477TIP3    H176846   6.076   1.687  12.013 -1.3117 -1.8330  0.8100
18477TIP3    H276847   5.964   1.644  11.921  0.1890 -1.4581 -1.2428
18478TIP3   OH276848   3.189   5.408   1.780 -0.4727  0.9627 -0.1895
18478TIP3    H176849   3.274   5.421   1.738 -0.9164  0.0501 -1.4238
18478TIP3    H276850   3.199   5.328   1.830 -1.3853 -0.7979 -2.6367
18479TIP3   OH276851   4.408   5.118   2.343 -0.0475 -0.2470 -0.1473
18479TIP3    H176852   4.433   5.026   2.338  1.6851  0.1951 -0.1642
18479TIP3    H276853   4.429   5.153   2.256  0.9249  0.5269  0.3851
18480TIP3   OH276854   4.702   3.931  11.175 -0.0782  0.3420  0.0434
18480TIP3    H176855   4.779   3.921  11.231  1.1119  0.5336 -1.5182
18480TIP3    H276856   4.688   3.843  11.139  0.9062  0.8070 -1.5481
18481TIP3   OH276857   3.211   1.424  14.848 -0.1073 -0.2375  0.3012
18481TIP3    H176858   3.299   1.461  14.847  0.3573 -1.1218  2.3994
18481TIP3    H276859   3.224   1.329  14.857 -1.2917 -0.6542 -1.7113
18482TIP3   OH276860   1.030   1.895   3.015 -0.2779 -0.2869 -0.2589
18482TIP3    H176861   1.095   1.846   3.066 -1.0921 -3.0896 -1.6907
18482TIP3    H276862   0.952   1.839   3.017 -2.3760  2.4574  0.5116
18483TIP3   OH276863   0.087   1.088  12.376  0.0629 -0.2295 -0.7849
18483TIP3    H176864   0.005   1.045  12.398  0.2237  0.1675  0.7160
18483TIP3    H276865   0.152   1.045  12.432  0.6674  0.2728 -1.0845
18484TIP3   OH276866   1.550   1.650  17.142 -0.3634 -0.0777  0.3659
18484TIP3    H176867   1.497   1.722  17.108  0.3541 -0.2649 -1.2341
18484TIP3    H276868   1.566   1.673  17.233 -0.0488  1.8435 -0.1338
18485TIP3   OH276869   4.864   3.036  17.051 -0.0025  0.2957  1.0758
18485TIP3    H176870   4.853   3.033  16.956  1.9025 -0.5888  0.8430
18485TIP3    H276871   4.802   3.103  17.080  1.0051  2.2738 -1.0475
18486TIP3   OH276872   5.091   1.036  12.544  0.0120 -0.4973 -0.1802
18486TIP3    H176873   5.118   1.127  12.542 -1.4482 -0.0392 -0.6084
18486TIP3    H276874   5.034   1.029  12.621  1.4278 -1.4873  0.8486
18487TIP3   OH276875   3.120   0.030   0.920  0.1186  0.3503 -0.3050
18487TIP3    H176876   3.132   0.006   0.828  1.5272  0.6501 -0.2295
18487TIP3    H276877   3.035   0.074   0.922 -0.7436 -1.1911 -1.1217
18488TIP3   OH276878   5.775   6.131   4.081  0.2389  0.2445 -0.0686
18488TIP3    H176879   5.762   6.213   4.034  0.2980 -0.3353 -1.1447
18488TIP3    H276880   5.730   6.066   4.028  3.5331 -1.0910 -1.5136
18489TIP3   OH276881   1.287   3.831  13.428  0.0085 -0.0735 -0.6985
18489TIP3    H176882   1.288   3.844  13.522 -0.4567 -1.4374 -0.4898
18489TIP3    H276883   1.370   3.788  13.408 -1.2565 -2.8409 -0.3973
18490TIP3   OH276884   2.030   5.686  13.815  0.0067  0.2803 -0.5347
18490TIP3    H176885   1.947   5.728  13.792 -0.8079 -0.7274  0.4535
18490TIP3    H276886   2.079   5.754  13.862 -0.0660  1.0084 -1.4821
18491TIP3   OH276887   3.533   6.435  13.403  0.0292  0.3140 -0.4431
18491TIP3    H176888   3.438   6.438  13.414 -0.0494 -1.1469 -0.5603
18491TIP3    H276889   3.568   6.459  13.489 -0.4230  0.9835 -0.4321
18492TIP3   OH276890   6.474   5.105  16.601 -0.3355  0.1914 -0.3083
18492TIP3    H176891   6.416   5.052  16.547 -1.5481 -0.7977  1.8755
18492TIP3    H276892   6.415   5.160  16.653  0.7980  1.1012  0.0589
18493TIP3   OH276893   4.174   4.802   4.281  0.7565  0.3199 -0.4153
18493TIP3    H176894   4.206   4.723   4.325 -3.0011 -0.3368  1.5311
18493TIP3    H276895   4.178   4.870   4.348  0.1906  0.7391 -0.8016
18494TIP3   OH276896   0.908   0.522   4.213 -0.4246  0.2048 -0.4310
18494TIP3    H176897   0.951   0.491   4.293 -0.1259  2.2844  0.2841
18494TIP3    H276898   0.962   0.595   4.183 -2.3357  1.6300 -0.6134
18495TIP3   OH276899   2.297   0.461   5.254  0.1459 -0.0359 -0.6769
18495TIP3    H176900   2.317   0.546   5.292  1.9564 -0.2701 -1.0158
18495TIP3    H276901   2.218   0.432   5.300  1.8365 -0.0196  2.5520
18496TIP3   OH276902   5.098   2.353   5.129 -0.0057 -0.3051  0.0638
18496TIP3    H176903   5.091   2.414   5.056 -0.5547 -2.3692 -1.7407
18496TIP3    H276904   5.009   2.347   5.163  0.5518  1.9501  2.1252
18497TIP3   OH276905   4.074   0.071  14.752 -0.3174 -0.0908  0.3584
18497TIP3    H176906   3.985   0.105  14.761 -0.9391 -1.8501  1.4888
18497TIP3    H276907   4.129   0.149  14.747 -1.7487  1.0826  1.6831
18498TIP3   OH276908   5.168   3.817  15.696  0.2893  0.0284 -0.5251
18498TIP3    H176909   5.251   3.857  15.719  1.6133 -2.2080 -1.1437
18498TIP3    H276910   5.122   3.809  15.780  1.5333 -0.4481  0.1404
18499TIP3   OH276911   4.619   5.181  11.275  0.4096 -0.1802 -0.0079
18499TIP3    H176912   4.547   5.211  11.219  0.1258 -1.4251 -0.3369
18499TIP3    H276913   4.671   5.123  11.219  1.5602  0.5359  0.2871
18500TIP3   OH276914   2.986   3.430   5.292 -0.0860  0.2882  0.2439
18500TIP3    H176915   3.079   3.453   5.296 -0.5604  2.5337 -0.1894
18500TIP3    H276916   2.948   3.494   5.232 -1.8053 -1.0602 -0.2062
18501TIP3   OH276917   5.348   2.514   2.549  0.5415  0.1582 -0.0376
18501TIP3    H176918   5.260   2.525   2.583  1.4297  0.4795  2.3528
18501TIP3    H276919   5.402   2.496   2.627  2.6818  0.5762 -1.3383
18502TIP3   OH276920   4.869   3.549   2.101  0.0508  0.1059  0.3053
18502TIP3    H176921   4.810   3.513   2.035  1.0935  1.1062 -1.2126
18502TIP3    H276922   4.827   3.527   2.185 -1.1978 -1.3494 -0.6613
18503TIP3   OH276923   5.609   0.919  15.760 -0.1706 -0.2205 -0.3751
18503TIP3    H176924   5.594   0.848  15.822 -0.8534 -1.5586 -1.9935
18503TIP3    H276925   5.551   0.899  15.687  0.6137  1.2952 -1.4608
18504TIP3   OH276926   4.582   6.327  17.254 -0.3430  0.3164 -0.0690
18504TIP3    H176927   4.656   6.381  17.282 -0.1880  0.1863 -0.2245
18504TIP3    H276928   4.505   6.384  17.265 -0.0991  0.8608 -1.0039
18505TIP3   OH276929   2.228   6.517  12.434 -0.2855 -0.0362  0.5799
18505TIP3    H176930   2.176   6.444  12.401 -1.4779  0.3697  1.4664
18505TIP3    H276931   2.280   6.546  12.359 -1.7312 -0.1359 -0.5037
18506TIP3   OH276932   5.142   5.086   5.706 -0.2932  0.8155 -0.1507
18506TIP3    H176933   5.129   5.167   5.658  1.6761  0.5942 -1.1678
18506TIP3    H276934   5.213   5.106   5.768  0.9882 -0.3653 -1.1578
18507TIP3   OH276935   5.700   2.181  13.576  0.4283 -0.3341 -0.3736
18507TIP3    H176936   5.664   2.138  13.654 -2.1162 -3.0902 -2.7855
18507TIP3    H276937   5.791   2.151  13.572  0.5922 -0.1884  1.4271
18508TIP3   OH276938   0.508   4.383   4.373  0.3178  0.1930  0.0784
18508TIP3    H176939   0.595   4.361   4.339 -0.0549 -1.1700 -0.0594
18508TIP3    H276940   0.524   4.409   4.464  0.9504  0.7332 -0.1724
18509TIP3   OH276941   1.138   0.956  12.790  0.1513 -0.4538 -0.2307
18509TIP3    H176942   1.045   0.954  12.811  0.6096 -0.6876  2.0072
18509TIP3    H276943   1.163   0.864  12.782  0.3347 -0.4191 -0.0726
18510TIP3   OH276944   1.678   3.223  14.776 -0.0657  0.7106  0.5028
18510TIP3    H176945   1.643   3.204  14.863  2.1851 -1.7564  0.9974
18510TIP3    H276946   1.735   3.299  14.790 -1.0843  1.4388  0.7809
18511TIP3   OH276947   1.286   1.382  15.232  0.0731 -0.5231 -0.4225
18511TIP3    H176948   1.227   1.457  15.234  1.1937  0.4333 -1.6471
18511TIP3    H276949   1.227   1.306  15.231 -1.1035  0.3559 -0.2291
18512TIP3   OH276950   5.188   1.484  13.731 -0.4986 -0.3797  0.4025
18512TIP3    H176951   5.266   1.430  13.720 -0.7429 -0.5638 -0.5818
18512TIP3    H276952   5.205   1.562  13.679 -1.4997 -1.0301 -0.9867
18513TIP3   OH276953   5.633   2.985   2.426  0.2358 -0.3207  0.1652
18513TIP3    H176954   5.552   2.961   2.470  0.7980  2.1889  2.9855
18513TIP3    H276955   5.606   3.028   2.345 -1.3024  0.6768  1.1694
18514TIP3   OH276956   6.057   2.285  14.674  0.0309 -0.1467 -0.0417
18514TIP3    H176957   6.134   2.340  14.663  0.7057 -0.5733  2.0693
18514TIP3    H276958   6.091   2.196  14.681 -0.9256 -0.7100 -1.8761
18515TIP3   OH276959   3.339   2.898  13.518  0.3519 -0.2558  0.1550
18515TIP3    H176960   3.363   2.818  13.470 -1.3394 -1.2150  0.8126
18515TIP3    H276961   3.297   2.866  13.598  0.3945  1.3085  0.8368
18516TIP3   OH276962   4.538   1.946  10.663 -0.1745  0.1831  0.7746
18516TIP3    H176963   4.517   1.861  10.701 -2.1190  0.1195 -0.2921
18516TIP3    H276964   4.453   1.989  10.652  0.5131  1.2058 -1.0851
18517TIP3   OH276965   1.341   3.532  12.806 -0.1880  0.1473  0.1481
18517TIP3    H176966   1.276   3.534  12.877  0.9237  0.8323  1.1808
18517TIP3    H276967   1.304   3.590  12.740 -0.8664  0.1329  0.4954
18518TIP3   OH276968   3.997   5.113  12.689  0.2331 -0.2118  0.2751
18518TIP3    H176969   4.021   5.079  12.775  0.7528 -0.2558  0.1174
18518TIP3    H276970   3.902   5.118  12.691  0.2211 -0.5277  0.7332
18519TIP3   OH276971   4.688   1.027   0.703 -0.2495  0.0425  0.5958
18519TIP3    H176972   4.696   0.947   0.651  1.7180 -0.7975  2.0374
18519TIP3    H276973   4.710   0.999   0.792  3.6316  2.6203  0.6926
18520TIP3   OH276974   6.705   4.313  13.691  0.3512  0.2547  0.7112
18520TIP3    H176975   6.663   4.277  13.612 -0.4382  0.0807  1.2040
18520TIP3    H276976   6.658   4.394  13.708  1.3236  0.9289  0.3179
18521TIP3   OH276977   2.419   1.520   3.569 -0.3449 -0.1624  0.5241
18521TIP3    H176978   2.431   1.561   3.483 -2.1600 -3.0839 -1.2940
18521TIP3    H276979   2.507   1.492   3.595  0.2398  0.8254 -0.2907
18522TIP3   OH276980   0.321   0.142  12.023 -0.3123 -0.4524 -0.3434
18522TIP3    H176981   0.343   0.066  11.968  0.9146 -0.3151 -0.0695
18522TIP3    H276982   0.334   0.112  12.112 -0.7837 -0.2094 -0.1915
18523TIP3   OH276983   3.553   0.801  16.689  0.0443 -0.7960  0.3253
18523TIP3    H176984   3.534   0.818  16.597  4.1092 -1.1724 -0.7587
18523TIP3    H276985   3.590   0.883  16.721  1.6283 -1.5978  0.6389
18524TIP3   OH276986   3.007   3.822  14.416 -0.0983 -0.3963 -0.1121
18524TIP3    H176987   2.988   3.849  14.326 -0.2361 -1.5736 -0.4510
18524TIP3    H276988   3.101   3.801  14.415 -0.2983 -1.3571 -0.2560
18525TIP3   OH276989   6.752   5.017   6.229  0.2916  0.4407 -0.0707
18525TIP3    H176990   6.820   4.991   6.168 -0.2203 -0.9851 -0.0753
18525TIP3    H276991   6.764   5.112   6.240  2.3704  0.2022  0.0892
18526TIP3   OH276992   2.014   2.534  10.444  0.4535 -0.2406 -0.1919
18526TIP3    H176993   2.043   2.583  10.521 -1.3134 -0.3104  0.5517
18526TIP3    H276994   2.092   2.485  10.417  1.6381  1.2521  0.3628
18527TIP3   OH276995   4.284   0.483   3.199  0.3977  0.2961  0.1666
18527TIP3    H176996   4.253   0.475   3.108 -0.4693 -2.0895  0.5795
18527TIP3    H276997   4.344   0.409   3.210 -0.6702 -0.3607  1.9394
18528TIP3   OH276998   5.763   0.261  13.851  0.1645  0.3807  0.2655
18528TIP3    H176999   5.842   0.253  13.797 -0.3350  0.9318 -0.5884
18528TIP3    H277000   5.693   0.275  13.787 -0.5487  0.3807  1.0390
18529TIP3   OH277001   1.219   3.600   1.257 -0.3376 -0.9141  0.4089
18529TIP3    H177002   1.128   3.602   1.229 -0.6210  0.5097  1.3474
18529TIP3    H277003   1.234   3.684   1.299  1.3697 -1.1822  0.4408
18530TIP3   OH277004   4.652   5.193   5.051  0.2171 -0.1115 -0.1565
18530TIP3    H177005   4.602   5.267   5.083  0.8149 -0.2194  1.0831
18530TIP3    H277006   4.610   5.170   4.968 -1.7453 -0.1829  0.7991
18531TIP3   OH277007   1.894   4.240   5.408  0.7854  0.5403 -0.2012
18531TIP3    H177008   1.868   4.225   5.317 -1.8850 -1.6389  0.7788
18531TIP3    H277009   1.907   4.335   5.414  2.4683  0.6086 -3.1157
18532TIP3   OH277010   1.480   6.422  14.319  0.0306 -0.9693  0.1614
18532TIP3    H177011   1.492   6.416  14.414  0.3196 -1.9349  0.0789
18532TIP3    H277012   1.546   6.363  14.283  0.6438  0.2056 -0.7024
18533TIP3   OH277013   4.696   5.909  13.858 -0.3816 -0.1103  0.3884
18533TIP3    H177014   4.600   5.911  13.859 -0.3782  1.4081  0.0298
18533TIP3    H277015   4.718   5.832  13.910 -1.7766  0.2191  1.5460
18534TIP3   OH277016   1.084   0.020  14.658  0.2554 -0.5770 -0.0713
18534TIP3    H177017   1.120  -0.059  14.617  0.9630 -0.7111  0.7666
18534TIP3    H277018   1.092   0.088  14.591 -1.2014 -1.4020 -1.1295
18535TIP3   OH277019   0.327   6.668   3.644  0.1848 -0.8042 -0.0939
18535TIP3    H177020   0.413   6.627   3.631  1.0655  0.6620  0.8039
18535TIP3    H277021   0.265   6.603   3.612  1.6596 -1.4793 -1.7909
18536TIP3   OH277022   4.703   0.689   2.049  0.0811 -0.1521  0.1014
18536TIP3    H177023   4.737   0.639   1.975 -0.7443  0.8173 -0.9758
18536TIP3    H277024   4.642   0.630   2.093  2.6933 -1.7659  1.8100
18537TIP3   OH277025   1.761   3.672   4.821  0.1604 -0.5681  0.1959
18537TIP3    H177026   1.823   3.739   4.792 -0.2733  0.3709  1.3072
18537TIP3    H277027   1.763   3.605   4.753 -0.0515  1.0008 -1.4307
18538TIP3   OH277028   3.980   3.061  14.171 -0.1945  0.3833  0.5889
18538TIP3    H177029   3.949   3.146  14.141  0.1954 -0.0207 -1.0751
18538TIP3    H277030   4.043   3.033  14.104 -1.0853 -1.6747  0.5174
18539TIP3   OH277031   4.594   0.882   4.328  0.5761  0.1459  0.3123
18539TIP3    H177032   4.567   0.970   4.352  2.4129  0.8016  0.0818
18539TIP3    H277033   4.677   0.869   4.373  1.9411 -0.2433 -2.1687
18540TIP3   OH277034   0.063   4.102  14.450  0.4240  0.5231 -0.6117
18540TIP3    H177035   0.017   4.078  14.531  3.1123 -2.3065  0.2754
18540TIP3    H277036  -0.006   4.105  14.384 -1.5748  0.7848  1.3585
18541TIP3   OH277037   2.603   0.520  14.739 -0.1414  0.7962  0.0820
18541TIP3    H177038   2.586   0.426  14.745  0.9707  0.5935  0.2366
18541TIP3    H277039   2.566   0.556  14.820 -0.8630  0.5467 -0.1303
18542TIP3   OH277040   6.507   3.887   1.674 -0.3886 -0.6435  0.8746
18542TIP3    H177041   6.423   3.885   1.629 -0.0963  0.2917  0.2410
18542TIP3    H277042   6.569   3.847   1.613  0.0391  0.7755  0.3287
18543TIP3   OH277043   0.597   0.451  11.873  0.4180 -0.0670 -0.1264
18543TIP3    H177044   0.541   0.528  11.882  0.2611 -0.2663  0.5995
18543TIP3    H277045   0.674   0.483  11.825  0.8436  0.7938  1.1076
18544TIP3   OH277046   3.770   1.609  14.471 -0.0296 -0.2289 -0.3672
18544TIP3    H177047   3.756   1.684  14.529  1.3712  0.3791 -0.7784
18544TIP3    H277048   3.682   1.576  14.454 -0.7567  1.7612 -0.7665
18545TIP3   OH277049   5.704   3.851   4.267  0.3765  0.1619 -0.0662
18545TIP3    H177050   5.676   3.942   4.258  2.0755  0.5901 -1.9411
18545TIP3    H277051   5.765   3.851   4.340 -1.3255  0.0231  1.4081
18546TIP3   OH277052   4.212   5.037   3.052 -0.0997 -0.2682  0.1400
18546TIP3    H177053   4.263   5.027   2.972  0.5908 -2.8494  0.8075
18546TIP3    H277054   4.271   5.010   3.122 -0.8266  1.5141  1.5254
18547TIP3   OH277055   5.869   0.869   5.843  0.4477 -0.0875 -0.3260
18547TIP3    H177056   5.827   0.952   5.865 -0.4030 -0.0839 -1.8612
18547TIP3    H277057   5.947   0.867   5.899 -0.4867  0.8635  1.0754
18548TIP3   OH277058   0.140   2.530   4.851  0.5641  0.0503 -0.4871
18548TIP3    H177059   0.148   2.581   4.931 -0.5186  1.5989 -1.3030
18548TIP3    H277060   0.230   2.508   4.827  0.8490 -1.7441  1.8928
18549TIP3   OH277061   6.678   5.690   1.445 -0.2301  0.5185  0.2911
18549TIP3    H177062   6.744   5.734   1.499  1.6308 -0.3608 -1.1653
18549TIP3    H277063   6.711   5.698   1.356 -2.0133 -0.1624 -0.4601
18550TIP3   OH277064   3.114   1.054   4.855 -0.1028 -0.0963 -0.1564
18550TIP3    H177065   3.075   1.101   4.781  1.6573 -0.0717 -1.1006
18550TIP3    H277066   3.158   0.979   4.816 -1.0679 -1.3782  1.1306
18551TIP3   OH277067   0.853   1.198   5.391  0.2058 -0.2244  0.0342
18551TIP3    H177068   0.846   1.222   5.484 -0.7296 -2.3663  0.5994
18551TIP3    H277069   0.930   1.141   5.387 -0.1405 -0.6692 -0.3600
18552TIP3   OH277070   3.391   1.812   3.072  0.6535  0.9567 -0.1231
18552TIP3    H177071   3.346   1.803   3.156  1.0059 -0.4243 -0.0565
18552TIP3    H277072   3.473   1.858   3.094  1.0344  0.0548  0.4137
18553TIP3   OH277073   2.709   5.735   0.909  0.4629  0.5519 -0.0486
18553TIP3    H177074   2.781   5.682   0.943  0.7967  0.6596 -0.5697
18553TIP3    H277075   2.710   5.815   0.962  0.0874  0.1350  0.6047
18554TIP3   OH277076   0.521   0.199   0.514  0.3564 -0.4448 -0.0903
18554TIP3    H177077   0.518   0.294   0.506 -0.3945 -0.6258 -3.0168
18554TIP3    H277078   0.601   0.173   0.469  2.0994 -1.1390  3.1143
18555TIP3   OH277079   3.475   3.416  11.742 -0.4591 -0.1772 -0.1494
18555TIP3    H177080   3.413   3.482  11.711 -0.0673 -0.5149 -1.7752
18555TIP3    H277081   3.428   3.333  11.736 -0.2211 -0.3040 -0.3119
18556TIP3   OH277082   4.829   0.829  12.158  0.0195 -0.3510 -0.1803
18556TIP3    H177083   4.766   0.842  12.087  0.3741 -2.2100 -0.8884
18556TIP3    H277084   4.824   0.910  12.210 -0.3137  1.0283 -2.2400
18557TIP3   OH277085   5.270   4.735  13.096  0.5886 -0.1207 -0.5583
18557TIP3    H177086   5.187   4.742  13.144  1.2928 -0.1107  0.6964
18557TIP3    H277087   5.244   4.707  13.008 -0.7690  0.1755 -0.2781
18558TIP3   OH277088   5.036   6.107   2.212  0.0166 -0.1602 -0.1777
18558TIP3    H177089   5.090   6.187   2.216  0.7221 -0.5634 -1.2545
18558TIP3    H277090   5.061   6.058   2.291 -0.6123  0.7727  0.6336
18559TIP3   OH277091   0.838   0.423  16.531  0.5003 -0.0735 -0.4814
18559TIP3    H177092   0.887   0.458  16.605 -0.6711  1.1106 -0.2426
18559TIP3    H277093   0.846   0.489  16.462  0.6038 -0.6271 -1.0143
18560TIP3   OH277094   6.640   3.090  17.195 -0.1519  0.3838 -0.3158
18560TIP3    H177095   6.667   3.181  17.185 -0.1058  0.2744 -1.2749
18560TIP3    H277096   6.583   3.090  17.272 -2.0109  1.6616 -1.5923
18561TIP3   OH277097   4.939   2.422   4.168  0.0176  0.2208  0.5650
18561TIP3    H177098   4.965   2.491   4.107 -0.1937 -0.2090 -0.0261
18561TIP3    H277099   5.022   2.379   4.191 -0.0079 -0.3792 -0.3780
18562TIP3   OH277100   0.620   0.974   1.086 -0.1013 -0.7933 -0.1202
18562TIP3    H177101   0.701   1.026   1.087 -1.4090  1.4045 -0.6033
18562TIP3    H277102   0.553   1.036   1.057 -2.0846 -2.3746  0.8742
18563TIP3   OH277103   1.698   2.493   3.292  0.3140  0.9033 -0.4562
18563TIP3    H177104   1.629   2.476   3.356 -0.5296 -1.9966 -1.9363
18563TIP3    H277105   1.665   2.453   3.211  3.6340 -0.4682 -1.2671
18564TIP3   OH277106   0.253   0.189  16.723 -0.5418 -1.3436  0.0328
18564TIP3    H177107   0.320   0.249  16.758 -2.1924  0.3383  0.4674
18564TIP3    H277108   0.285   0.168  16.635  1.5130 -2.1755  0.9037
18565TIP3   OH277109   1.171   6.207   4.665  0.3164 -0.0094 -0.4921
18565TIP3    H177110   1.094   6.212   4.609 -0.4966  0.5987  0.6400
18565TIP3    H277111   1.138   6.169   4.747  1.0471  1.0065  0.2836
18566TIP3   OH277112   0.140   3.008   0.757  0.6615 -0.2735  0.2585
18566TIP3    H177113   0.183   3.001   0.672 -0.4137  1.1352 -0.4369
18566TIP3    H277114   0.080   2.933   0.760  0.3855 -0.0910 -0.4370
18567TIP3   OH277115   6.269   0.796   0.144  0.4983  0.2776  0.3700
18567TIP3    H177116   6.225   0.858   0.203  0.7741  0.0858  0.7812
18567TIP3    H277117   6.282   0.718   0.197 -2.4060 -1.2303 -0.9405
18568TIP3   OH277118   0.163   4.795   1.543  0.4201 -0.4616  0.1704
18568TIP3    H177119   0.109   4.769   1.468 -0.3717 -2.0044  1.2007
18568TIP3    H277120   0.122   4.875   1.575  0.6498  0.1067 -0.9189
18569TIP3   OH277121   1.632   3.013   3.948 -0.1390 -0.2403  0.0073
18569TIP3    H177122   1.712   3.015   4.000  0.0555 -0.0131 -0.2962
18569TIP3    H277123   1.650   3.072   3.875 -0.3914 -0.5983 -0.3432
18570TIP3   OH277124   4.689   2.019  13.978  0.4079  0.0515  0.1654
18570TIP3    H177125   4.713   2.013  14.071 -2.1083  1.4725  1.0063
18570TIP3    H277126   4.593   2.025  13.978  0.2918 -0.4214 -2.5801
18571TIP3   OH277127   5.944   4.534   0.410 -0.5699 -0.1572 -0.6782
18571TIP3    H177128   6.016   4.545   0.348 -0.2927  0.4223 -0.2529
18571TIP3    H277129   5.910   4.622   0.425  1.5712  0.2603  2.6250
18572TIP3   OH277130   0.066   1.354  11.858 -0.7205 -0.0985 -0.2596
18572TIP3    H177131   0.130   1.286  11.833  0.7284  1.3995 -0.8060
18572TIP3    H277132  -0.004   1.346  11.793 -0.5040 -0.9730 -0.4000
18573TIP3   OH277133   2.654   1.250  13.676 -0.2731  0.1858 -0.2818
18573TIP3    H177134   2.696   1.314  13.618  0.2399 -0.5951 -0.8061
18573TIP3    H277135   2.605   1.193  13.617 -0.7580  0.1182  0.1815
18574TIP3   OH277136   4.474   5.702   5.098  0.5240 -0.3603  0.3376
18574TIP3    H177137   4.566   5.696   5.072  0.3071  1.3479 -0.9560
18574TIP3    H277138   4.431   5.632   5.049  0.6374  0.9060 -1.7043
18575TIP3   OH277139   0.919   0.463   1.460 -0.2353  0.0685 -0.5393
18575TIP3    H177140   1.008   0.435   1.482  0.1700  0.0116 -2.1826
18575TIP3    H277141   0.876   0.383   1.428 -0.9802  0.0378  0.4834
18576TIP3   OH277142   3.034   0.358   1.810 -0.3805  0.1333  0.5235
18576TIP3    H177143   3.099   0.408   1.859 -1.1013  0.6717  0.9541
18576TIP3    H277144   2.988   0.423   1.757  0.5921 -0.4815 -1.1398
18577TIP3   OH277145   4.540   3.155   5.666  0.0652  0.1381  0.2246
18577TIP3    H177146   4.469   3.108   5.710  0.8196 -0.3141  0.9917
18577TIP3    H277147   4.588   3.088   5.619  1.2098  0.0860  1.4099
18578TIP3   OH277148   1.250   0.953   2.304  0.0049 -0.1647 -0.6332
18578TIP3    H177149   1.306   0.933   2.379  0.1967  1.5749 -0.2483
18578TIP3    H277150   1.268   1.046   2.286 -1.2282 -0.1319 -1.8152
18579TIP3   OH277151   5.062   2.777   4.735  0.3640 -0.0686 -0.2759
18579TIP3    H177152   5.100   2.690   4.719  0.8515  0.2730 -1.0519
18579TIP3    H277153   5.090   2.829   4.660  0.2539  0.8202  0.2855
18580TIP3   OH277154   5.844   2.659  15.260  0.1399 -0.1935 -0.5586
18580TIP3    H177155   5.796   2.636  15.339  0.1917  1.5916  0.0432
18580TIP3    H277156   5.826   2.588  15.199 -0.4320 -1.2769  0.8339
18581TIP3   OH277157   2.261   3.343  11.048  0.2905  0.5164 -0.7600
18581TIP3    H177158   2.195   3.286  11.089  0.6760  0.5453 -0.0927
18581TIP3    H277159   2.212   3.390  10.980 -0.5642  1.1394  0.2653
18582TIP3   OH277160   5.623   0.042   6.691 -0.4169  0.4467  0.3743
18582TIP3    H177161   5.565   0.116   6.672  0.9240  1.6761  0.9720
18582TIP3    H277162   5.669   0.026   6.609  0.5934  1.4774  0.7140
18583TIP3   OH277163   4.774   0.768   2.302  0.1666 -0.0548 -0.2156
18583TIP3    H177164   4.688   0.765   2.345 -0.4949  0.5486 -1.4350
18583TIP3    H277165   4.758   0.731   2.215  1.4505 -1.1606 -0.0090
18584TIP3   OH277166   4.637   3.719   1.613  0.2393 -0.5199 -0.3867
18584TIP3    H177167   4.545   3.736   1.590  0.3678 -0.1322 -0.6164
18584TIP3    H277168   4.675   3.805   1.625  0.8079 -0.6445 -1.2107
18585TIP3   OH277169   0.721   6.067   4.858 -0.1367 -0.3781 -0.6978
18585TIP3    H177170   0.632   6.032   4.850 -1.2001  0.7701  3.6018
18585TIP3    H277171   0.777   5.989   4.861 -1.6978 -1.5396  1.7620
18586TIP3   OH277172   6.123   1.884   1.450  0.7379 -0.3285 -0.7891
18586TIP3    H177173   6.197   1.936   1.479  0.4224 -0.2253 -0.1520
18586TIP3    H277174   6.047   1.921   1.496  0.4286 -0.9837 -0.7493
18587TIP3   OH277175   3.956   2.701  15.977  0.2758  0.3625 -0.3017
18587TIP3    H177176   3.964   2.634  15.909  1.2142  0.2718 -0.1219
18587TIP3    H277177   3.892   2.666  16.039  0.3461 -0.1218 -0.4990
18588TIP3   OH277178   3.652   1.282   6.544 -0.2995 -0.7118 -0.5968
18588TIP3    H177179   3.574   1.335   6.528  0.2353  0.5564  0.8006
18588TIP3    H277180   3.617   1.199   6.578 -1.0668  0.5216  1.8921
18589TIP3   OH277181   1.927   2.195   2.233  0.0439 -0.2021  0.5325
18589TIP3    H177182   2.014   2.162   2.211  0.5940  1.8215 -0.5864
18589TIP3    H277183   1.914   2.270   2.174 -2.8079 -0.9304  0.0874
18590TIP3   OH277184   5.952   5.068  11.986  0.0164  0.1964  0.5039
18590TIP3    H177185   5.899   5.000  11.945 -0.5433  1.6625 -1.3685
18590TIP3    H277186   5.892   5.113  12.046 -0.0821  0.0907  0.4833
18591TIP3   OH277187   2.963   2.077   5.755 -0.1529 -0.4696 -0.4313
18591TIP3    H177188   2.965   2.010   5.687 -1.4495  0.0162 -0.9959
18591TIP3    H277189   2.973   2.029   5.837  0.4635 -1.1720 -0.9088
18592TIP3   OH277190   2.083   2.124   4.013  0.8754 -0.1854  0.4727
18592TIP3    H177191   2.004   2.103   3.963  0.4219  1.1132  0.6333
18592TIP3    H277192   2.097   2.217   3.999  3.0664 -0.5926 -0.5263
18593TIP3   OH277193   2.867   0.783   1.988 -0.3432  0.6510  0.0971
18593TIP3    H177194   2.958   0.809   1.976  0.6338 -2.0741  0.9906
18593TIP3    H277195   2.863   0.748   2.077 -1.6831 -1.3516 -0.6732
18594TIP3   OH277196   6.601   4.211   3.778 -0.5504 -0.4989  0.1025
18594TIP3    H177197   6.583   4.162   3.698  1.1840  0.2946 -0.8318
18594TIP3    H277198   6.562   4.297   3.763  1.3267  0.2661 -0.7247
18595TIP3   OH277199   0.786   5.650   6.789 -0.4757  0.1224  0.0104
18595TIP3    H177200   0.849   5.602   6.845  0.4952  1.8032  0.4309
18595TIP3    H277201   0.727   5.582   6.756 -0.1303 -1.1520  1.8399
18596TIP3   OH277202   1.507   4.075  11.447  0.2042  0.0403 -1.0710
18596TIP3    H177203   1.584   4.118  11.410  0.3630 -0.9916 -2.0363
18596TIP3    H277204   1.435   4.136  11.432  0.4182 -0.0015 -2.4210
18597TIP3   OH277205   3.999   0.826   1.338 -0.0132 -0.0562 -0.7355
18597TIP3    H177206   3.914   0.835   1.380  1.1625  0.3836  1.7055
18597TIP3    H277207   3.979   0.804   1.247 -2.7067  0.2363 -0.2739
18598TIP3   OH277208   3.617   6.753  17.060  0.1223 -0.2867  0.6826
18598TIP3    H177209   3.697   6.725  17.014 -0.1947 -0.5013  0.2578
18598TIP3    H277210   3.610   6.694  17.135  0.3630 -0.2664  0.7224
18599TIP3   OH277211   4.049   1.707   5.162 -0.5571  0.1851 -0.7706
18599TIP3    H177212   3.980   1.683   5.224 -0.2924  1.1206 -0.0892
18599TIP3    H277213   4.130   1.703   5.213 -0.0324 -1.1982 -1.6368
18600TIP3   OH277214   3.214   1.428   0.450 -0.0905 -0.2202  0.1564
18600TIP3    H177215   3.287   1.470   0.406 -0.8736  1.2075  0.1725
18600TIP3    H277216   3.185   1.360   0.388  0.0307  0.4896 -0.6906
18601TIP3   OH277217   4.992   5.198  11.156 -0.1313 -0.0996  0.0296
18601TIP3    H177218   4.962   5.287  11.171  0.6661  0.0413  0.8714
18601TIP3    H277219   4.911   5.146  11.150 -0.5864  0.6042 -0.0352
18602TIP3   OH277220   4.597   4.964   2.890 -0.4326  0.0315  0.8136
18602TIP3    H177221   4.666   5.011   2.937  0.2389 -0.1491  0.0135
18602TIP3    H277222   4.639   4.933   2.810 -1.4704  0.0048  0.2676
18603TIP3   OH277223   1.852   2.969   2.078 -0.5210 -0.1872  0.0784
18603TIP3    H177224   1.832   2.953   1.986 -0.4412  0.7215 -0.1069
18603TIP3    H277225   1.804   3.049   2.100  0.3773  0.2486  0.5019
18604TIP3   OH277226   1.082   3.968  13.281  0.1172 -0.1670 -0.2960
18604TIP3    H177227   1.131   3.950  13.361 -1.6936 -0.4900  0.7971
18604TIP3    H277228   1.088   4.063  13.270 -1.3417  0.1849  1.4634
18605TIP3   OH277229   5.705   2.903  13.535  0.0639 -0.1268 -0.4736
18605TIP3    H177230   5.679   2.849  13.610 -0.0914  0.2242 -0.2685
18605TIP3    H277231   5.792   2.937  13.559 -0.4606  0.9012  0.0694
18606TIP3   OH277232   0.764   1.858   0.153  0.2213  0.1768  0.1074
18606TIP3    H177233   0.725   1.866   0.240  0.3040 -0.4162  0.2001
18606TIP3    H277234   0.693   1.880   0.093  0.0051  0.0230  0.3073
18607TIP3   OH277235   5.133   1.024   4.644  0.0092  0.1947  0.7242
18607TIP3    H177236   5.218   1.030   4.688  0.2390  0.7381  0.2035
18607TIP3    H277237   5.130   0.935   4.609  1.1870  0.7682 -0.9185
18608TIP3   OH277238   1.384   4.159   6.562  0.3332  0.0536 -0.5269
18608TIP3    H177239   1.463   4.112   6.591 -0.2079 -0.5894 -0.0564
18608TIP3    H277240   1.385   4.240   6.613  0.8186  0.1691 -0.7099
18609TIP3   OH277241   5.830   1.735   4.428  0.1878 -0.5679  0.1179
18609TIP3    H177242   5.909   1.761   4.476 -0.8104  0.2711  1.3776
18609TIP3    H277243   5.759   1.781   4.473 -0.9924 -1.0698 -1.1699
18610TIP3   OH277244   2.477   4.061  15.886  0.2590 -1.1692  0.2864
18610TIP3    H177245   2.463   4.131  15.822  0.4549 -2.6799 -1.5082
18610TIP3    H277246   2.458   4.102  15.970  0.6417  1.1053 -0.6471
18611TIP3   OH277247   4.975   4.921  13.075  0.0053 -0.4741  0.6596
18611TIP3    H177248   5.029   4.919  12.996  0.2175 -0.8751  0.8130
18611TIP3    H277249   4.962   4.829  13.098 -0.2607 -0.3667  0.9556
18612TIP3   OH277250   0.554   5.019   1.885  0.2155 -0.0420 -0.1625
18612TIP3    H177251   0.637   5.047   1.846 -0.4505  2.5963  0.1081
18612TIP3    H277252   0.515   4.961   1.819  1.1806  0.6413 -1.3813
18613TIP3   OH277253   1.400   6.203   6.013 -0.2661  0.3572  0.5360
18613TIP3    H177254   1.469   6.154   5.968 -1.2555  0.6168 -1.3771
18613TIP3    H277255   1.434   6.292   6.021  0.3215  0.0809  1.2765
18614TIP3   OH277256   5.434   0.551   6.170 -0.2583  0.1944 -0.1946
18614TIP3    H177257   5.519   0.593   6.155  0.5554 -1.4892 -0.5796
18614TIP3    H277258   5.447   0.501   6.251  0.2080 -2.5815 -1.8437
18615TIP3   OH277259   4.109   1.650   0.072 -0.2839  0.2773 -0.6315
18615TIP3    H177260   4.190   1.633   0.120 -1.4912 -2.1529  0.7210
18615TIP3    H277261   4.137   1.697  -0.007  2.4273 -0.5174 -0.2331
18616TIP3   OH277262   2.363   1.758   3.420 -0.0656 -0.0593  0.6617
18616TIP3    H177263   2.375   1.759   3.325  0.8711  0.3765  0.7727
18616TIP3    H277264   2.447   1.787   3.455 -1.0246  1.8186  1.5756
18617TIP3   OH277265   0.857   1.158  17.247 -0.1461  0.2646  0.2948
18617TIP3    H177266   0.950   1.173  17.265 -0.5137  2.0782  0.9330
18617TIP3    H277267   0.826   1.108  17.323  0.5319 -1.4751 -0.5206
18618TIP3   OH277268   1.633   3.768   4.426 -0.0725  0.2710  0.0387
18618TIP3    H177269   1.558   3.806   4.470 -0.1146 -0.2263  0.4109
18618TIP3    H277270   1.651   3.687   4.475  0.3361  0.0873 -0.4047
18619TIP3   OH277271   5.685   4.245  15.762 -0.2471 -0.5332 -0.4155
18619TIP3    H177272   5.666   4.278  15.674 -0.4962 -0.6821 -0.4188
18619TIP3    H277273   5.677   4.321  15.818  0.3221 -0.3526 -0.5775
18620TIP3   OH277274   6.555   1.217  10.387 -0.2601  0.6373  0.2759
18620TIP3    H177275   6.484   1.160  10.415 -0.1132  0.7245  0.8266
18620TIP3    H277276   6.612   1.161  10.334 -1.8159  1.0483 -1.9623
18621TIP3   OH277277   3.942   4.640   6.170 -0.0786  0.4082  0.0624
18621TIP3    H177278   4.024   4.630   6.122 -0.7278 -2.0404 -0.6840
18621TIP3    H277279   3.874   4.644   6.103 -0.7413  0.2935  0.7131
18622TIP3   OH277280   6.771   0.507   3.628  0.1570  0.1488 -0.0443
18622TIP3    H177281   6.692   0.452   3.623  0.2937 -0.0337 -0.2205
18622TIP3    H277282   6.822   0.470   3.700 -0.7387  1.3619  1.2697
18623TIP3   OH277283   5.975   1.465   0.785 -0.1822 -0.0002  0.2897
18623TIP3    H177284   6.039   1.517   0.735  1.3759 -1.1981  0.9617
18623TIP3    H277285   5.987   1.376   0.753 -1.0619 -0.3524  0.9198
18624TIP3   OH277286   2.170   5.424  14.146  0.2674  0.2609 -0.1845
18624TIP3    H177287   2.106   5.390  14.208 -1.7959 -0.8619 -2.7494
18624TIP3    H277288   2.162   5.519  14.153 -0.6084  0.1484  0.5605
18625TIP3   OH277289   5.998   3.371  16.699  0.0616 -0.7516 -0.4217
18625TIP3    H177290   5.946   3.313  16.755 -0.9186 -0.2972 -0.8265
18625TIP3    H277291   5.985   3.337  16.610 -1.5262  0.7505 -0.8281
18626TIP3   OH277292   3.177   4.822   1.168  0.1418  0.1323  0.8277
18626TIP3    H177293   3.228   4.899   1.142 -0.6483  1.3813  2.7432
18626TIP3    H277294   3.087   4.844   1.146 -0.0334 -0.4900  0.8971
18627TIP3   OH277295   4.360   6.473   1.032  0.6587 -0.2323  0.3025
18627TIP3    H177296   4.399   6.486   0.946 -0.7804 -0.9032 -0.4888
18627TIP3    H277297   4.302   6.548   1.044  2.0927  0.7559  1.4673
18628TIP3   OH277298   2.597   1.356  15.348 -0.0127 -0.1791  0.4331
18628TIP3    H177299   2.591   1.260  15.349 -2.3736 -0.0985  0.8137
18628TIP3    H277300   2.633   1.378  15.434  3.1171 -0.7400 -0.6068
18629TIP3   OH277301   2.493   5.513   5.372  0.3246 -0.3376 -0.3217
18629TIP3    H177302   2.459   5.601   5.361 -0.1312 -0.4946 -0.1958
18629TIP3    H277303   2.437   5.458   5.316 -1.3881 -0.9978  1.9014
18630TIP3   OH277304   4.659   0.206   1.133  0.0379  0.7264 -0.4621
18630TIP3    H177305   4.665   0.218   1.038 -1.4301  0.3909 -0.6266
18630TIP3    H277306   4.749   0.205   1.163  0.6530 -1.3685 -2.1512
18631TIP3   OH277307   6.013   1.154  14.085  0.3394  0.5785 -0.7245
18631TIP3    H177308   6.105   1.146  14.061  0.2784  1.7864 -1.4495
18631TIP3    H277309   5.992   1.072  14.130  1.5537 -0.0266 -1.2368
18632TIP3   OH277310   0.120   2.783  10.974  0.1639 -0.4062 -0.0604
18632TIP3    H177311   0.209   2.817  10.958 -0.1769  0.1675 -0.8025
18632TIP3    H277312   0.074   2.856  11.014  0.0356 -0.7255  0.3784
18633TIP3   OH277313   6.038   3.244  12.364  0.1735  0.5460  0.2028
18633TIP3    H177314   5.969   3.211  12.421 -2.8546  2.9679 -1.7222
18633TIP3    H277315   6.081   3.312  12.415 -1.8029  1.9631  0.1165
18634TIP3   OH277316   6.719   5.883   5.743 -0.2687  0.6054 -0.1116
18634TIP3    H177317   6.799   5.876   5.795 -0.1511 -0.4211 -0.3975
18634TIP3    H277318   6.652   5.910   5.806  0.4738  2.4277 -0.0621
18635TIP3   OH277319   2.133   4.705   3.986  0.8030  0.0893  0.1772
18635TIP3    H177320   2.227   4.702   3.969  0.4547 -0.3502 -2.0344
18635TIP3    H277321   2.105   4.613   3.986  0.2621  0.2457 -0.1144
18636TIP3   OH277322   2.403   0.373  13.586 -0.0829 -0.6368 -0.2976
18636TIP3    H177323   2.310   0.385  13.567 -0.2429 -0.9127  0.2671
18636TIP3    H277324   2.449   0.430  13.524 -0.5848 -1.2632 -1.2717
18637TIP3   OH277325   1.518   1.498   1.859  0.2708 -0.2878 -0.3604
18637TIP3    H177326   1.500   1.487   1.765 -1.7178 -1.9061  0.1344
18637TIP3    H277327   1.470   1.578   1.883 -0.6702 -0.8299 -0.4012
18638TIP3   OH277328   1.261   3.925  10.621  0.0579  0.3173 -0.8098
18638TIP3    H177329   1.350   3.891  10.632  0.2802  0.8505 -0.9359
18638TIP3    H277330   1.269   3.994  10.556  0.0145  2.0622  0.9226
18639TIP3   OH277331   1.954   6.156  14.543 -0.3267  0.1143  0.2204
18639TIP3    H177332   1.876   6.187  14.497  0.5451  1.7158 -0.2558
18639TIP3    H277333   2.016   6.133  14.474 -0.2982 -0.9611  0.5915
18640TIP3   OH277334   0.272   3.232   0.020 -0.5007 -0.0555 -0.5372
18640TIP3    H177335   0.293   3.141  -0.001  0.3146  0.0812 -0.3732
18640TIP3    H277336   0.328   3.283  -0.038  0.0790  0.3237  0.3214
18641TIP3   OH277337   5.056   1.709   1.791 -0.1915  0.5702  0.1754
18641TIP3    H177338   5.084   1.654   1.718 -1.9291 -1.1038  0.6790
18641TIP3    H277339   5.134   1.721   1.844  0.1537 -2.0306  0.3798
18642TIP3   OH277340   2.956   2.249  15.648  0.6061 -0.6560 -0.4807
18642TIP3    H177341   3.028   2.186  15.657  0.7221 -0.3431  1.0262
18642TIP3    H277342   2.888   2.217  15.707 -0.0944 -0.3923 -1.1272
18643TIP3   OH277343   5.178   5.228   3.392 -0.6016  0.2318 -0.2812
18643TIP3    H177344   5.272   5.234   3.373  0.0550  1.1658  2.6323
18643TIP3    H277345   5.154   5.140   3.364  1.5666 -0.6456  0.3590
18644TIP3   OH277346   3.782   5.302  16.174 -0.1848 -0.0406 -0.2338
18644TIP3    H177347   3.708   5.359  16.195 -0.5421 -0.6406  0.1674
18644TIP3    H277348   3.770   5.226  16.231  1.3967  0.3790  0.6968
18645TIP3   OH277349   2.315   0.087  13.345  0.0171 -0.2979  0.2297
18645TIP3    H177350   2.332   0.181  13.343 -1.5713  0.0059 -1.4143
18645TIP3    H277351   2.306   0.062  13.253  1.2440 -2.2538  0.5814
18646TIP3   OH277352   4.281   4.199  11.745  0.4940  0.3266 -0.2147
18646TIP3    H177353   4.367   4.209  11.705  1.4054  2.0405  1.9538
18646TIP3    H277354   4.228   4.268  11.706  0.0784 -0.6718 -1.4832
18647TIP3   OH277355   5.820   1.346   4.943  0.1686  0.1018  0.2963
18647TIP3    H177356   5.783   1.357   4.855  1.7627  0.9226 -0.3271
18647TIP3    H277357   5.745   1.337   5.000 -0.9040 -1.7900 -1.3008
18648TIP3   OH277358   1.683   1.502  16.391 -0.1477  0.7633 -0.5068
18648TIP3    H177359   1.664   1.453  16.311 -1.5927 -1.5159  1.1243
18648TIP3    H277360   1.652   1.590  16.373 -2.1676 -0.1433 -1.8605
18649TIP3   OH277361   4.778   3.540   0.523 -0.8721  0.0941  0.1305
18649TIP3    H177362   4.698   3.532   0.576 -1.1287 -1.6462 -0.4501
18649TIP3    H277363   4.747   3.555   0.434 -0.5619 -0.3287 -0.0543
18650TIP3   OH277364   2.996   3.425   4.391 -0.5248 -0.5036 -0.0991
18650TIP3    H177365   2.908   3.391   4.407 -0.9354  0.3923 -0.3584
18650TIP3    H277366   3.004   3.425   4.296 -1.2126  1.6958 -0.2118
18651TIP3   OH277367   2.673   1.694   0.803  0.2920  0.3901  0.5670
18651TIP3    H177368   2.654   1.673   0.712  0.3401  0.6947  0.4877
18651TIP3    H277369   2.758   1.652   0.820 -0.2109 -0.5670  0.7831
18652TIP3   OH277370   3.498   6.682  16.362  0.4514 -0.0820 -0.2541
18652TIP3    H177371   3.467   6.712  16.276 -0.5935  1.8222  0.7090
18652TIP3    H277372   3.552   6.755  16.393  0.1303 -0.3743  1.0308
18653TIP3   OH277373   1.645   6.049   4.993 -0.6122  0.5484 -0.3012
18653TIP3    H177374   1.671   5.962   4.960 -1.6728 -0.2483  0.8889
18653TIP3    H277375   1.563   6.068   4.949 -0.3327  0.9961 -0.6304
18654TIP3   OH277376   6.407   1.126   3.338 -0.0008 -1.0361 -0.0482
18654TIP3    H177377   6.392   1.032   3.326 -0.9086 -1.0765  1.2292
18654TIP3    H277378   6.495   1.131   3.374 -0.7342 -1.6174  1.9974
18655TIP3   OH277379   1.407   3.770   2.059  0.4605  0.1036 -0.0989
18655TIP3    H177380   1.441   3.713   2.128  0.5366  0.3814  0.0956
18655TIP3    H277381   1.315   3.746   2.052  0.2593  0.6245  0.6592
18656TIP3   OH277382   3.737   6.551   3.720 -0.2592  0.1705 -0.3368
18656TIP3    H177383   3.693   6.524   3.801  1.4958 -2.1804 -0.0324
18656TIP3    H277384   3.692   6.502   3.651 -0.6030  0.7732 -0.5391
18657TIP3   OH277385   3.152   6.116   0.713 -0.4473 -0.1086 -0.0819
18657TIP3    H177386   3.075   6.172   0.719 -0.5043 -0.2093  0.1212
18657TIP3    H277387   3.204   6.137   0.790 -0.7972 -0.8247  0.3620
18658TIP3   OH277388   5.744   2.393   3.046  0.3852 -0.1354 -0.6437
18658TIP3    H177389   5.815   2.425   2.990  1.5917 -1.1913  0.2349
18658TIP3    H277390   5.786   2.374   3.130 -1.2510  0.7443  0.4329
18659TIP3   OH277391   3.427   3.598  14.079 -0.0939 -0.2318  0.3096
18659TIP3    H177392   3.338   3.593  14.113 -0.2001 -0.4847  0.0003
18659TIP3    H277393   3.429   3.678  14.026 -0.1000 -0.1562  0.4251
18660TIP3   OH277394   0.458   4.749   1.261  0.2101  0.3792  0.3127
18660TIP3    H177395   0.433   4.833   1.299  0.9014  0.7796 -0.1003
18660TIP3    H277396   0.544   4.764   1.223  0.6090 -0.6883  0.7666
18661TIP3   OH277397   6.625   2.632  12.554  0.3658 -0.0672 -0.3184
18661TIP3    H177398   6.687   2.561  12.541  1.7308  1.3378 -2.0337
18661TIP3    H277399   6.554   2.615  12.492  0.9116  0.2641 -1.0527
18662TIP3   OH277400   5.012   0.440   2.157 -0.1958 -0.1673  0.1988
18662TIP3    H177401   5.099   0.399   2.160 -0.9155 -1.8095 -0.5939
18662TIP3    H277402   5.030   0.528   2.123  1.4285  0.4228  2.3438
18663TIP3   OH277403   5.497   0.204  14.564 -0.2217 -0.1838 -0.3819
18663TIP3    H177404   5.474   0.125  14.515 -0.2367  0.8519 -2.1089
18663TIP3    H277405   5.425   0.215  14.626  1.0064 -2.9268  1.7992
18664TIP3   OH277406   5.625   2.954   0.935  0.8396 -0.5968  0.6074
18664TIP3    H177407   5.692   2.996   0.990  0.0950 -0.8165  1.7045
18664TIP3    H277408   5.620   2.864   0.966 -0.5626 -0.3634  1.1329
18665TIP3   OH277409   6.223   2.192  16.251  0.5067 -0.1266  0.1360
18665TIP3    H177410   6.160   2.248  16.296 -0.5221 -1.9998  1.1511
18665TIP3    H277411   6.289   2.171  16.317  1.4398  0.6387 -0.5145
18666TIP3   OH277412   5.963   5.039  12.260  0.4783 -0.5524  0.4272
18666TIP3    H177413   6.049   5.070  12.290  0.9362 -0.7306 -0.6430
18666TIP3    H277414   5.977   5.016  12.168 -0.7950 -0.3161  0.1591
18667TIP3   OH277415   3.282   6.608  16.549 -0.8231 -0.0094 -0.5108
18667TIP3    H177416   3.357   6.639  16.499 -1.0339 -2.2771 -2.4457
18667TIP3    H277417   3.317   6.536  16.603 -1.1297  0.6792  0.6517
18668TIP3   OH277418   3.770   3.822  11.090 -0.6100  0.4369 -0.1965
18668TIP3    H177419   3.747   3.731  11.073 -1.3785  0.7004 -0.6260
18668TIP3    H277420   3.701   3.872  11.047  0.2868  1.2466 -0.7387
18669TIP3   OH277421   6.644   4.810  15.080 -0.0647  0.1504 -0.2881
18669TIP3    H177422   6.736   4.787  15.089  0.1388  1.1625  0.3720
18669TIP3    H277423   6.615   4.763  15.002  0.5083 -1.6858  0.5435
18670TIP3   OH277424   1.877   3.864  12.770 -0.2141 -0.2906 -0.4652
18670TIP3    H177425   1.784   3.858  12.792 -0.3416 -0.9866 -1.1801
18670TIP3    H277426   1.880   3.922  12.694 -0.3560 -2.3303 -2.1018
18671TIP3   OH277427   2.539   1.548  13.502  0.7658  0.1033  0.3783
18671TIP3    H177428   2.546   1.566  13.408 -2.2632  1.2227  0.2548
18671TIP3    H277429   2.542   1.634  13.543  0.6570 -0.2715  1.1934
18672TIP3   OH277430   5.687   5.217   1.869 -0.1458  0.3559  0.4538
18672TIP3    H177431   5.643   5.164   1.935  0.9854  1.4684  2.1495
18672TIP3    H277432   5.717   5.153   1.804 -1.5442 -0.7236  0.8130
18673TIP3   OH277433   5.858   5.076  15.471 -0.7175 -0.0279 -0.1497
18673TIP3    H177434   5.866   5.126  15.390 -0.0421 -0.2093 -0.2054
18673TIP3    H277435   5.860   4.985  15.443  0.9835 -0.1169  0.1663
18674TIP3   OH277436   6.551   1.398  11.031 -0.2212  0.2188  0.9716
18674TIP3    H177437   6.512   1.470  11.081 -0.4320 -1.9208  4.2349
18674TIP3    H277438   6.590   1.440  10.955 -2.0929  3.4737  1.6018
18675TIP3   OH277439   1.244   2.336  11.513  0.3157 -0.2277  0.0430
18675TIP3    H177440   1.289   2.356  11.595 -0.8147 -0.1028  0.6552
18675TIP3    H277441   1.308   2.286  11.462  1.4084  0.5988  0.5547
18676TIP3   OH277442   3.235   4.646  11.580 -0.8931  0.1772  0.1832
18676TIP3    H177443   3.273   4.633  11.667 -1.7795 -0.2557  0.5179
18676TIP3    H277444   3.173   4.718  11.592  0.1747  1.2488 -0.4792
18677TIP3   OH277445   0.270   6.703   0.204 -0.4411  0.3537  0.2209
18677TIP3    H177446   0.252   6.740   0.291  0.8378  1.4544  0.0532
18677TIP3    H277447   0.238   6.769   0.143 -0.4024  0.0471 -0.1362
18678TIP3   OH277448   5.732   1.720   5.822 -0.1699 -0.1564  0.0884
18678TIP3    H177449   5.685   1.775   5.886  0.8728  0.4427  0.3591
18678TIP3    H277450   5.693   1.744   5.738  1.2122  2.1044  0.0185
18679TIP3   OH277451   4.761   1.096  12.890 -0.0525  0.5569  0.1892
18679TIP3    H177452   4.843   1.129  12.927 -0.6156  0.8923  1.1600
18679TIP3    H277453   4.692   1.141  12.939 -0.8352  0.9037 -1.1588
18680TIP3   OH277454   1.947   1.733   1.297  0.2970  0.4625 -0.2988
18680TIP3    H177455   1.991   1.649   1.307 -1.0787 -0.6239 -2.5453
18680TIP3    H277456   1.969   1.762   1.208 -0.5545  1.6756 -0.1415
18681TIP3   OH277457   1.964   3.648  15.714 -0.3553 -0.0275 -0.5105
18681TIP3    H177458   1.925   3.732  15.739 -1.2279 -0.9883  1.6781
18681TIP3    H277459   1.895   3.604  15.664  0.5134  0.9376 -2.6748
18682TIP3   OH277460   0.048   3.381  14.733 -0.2151  0.1323 -0.2567
18682TIP3    H177461   0.003   3.405  14.814  1.7299 -1.4569  1.3988
18682TIP3    H277462   0.124   3.438  14.729 -1.2405  1.5043 -2.0552
18683TIP3   OH277463   0.128   0.791  12.844 -0.2646  0.7918  0.0493
18683TIP3    H177464   0.098   0.860  12.903  1.6017  0.9512  0.9108
18683TIP3    H277465   0.074   0.715  12.866  0.0696  0.9842  1.6963
18684TIP3   OH277466   1.381   3.650  14.750 -0.0031  0.0627 -0.5360
18684TIP3    H177467   1.378   3.585  14.820  2.3841 -0.3807 -0.7426
18684TIP3    H277468   1.330   3.612  14.679  0.5474 -1.1678 -0.3006
18685TIP3   OH277469   4.288   0.360   4.076  0.0668 -0.3872 -0.3811
18685TIP3    H177470   4.372   0.315   4.079 -0.1879 -0.8338  0.2260
18685TIP3    H277471   4.297   0.434   4.136  0.7710  0.9258 -2.0035
18686TIP3   OH277472   1.660   4.165  14.748 -0.5693 -0.2653  0.2034
18686TIP3    H177473   1.616   4.185  14.666 -0.4554 -1.6903 -0.2424
18686TIP3    H277474   1.614   4.088  14.782 -0.3877  0.0901  1.3025
18687TIP3   OH277475   4.446   1.438  12.511 -0.2374 -0.0391  0.1068
18687TIP3    H177476   4.509   1.411  12.579 -0.1917  0.5402  0.3066
18687TIP3    H277477   4.366   1.458  12.560  0.0346  1.1588  0.1088
18688TIP3   OH277478   3.443   6.776  13.357  0.3568 -0.0221  0.2764
18688TIP3    H177479   3.528   6.786  13.315 -0.0748  1.4982 -0.3025
18688TIP3    H277480   3.406   6.696  13.317  2.5094 -2.2494  2.4272
18689TIP3   OH277481   3.410   5.240   4.984  0.0876  0.4986 -0.0251
18689TIP3    H177482   3.433   5.172   5.048  0.7896 -0.0596 -0.8442
18689TIP3    H277483   3.494   5.277   4.957 -0.1951  0.6682 -0.6851
18690TIP3   OH277484   4.654   4.250  15.963 -0.0432 -0.3216  0.1307
18690TIP3    H177485   4.620   4.182  16.021 -0.0616 -1.2055 -0.8894
18690TIP3    H277486   4.600   4.244  15.884 -0.1885  1.0386  0.0958
18691TIP3   OH277487   5.008   1.853  14.861 -0.1459 -1.0024  0.0543
18691TIP3    H177488   4.946   1.913  14.820 -1.0506 -1.3089  0.9441
18691TIP3    H277489   5.054   1.907  14.926 -0.3687 -1.0724  0.2706
18692TIP3   OH277490   5.477   3.008  13.689  0.0140  0.1439  0.0529
18692TIP3    H177491   5.385   3.028  13.710 -0.5164 -1.5016 -0.4967
18692TIP3    H277492   5.472   2.957  13.608  1.3513 -0.5618  0.3906
18693TIP3   OH277493   4.723   4.091  12.942  0.3252 -0.0488  0.2563
18693TIP3    H177494   4.629   4.074  12.938  0.3520 -0.3465  0.8313
18693TIP3    H277495   4.734   4.146  13.019  0.4882  0.9275 -0.4515
18694TIP3   OH277496   0.459   0.986  10.941 -0.1320 -0.7490 -0.2573
18694TIP3    H177497   0.430   1.071  10.908 -0.5210 -1.0453 -0.6949
18694TIP3    H277498   0.379   0.944  10.973  0.3808  0.0129  2.2507
18695TIP3   OH277499   1.156   1.237  11.532  0.6536  0.3792 -0.4290
18695TIP3    H177500   1.200   1.303  11.586  0.4643 -0.6388  1.0280
18695TIP3    H277501   1.076   1.280  11.502 -0.7734  0.1080  2.5987
18696TIP3   OH277502   0.213   1.459  14.387 -0.2594  0.1662  0.0772
18696TIP3    H177503   0.226   1.371  14.353  0.7264 -0.0522  0.9620
18696TIP3    H277504   0.237   1.453  14.480  0.6647  1.5413 -0.0375
18697TIP3   OH277505   4.406   2.128  16.395  0.1489  0.1000  0.1696
18697TIP3    H177506   4.355   2.205  16.421 -1.2960 -0.3037 -1.3409
18697TIP3    H277507   4.341   2.063  16.371  1.3713 -1.3276  0.6096
18698TIP3   OH277508   1.961   1.778   2.231 -0.2385  0.9880 -0.2064
18698TIP3    H177509   1.901   1.792   2.158  1.2015 -0.4850 -1.7697
18698TIP3    H277510   1.905   1.773   2.308 -2.2882 -1.3497 -1.7174
18699TIP3   OH277511   3.785   6.367  17.230 -0.2546  0.1532 -0.0379
18699TIP3    H177512   3.841   6.377  17.153  1.6370  0.4284  1.3013
18699TIP3    H277513   3.775   6.272  17.239 -1.1957  0.1343 -1.0750
18700TIP3   OH277514   0.822   4.516  15.345 -0.4815  0.4730 -0.4753
18700TIP3    H177515   0.915   4.534  15.329 -0.4548  1.0744  0.3444
18700TIP3    H277516   0.817   4.494  15.438 -1.1076  0.0630 -0.5996
18701TIP3   OH277517   6.100   0.681  14.794  0.4720  0.0248 -0.0166
18701TIP3    H177518   6.088   0.720  14.707  1.5269 -0.3026 -0.3312
18701TIP3    H277519   6.017   0.695  14.839  0.0911  0.6737 -0.8948
18702TIP3   OH277520   3.368   5.563  10.862 -0.4555 -0.0054  0.1086
18702TIP3    H177521   3.326   5.499  10.803  1.7017 -2.0615  0.6533
18702TIP3    H277522   3.459   5.565  10.834  1.1069 -2.3415  4.2033
18703TIP3   OH277523   5.088   6.130  14.627 -0.2663 -1.0216  0.3130
18703TIP3    H177524   5.055   6.067  14.563 -0.6541  0.1681 -0.6949
18703TIP3    H277525   5.156   6.178  14.580  0.7985 -1.3949  1.4126
18704TIP3   OH277526   0.316   0.938   1.850  0.2319  0.2459  0.1757
18704TIP3    H177527   0.331   0.952   1.944  0.5052  4.3841 -0.2664
18704TIP3    H277528   0.400   0.959   1.809 -0.4380  0.5763 -1.0930
18705TIP3   OH277529   2.013   5.856   2.863  0.0733 -0.3573  0.0420
18705TIP3    H177530   1.941   5.822   2.810 -2.1738  1.9937  1.3424
18705TIP3    H277531   2.020   5.948   2.837  1.9320 -0.2647  0.7237
18706TIP3   OH277532   3.838   5.677   6.032 -0.2174 -0.0054 -0.1408
18706TIP3    H177533   3.807   5.596   5.992 -1.5265 -0.1146  1.0254
18706TIP3    H277534   3.784   5.688   6.110  1.4211  0.8351  0.9523
18707TIP3   OH277535   6.073   0.116  14.141  0.0220  0.1528  0.1702
18707TIP3    H177536   6.041   0.198  14.104 -0.8999 -1.5438 -3.1024
18707TIP3    H277537   6.098   0.139  14.231 -1.1495  3.7378 -0.2647
18708TIP3   OH277538   0.185   0.648   0.079 -0.1714  0.2551 -0.2201
18708TIP3    H177539   0.115   0.645   0.014 -0.7735 -1.0086  0.4269
18708TIP3    H277540   0.193   0.740   0.102 -1.0221  0.5233 -0.9497
18709TIP3   OH277541   3.476   4.123   5.181 -0.2114  0.2269 -0.0135
18709TIP3    H177542   3.413   4.125   5.109 -1.5735  0.0267  1.1055
18709TIP3    H277543   3.505   4.032   5.186  0.9487  0.5182 -1.1554
18710TIP3   OH277544   4.516   5.072   4.846  0.5173  0.4264  0.3383
18710TIP3    H177545   4.579   5.066   4.774 -0.6045 -0.2433 -0.6217
18710TIP3    H277546   4.432   5.087   4.803 -0.2342 -0.3068  1.4954
18711TIP3   OH277547   0.352   4.634  13.308 -0.3242 -0.1244 -0.2264
18711TIP3    H177548   0.272   4.606  13.263 -0.8400 -1.4498  1.4223
18711TIP3    H277549   0.418   4.569  13.283 -1.0223 -1.8500  2.0552
18712TIP3   OH277550   0.159   6.500   4.045 -0.3009 -0.5125 -0.2155
18712TIP3    H177551   0.145   6.561   3.973  1.3922  1.5793  1.0991
18712TIP3    H277552   0.079   6.508   4.098 -0.6664 -0.4865 -0.7610
18713TIP3   OH277553   1.494   0.721   3.262  0.0754  0.2346  0.3562
18713TIP3    H177554   1.475   0.650   3.323  0.7507 -0.0064  0.2931
18713TIP3    H277555   1.546   0.681   3.193  0.8147  0.8648  0.5298
18714TIP3   OH277556   3.393   3.309   0.624 -0.1655  0.3822 -0.5801
18714TIP3    H177557   3.443   3.321   0.704  1.2195 -2.6767 -0.8551
18714TIP3    H277558   3.302   3.300   0.653  0.2277  0.0000  0.5767
18715TIP3   OH277559   4.288   5.191   3.812  0.0473  0.1344 -0.4274
18715TIP3    H177560   4.365   5.174   3.866  0.0144 -2.3066 -1.0275
18715TIP3    H277561   4.272   5.108   3.766 -2.6125  0.7134 -0.7282
18716TIP3   OH277562   4.259   3.435   3.287 -0.4451  0.5108 -0.4822
18716TIP3    H177563   4.188   3.390   3.332  0.2172 -0.6355 -0.5592
18716TIP3    H277564   4.280   3.510   3.344  0.9756 -1.3890  1.6724
18717TIP3   OH277565   4.557   6.390   4.098  0.6039  0.1418  0.0075
18717TIP3    H177566   4.495   6.359   4.163  0.5256  2.7879  1.2946
18717TIP3    H277567   4.642   6.359   4.130  0.5739  1.4511  1.4761
18718TIP3   OH277568   3.842   3.242  13.927  0.0976  0.4468 -0.8448
18718TIP3    H177569   3.754   3.276  13.947  0.8432  1.2494  1.3519
18718TIP3    H277570   3.899   3.319  13.935  1.1380 -0.2611 -1.2888
18719TIP3   OH277571   0.998   0.148   3.732 -0.3491 -0.2574 -0.4038
18719TIP3    H177572   0.968   0.057   3.737  0.5180 -0.5344 -0.1009
18719TIP3    H277573   1.033   0.157   3.644  1.4795 -0.8459  0.2261
18720TIP3   OH277574   5.082   4.704   0.853  0.0840  0.2322 -0.2705
18720TIP3    H177575   5.165   4.741   0.883  0.0044  1.0039 -0.9773
18720TIP3    H277576   5.085   4.712   0.758 -1.0109  0.7532 -0.2734
18721TIP3   OH277577   0.865   4.780  12.376 -0.1256  0.1060 -0.1788
18721TIP3    H177578   0.858   4.858  12.431 -0.2542  0.0345 -0.0916
18721TIP3    H277579   0.776   4.762  12.348 -0.4309 -1.1436  1.4133
18722TIP3   OH277580   4.413   5.705   3.961 -0.2225 -0.2181  0.0892
18722TIP3    H177581   4.349   5.639   3.934  0.0260 -0.5457  0.2931
18722TIP3    H277582   4.368   5.789   3.950 -1.5513 -0.5330  2.5253
18723TIP3   OH277583   2.893   1.085   2.108 -0.2362  0.5024  0.2368
18723TIP3    H177584   2.858   1.113   2.023 -0.0374 -0.0350 -0.0276
18723TIP3    H277585   2.816   1.082   2.165 -0.6703 -0.8443 -0.3877
18724TIP3   OH277586   1.026   4.279  12.264 -0.3867 -0.3794  0.3859
18724TIP3    H177587   0.955   4.337  12.233  0.4628  0.7457  0.4712
18724TIP3    H277588   1.068   4.249  12.183  0.5386  0.9131  0.3464
18725TIP3   OH277589   1.455   6.068  16.734 -0.0241 -0.1290  0.2492
18725TIP3    H177590   1.371   6.114  16.734 -0.1277 -0.3179  0.1846
18725TIP3    H277591   1.468   6.042  16.643  0.2769  0.2122  0.1924
18726TIP3   OH277592   2.959   6.356  13.289  0.2758  0.2779 -0.3981
18726TIP3    H177593   2.865   6.357  13.272 -0.0304 -1.8508  0.7485
18726TIP3    H277594   2.967   6.325  13.379  2.0769  0.2921 -0.5080
18727TIP3   OH277595   3.694   4.311   0.955  0.1055 -0.0723  0.1276
18727TIP3    H177596   3.758   4.359   1.007  0.8397  0.1034 -0.9013
18727TIP3    H277597   3.698   4.353   0.868 -1.9062  0.3999  0.2224
18728TIP3   OH277598   6.089   0.602  11.327  0.6779  0.0308  0.0875
18728TIP3    H177599   6.014   0.653  11.356  1.3407  0.3412  1.3552
18728TIP3    H277600   6.051   0.526  11.284 -0.3543  0.4745  0.1860
18729TIP3   OH277601   1.265   1.107   6.412 -0.0778  0.0761 -0.1956
18729TIP3    H177602   1.261   1.196   6.444 -2.2047 -0.1174  0.1792
18729TIP3    H277603   1.334   1.109   6.345  0.4866  1.7698  0.3844
18730TIP3   OH277604   0.136   2.678   2.757  0.4495  0.4949 -0.4689
18730TIP3    H177605   0.178   2.715   2.679 -1.5193  0.7277 -1.5081
18730TIP3    H277606   0.162   2.586   2.757  2.5735  1.0461  0.1337
18731TIP3   OH277607   0.563   5.790  15.712 -0.2181  0.0257  0.1683
18731TIP3    H177608   0.543   5.816  15.622 -0.8485  1.6518  0.7311
18731TIP3    H277609   0.572   5.873  15.759 -0.5496 -0.7838  1.7355
18732TIP3   OH277610   1.303   1.185   3.526 -0.0170 -0.5672  0.1296
18732TIP3    H177611   1.382   1.211   3.479 -0.3982 -1.8931 -1.3128
18732TIP3    H277612   1.325   1.199   3.619  1.5045  0.0848 -0.2967
18733TIP3   OH277613   4.457   4.644  11.442  0.6374  0.9720  0.3058
18733TIP3    H177614   4.468   4.608  11.355 -0.6088  0.1398  0.4575
18733TIP3    H277615   4.518   4.717  11.446 -0.0675  1.7488 -1.6706
18734TIP3   OH277616   6.662   2.899   1.641 -0.2702  0.6148  0.6264
18734TIP3    H177617   6.672   2.878   1.734 -0.0742  1.0453  0.7048
18734TIP3    H277618   6.643   2.993   1.639  0.9166  0.8667  0.1790
18735TIP3   OH277619   2.649   4.165   2.857 -0.2768  0.0393  0.3579
18735TIP3    H177620   2.656   4.168   2.952  0.8955 -1.1912  0.3467
18735TIP3    H277621   2.632   4.073   2.836 -1.9992  0.5243 -0.5731
18736TIP3   OH277622   3.949   2.226   4.652 -0.4357 -0.1519 -0.4271
18736TIP3    H177623   3.995   2.301   4.612 -0.5276 -1.0888 -2.4366
18736TIP3    H277624   4.005   2.200   4.725 -0.3805  1.8210  0.3111
18737TIP3   OH277625   1.936   4.065   1.979 -0.4753  0.1387 -0.9874
18737TIP3    H177626   2.003   4.077   2.047 -0.3259  1.3658 -1.3174
18737TIP3    H277627   1.917   4.154   1.949  1.3824 -0.4074 -4.3996
18738TIP3   OH277628   1.900   0.082  16.208 -0.3306  0.1408 -0.0957
18738TIP3    H177629   1.810   0.076  16.242 -0.0840 -0.2617  0.5270
18738TIP3    H277630   1.943   0.005  16.245 -0.1659 -0.5845 -1.7531
18739TIP3   OH277631   1.665   5.165   0.602  0.4596 -0.7661  0.0108
18739TIP3    H177632   1.672   5.190   0.509 -1.0435 -0.8840 -0.1638
18739TIP3    H277633   1.754   5.173   0.636  0.5226  2.7228 -0.5834
18740TIP3   OH277634   3.532   2.457   0.355 -0.2978 -0.0476 -0.5333
18740TIP3    H177635   3.618   2.437   0.318  0.2545  1.2738 -0.0354
18740TIP3    H277636   3.549   2.529   0.416 -1.7570  0.1952 -0.3873
18741TIP3   OH277637   4.666   5.080   4.620 -0.1664 -0.4690 -0.5070
18741TIP3    H177638   4.584   5.099   4.575 -0.5569 -0.1672  0.3093
18741TIP3    H277639   4.733   5.119   4.564 -0.7039  0.5757 -0.4534
18742TIP3   OH277640   3.250   3.424  12.330 -0.1983  0.0348  0.1991
18742TIP3    H177641   3.306   3.390  12.261  0.0253  0.7039  0.0449
18742TIP3    H277642   3.209   3.347  12.369 -0.8155 -0.3060 -1.0890
18743TIP3   OH277643   1.341   1.526  11.303  0.2253  0.3911  0.1260
18743TIP3    H177644   1.360   1.562  11.217  3.3148 -1.8609 -0.2947
18743TIP3    H277645   1.406   1.457  11.316 -0.0675  0.5994  4.2706
18744TIP3   OH277646   4.760   2.590   0.346  0.0174 -0.2267 -0.6706
18744TIP3    H177647   4.683   2.613   0.293  0.4863 -1.1252 -1.7831
18744TIP3    H277648   4.783   2.502   0.318  1.5825  0.0976 -0.5052
18745TIP3   OH277649   1.685   4.643   2.130  0.2191 -0.1335 -0.3274
18745TIP3    H177650   1.666   4.574   2.067  0.1114 -0.8066  0.4140
18745TIP3    H277651   1.600   4.665   2.168  0.4300 -0.6888  0.5161
18746TIP3   OH277652   1.814   3.317   5.301 -0.2581  0.5516  0.5855
18746TIP3    H177653   1.830   3.272   5.218 -0.5962  0.2467  0.6811
18746TIP3    H277654   1.764   3.395   5.276  0.1641  0.7774  0.4394
18747TIP3   OH277655   6.260   6.154   0.702 -0.3858 -0.6605  0.6619
18747TIP3    H177656   6.242   6.084   0.639  0.1243 -1.2710  1.1807
18747TIP3    H277657   6.339   6.126   0.748  2.4919  2.2487 -2.0021
18748TIP3   OH277658   0.249   0.729   2.357  0.8780  0.6084  0.0441
18748TIP3    H177659   0.342   0.704   2.356  1.0481  1.0637 -2.5618
18748TIP3    H277660   0.224   0.730   2.265 -1.3686  1.8015  0.6101
18749TIP3   OH277661   2.587   1.180  12.913 -0.2372 -0.5946 -0.1304
18749TIP3    H177662   2.497   1.205  12.934  0.2710  1.5790 -0.3577
18749TIP3    H277663   2.608   1.111  12.976 -1.5687 -0.0775  0.9188
18750TIP3   OH277664   4.553   0.611   2.714 -0.5232  0.1751 -0.6463
18750TIP3    H177665   4.483   0.676   2.721  0.2730  0.9997 -0.0161
18750TIP3    H277666   4.619   0.652   2.659 -0.3979 -0.4833 -1.0016
18751TIP3   OH277667   2.831   5.931  12.770 -0.6842  0.0107  0.0905
18751TIP3    H177668   2.736   5.941  12.783 -0.6986 -0.6128  0.4876
18751TIP3    H277669   2.840   5.880  12.690 -0.7061 -0.6128  0.4792
18752TIP3   OH277670   2.648   1.913  11.646 -0.6734  0.0922 -0.1257
18752TIP3    H177671   2.575   1.857  11.671 -0.7057 -0.3018 -1.0455
18752TIP3    H277672   2.609   2.000  11.632 -1.3727 -0.5198 -2.4887
18753TIP3   OH277673   1.016   1.255  15.207 -0.2917  0.6434 -0.6279
18753TIP3    H177674   1.055   1.202  15.277 -1.2400  1.0423  0.2227
18753TIP3    H277675   1.040   1.209  15.127  1.1778  0.4033 -0.0910
18754TIP3   OH277676   2.374   6.738  12.184  0.2921  0.5912  0.1052
18754TIP3    H177677   2.390   6.647  12.212  1.3096  0.9870  0.8853
18754TIP3    H277678   2.280   6.750  12.196 -0.1347 -0.8097 -1.4320
18755TIP3   OH277679   2.054   5.127   0.425 -0.3465 -0.4604 -0.3468
18755TIP3    H177680   2.059   5.216   0.391 -0.2550 -0.2177  0.2761
18755TIP3    H277681   1.977   5.088   0.382 -1.9355  0.7559  1.2403
18756TIP3   OH277682   5.714   2.910  15.515  0.6115  0.3572  0.1840
18756TIP3    H177683   5.672   2.938  15.434  0.3424 -2.0268 -0.5539
18756TIP3    H277684   5.670   2.961  15.583  2.0430  3.7493 -1.1946
18757TIP3   OH277685   4.676   3.097   0.474  0.4262  0.3515  0.1925
18757TIP3    H177686   4.670   3.042   0.552 -0.7436 -1.9703 -1.4252
18757TIP3    H277687   4.769   3.099   0.452  0.7834  1.1248  1.6433
18758TIP3   OH277688   0.225   3.042  13.588 -0.0249  0.1872 -0.1844
18758TIP3    H177689   0.214   2.949  13.571 -1.6448  0.2708  0.2495
18758TIP3    H277690   0.319   3.054  13.598  0.3848 -1.0825 -1.9851
18759TIP3   OH277691   6.777   4.517  11.900 -0.7160 -0.7035  0.6079
18759TIP3    H177692   6.868   4.496  11.919 -0.8091 -0.8996  0.8421
18759TIP3    H277693   6.780   4.606  11.863 -0.2532 -1.3100 -0.9209
18760TIP3   OH277694   6.781   4.946  16.279 -0.5229  0.0799 -0.0860
18760TIP3    H177695   6.827   4.966  16.197 -1.1148  1.5664 -0.0966
18760TIP3    H277696   6.808   5.016  16.339 -2.2166  0.6237  0.1090
18761TIP3   OH277697   4.372   5.405  16.972  0.1320 -0.4557 -0.2757
18761TIP3    H177698   4.400   5.470  16.908 -1.1457 -0.1342 -0.5417
18761TIP3    H277699   4.405   5.438  17.056  1.4272 -0.6476 -0.6926
18762TIP3   OH277700   5.514   0.946  13.006 -0.0040  0.6155 -0.7344
18762TIP3    H177701   5.602   0.983  13.008 -0.1468  0.9168  0.2510
18762TIP3    H277702   5.456   1.022  13.009 -0.3270  0.4054  3.0560
18763TIP3   OH277703   5.856   5.352  15.325 -0.4288  0.2035  0.5087
18763TIP3    H177704   5.864   5.276  15.266 -1.3149 -0.0335  0.6815
18763TIP3    H277705   5.916   5.417  15.288 -2.0041  0.6083 -1.5448
18764TIP3   OH277706   1.420   6.186   4.869  0.5819 -0.1584 -0.0716
18764TIP3    H177707   1.333   6.176   4.907  0.6208  1.0177  0.3464
18764TIP3    H277708   1.412   6.146   4.782 -0.5296  0.3980 -0.2512
18765TIP3   OH277709   0.485   0.627  10.429 -0.3073 -0.4730 -0.0844
18765TIP3    H177710   0.438   0.623  10.513  0.9067  0.6756  0.6980
18765TIP3    H277711   0.440   0.696  10.380  0.1052  0.1460  0.3883
18766TIP3   OH277712   2.035   6.460  14.083 -0.3065  0.4617  0.2877
18766TIP3    H177713   2.092   6.534  14.065  0.9577 -0.3078  0.9454
18766TIP3    H277714   1.993   6.441  13.999  1.9293 -0.1624 -0.7869
18767TIP3   OH277715   0.797   0.066  13.085 -0.2247  0.1752 -0.4243
18767TIP3    H177716   0.735   0.104  13.147  0.9567 -0.0703  0.9691
18767TIP3    H277717   0.862   0.136  13.072  0.7499 -0.5434  0.4098
18768TIP3   OH277718   1.135   4.430   3.166 -0.4219 -0.0090  0.0433
18768TIP3    H177719   1.151   4.407   3.074 -2.0932  1.5587 -0.7331
18768TIP3    H277720   1.094   4.352   3.204 -0.2060 -0.4915 -0.6981
18769TIP3   OH277721   4.597   5.185  15.953 -0.0955  0.0257  0.1817
18769TIP3    H177722   4.548   5.170  15.872 -0.4754 -1.5988  0.6953
18769TIP3    H277723   4.652   5.262  15.933  0.2704 -0.6943 -1.8202
18770TIP3   OH277724   4.891   3.880   5.434  0.4256  0.1382 -0.0438
18770TIP3    H177725   4.928   3.911   5.351  0.8165 -1.1191 -0.3736
18770TIP3    H277726   4.964   3.837   5.478 -0.1387 -0.5591  0.2409
18771TIP3   OH277727   4.078   6.152  17.209 -0.6615 -0.5264 -0.6676
18771TIP3    H177728   4.125   6.225  17.168 -0.8674 -1.4109 -2.5966
18771TIP3    H277729   3.989   6.185  17.222 -0.4683 -0.0714 -0.4618
18772TIP3   OH277730   2.188   2.599  16.501  0.1786  0.0985  0.2175
18772TIP3    H177731   2.195   2.674  16.559 -2.2058  1.1296 -0.7155
18772TIP3    H277732   2.229   2.527  16.549  2.1606  1.8429  1.3045
18773TIP3   OH277733   4.393   2.737  15.164 -0.0631 -0.7181 -0.0663
18773TIP3    H177734   4.353   2.673  15.223 -0.9606 -0.1063 -0.0070
18773TIP3    H277735   4.358   2.821  15.191 -0.3782 -0.4088 -1.3648
18774TIP3   OH277736   0.840   0.512  11.076  0.3304 -0.0182 -0.2687
18774TIP3    H177737   0.764   0.564  11.102 -0.6529 -1.8980  0.8870
18774TIP3    H277738   0.896   0.509  11.154  0.5698 -0.3507 -0.4489
18775TIP3   OH277739   5.658   2.211   3.373 -0.0751  0.0555  0.3226
18775TIP3    H177740   5.646   2.305   3.386  1.4066  0.3956 -0.4597
18775TIP3    H277741   5.745   2.204   3.334 -0.9024 -1.5065 -1.3762
18776TIP3   OH277742   1.375   5.761  13.876 -0.2641 -0.0659 -0.0266
18776TIP3    H177743   1.373   5.665  13.881  1.1473 -0.1211 -0.2798
18776TIP3    H277744   1.350   5.790  13.964  0.5851 -0.6839  0.4280
18777TIP3   OH277745   5.774   1.464   2.501  0.7442  0.1403 -0.4966
18777TIP3    H177746   5.808   1.384   2.543  1.4498  0.2466 -0.8457
18777TIP3    H277747   5.723   1.433   2.427  0.9741  0.0014 -0.6004
18778TIP3   OH277748   0.216   6.627   1.118 -0.0255 -0.4642 -0.4582
18778TIP3    H177749   0.234   6.617   1.024  1.0937 -1.2457 -0.1856
18778TIP3    H277750   0.283   6.574   1.160 -0.9563 -0.6926  0.7699
18779TIP3   OH277751   1.404   4.134   1.170 -0.0726 -0.3188  0.4176
18779TIP3    H177752   1.326   4.187   1.185  0.1838  0.1295  0.1701
18779TIP3    H277753   1.407   4.123   1.075 -1.1410 -2.3095  0.5574
18780TIP3   OH277754   6.564   4.993  17.118  0.0014  0.0141  0.0305
18780TIP3    H177755   6.480   4.946  17.112 -0.2568  0.2469  1.4918
18780TIP3    H277756   6.594   4.998  17.027 -2.3496  1.3582 -0.7842
18781TIP3   OH277757   0.669   4.328  12.865 -0.2528  0.0930 -0.3204
18781TIP3    H177758   0.707   4.256  12.815  1.3302  0.5394  0.2030
18781TIP3    H277759   0.588   4.350  12.817 -1.1520 -2.4426 -0.1039
18782TIP3   OH277760   1.056   5.246   2.546  0.2429  0.4661 -0.0348
18782TIP3    H177761   1.063   5.313   2.478 -1.0884  1.5567  0.8745
18782TIP3    H277762   1.122   5.269   2.610  0.7349  0.0808 -0.3927
18783TIP3   OH277763   6.600   4.362  16.202 -0.4952  0.2989  0.0422
18783TIP3    H177764   6.646   4.427  16.255  0.0684 -0.1472  0.1054
18783TIP3    H277765   6.669   4.313  16.158 -0.9442  1.4791 -2.1541
18784TIP3   OH277766   1.062   0.705  13.327  0.1582 -0.4710 -0.0504
18784TIP3    H177767   1.104   0.645  13.265  1.9226  0.4837  0.1398
18784TIP3    H277768   1.122   0.707  13.402  0.0837  1.4010 -0.0084
18785TIP3   OH277769   6.278   3.043   2.292  0.1300 -0.0520  0.6519
18785TIP3    H177770   6.203   3.058   2.236 -0.2155  1.6219  1.4923
18785TIP3    H277771   6.265   2.955   2.328 -2.5443  0.8996  2.3413
18786TIP3   OH277772   6.750   1.741   5.909 -0.0209  0.5708  0.8684
18786TIP3    H177773   6.823   1.749   5.970  0.4972  1.5353  0.1498
18786TIP3    H277774   6.744   1.647   5.891  0.9626  0.4655  1.0359
18787TIP3   OH277775   5.442   2.320  15.923 -0.2443 -0.8833  0.0659
18787TIP3    H177776   5.434   2.224  15.921  1.8593 -1.0997 -0.1018
18787TIP3    H277777   5.364   2.349  15.970 -1.7635 -2.5364 -1.2378
18788TIP3   OH277778   1.250   6.766   5.170  0.4826  0.1798  0.1994
18788TIP3    H177779   1.322   6.705   5.160 -0.0862 -0.2996 -1.1016
18788TIP3    H277780   1.172   6.711   5.180 -0.0169  0.6683 -0.8356
18789TIP3   OH277781   5.137   2.485   4.669  1.2181  0.1342 -0.4137
18789TIP3    H177782   5.160   2.394   4.690  1.6095  0.0565 -1.1245
18789TIP3    H277783   5.073   2.477   4.598  0.7414  0.4008 -0.0111
18790TIP3   OH277784   2.763   1.331  15.607  0.1145  0.1590 -0.0366
18790TIP3    H177785   2.807   1.408  15.571  0.1890  0.2925  0.3416
18790TIP3    H277786   2.830   1.286  15.659 -0.0554  0.0866  0.1204
18791TIP3   OH277787   0.035   1.133  14.419 -0.0703 -0.3295  0.2818
18791TIP3    H177788   0.089   1.143  14.498  1.5487 -2.3924 -0.4698
18791TIP3    H277789  -0.027   1.063  14.441  1.2019 -1.7967 -0.6113
18792TIP3   OH277790   5.958   4.215  13.033  0.2216 -0.3871 -1.0542
18792TIP3    H177791   5.932   4.147  13.096 -1.8379  0.4357 -0.9446
18792TIP3    H277792   5.886   4.218  12.971  0.4723  1.4330 -1.2930
18793TIP3   OH277793   6.016   4.168   3.711  0.4540  0.1209  0.0056
18793TIP3    H177794   5.952   4.098   3.718  0.0404  0.5538  0.7620
18793TIP3    H277795   5.969   4.240   3.668 -0.0135  0.8969  1.6967
18794TIP3   OH277796   1.667   2.189  15.278 -0.4626 -0.3585  0.6043
18794TIP3    H177797   1.760   2.169  15.290 -0.2124 -0.7519 -1.5370
18794TIP3    H277798   1.621   2.114  15.318  0.0879  0.0059  1.9827
18795TIP3   OH277799   5.321   2.719   0.411  0.4669 -0.7211  0.5866
18795TIP3    H177800   5.268   2.786   0.456  1.1347  1.6781 -1.9620
18795TIP3    H277801   5.256   2.660   0.373 -0.2129 -0.4093  1.2188
18796TIP3   OH277802   4.110   6.757   4.813 -0.3528  0.4391  0.3539
18796TIP3    H177803   4.029   6.707   4.820 -0.7297  1.0306  0.2573
18796TIP3    H277804   4.145   6.758   4.902 -0.2465 -0.1462  0.3219
18797TIP3   OH277805   1.430   4.396   1.387 -0.0881 -0.4032  0.2941
18797TIP3    H177806   1.517   4.355   1.384 -0.2380 -0.7155  0.1934
18797TIP3    H277807   1.431   4.460   1.315 -0.2915 -1.1110 -0.3541
18798TIP3   OH277808   1.586   3.352  12.613 -0.6911 -0.5537 -0.2997
18798TIP3    H177809   1.501   3.353  12.656 -1.6555 -0.8010 -2.0843
18798TIP3    H277810   1.612   3.260  12.614 -0.2924 -0.4385  0.4995
18799TIP3   OH277811   1.518   4.211   1.648  0.3901 -0.3392 -0.0310
18799TIP3    H177812   1.578   4.275   1.609  0.9001 -1.4676 -1.2172
18799TIP3    H277813   1.564   4.181   1.727  0.8530 -0.3261 -0.2879
18800TIP3   OH277814   5.617   4.502   2.998 -0.8454 -0.0841 -0.1963
18800TIP3    H177815   5.645   4.410   2.996 -0.3621  0.0489  0.3927
18800TIP3    H277816   5.523   4.499   2.977 -1.4488 -0.9567  2.3460
18801TIP3   OH277817   0.397   3.013  16.085 -0.0631  0.2696 -0.2445
18801TIP3    H177818   0.416   3.088  16.141  0.1147 -0.2281  0.3635
18801TIP3    H277819   0.323   2.969  16.127  0.0628 -0.1001 -0.4088
18802TIP3   OH277820   4.689   4.542  12.975 -0.0127  0.2333  0.2194
18802TIP3    H177821   4.692   4.550  12.880  0.1346  2.2343  0.3428
18802TIP3    H277822   4.695   4.632  13.007  0.7870 -0.4393  2.1523
18803TIP3   OH277823   2.689   4.870   3.101  0.1623 -0.4520  0.3946
18803TIP3    H177824   2.649   4.957   3.100  0.7107 -0.1838 -0.7211
18803TIP3    H277825   2.621   4.812   3.134 -0.7777  0.1567 -0.4175
18804TIP3   OH277826   5.175   2.857  12.754  0.1620 -0.1374 -0.7227
18804TIP3    H177827   5.127   2.805  12.689  0.6897 -0.4902 -0.8375
18804TIP3    H277828   5.264   2.862  12.719  1.1958 -2.6397  1.2466
18805TIP3   OH277829   5.382   3.365   4.424 -0.1788 -0.0364  0.4072
18805TIP3    H177830   5.371   3.333   4.513 -0.3815 -0.0222  0.3872
18805TIP3    H277831   5.371   3.288   4.369  1.0394 -0.2550  0.4537
18806TIP3   OH277832   4.386   3.189   2.512 -0.0506  0.3380  0.2312
18806TIP3    H177833   4.365   3.195   2.605  0.4031  1.3891  0.2856
18806TIP3    H277834   4.305   3.158   2.470 -0.0534 -0.7930  1.0419
18807TIP3   OH277835   5.702   3.770   5.342  0.1688 -0.4446 -0.3359
18807TIP3    H177836   5.790   3.776   5.378 -0.5234  0.9114  1.2217
18807TIP3    H277837   5.686   3.855   5.302 -1.9833  1.0285  3.2704
18808TIP3   OH277838   4.039   1.904  16.065  0.5057 -0.0585  0.1928
18808TIP3    H177839   4.091   1.825  16.074  0.9590  0.1097 -0.8165
18808TIP3    H277840   4.017   1.908  15.972  0.2086  0.8268  0.2906
18809TIP3   OH277841   5.569   4.605  14.468  0.6835 -0.2058  0.4390
18809TIP3    H177842   5.514   4.527  14.477  1.3407 -1.0698 -2.1269
18809TIP3    H277843   5.515   4.668  14.420  0.8539  0.1262  0.6770
18810TIP3   OH277844   2.474   5.201  14.608 -0.1170 -0.3089 -0.0605
18810TIP3    H177845   2.405   5.208  14.542 -0.1782  1.1426  0.1280
18810TIP3    H277846   2.436   5.239  14.687 -0.1274 -2.2453  0.9141
18811TIP3   OH277847   5.697   5.715   5.325 -0.0874  0.0196 -0.7443
18811TIP3    H177848   5.655   5.795   5.293 -1.1987 -1.1641 -2.4134
18811TIP3    H277849   5.643   5.689   5.399  0.4503  0.9284 -0.0032
18812TIP3   OH277850   5.130   1.915  11.554  0.6059 -0.1362  0.7355
18812TIP3    H177851   5.219   1.948  11.537  0.4476  0.2876  0.7185
18812TIP3    H277852   5.116   1.933  11.647 -0.2143  1.6532  0.3091
18813TIP3   OH277853   4.578   5.625  16.136 -0.0522 -0.2261 -0.3303
18813TIP3    H177854   4.570   5.611  16.231  2.8310 -1.2775 -0.1524
18813TIP3    H277855   4.614   5.713  16.127 -0.4373 -0.0806 -0.4650
18814TIP3   OH277856   3.767   3.435  15.930 -0.0571 -0.0582 -0.6093
18814TIP3    H177857   3.779   3.424  16.024  1.6112 -0.3106 -0.8364
18814TIP3    H277858   3.680   3.475  15.922 -0.8957 -1.4574  0.9301
18815TIP3   OH277859   6.062   0.285  12.988  0.6438 -0.1285 -0.1972
18815TIP3    H177860   6.057   0.223  12.915 -0.2850  1.4659 -1.5709
18815TIP3    H277861   6.064   0.230  13.066 -1.6604 -1.9079 -1.2564
18816TIP3   OH277862   1.057   4.531   1.793  0.1002 -0.3301  0.1487
18816TIP3    H177863   1.068   4.610   1.845  1.1922 -0.8259  0.6929
18816TIP3    H277864   1.145   4.510   1.762 -0.0492 -1.7088  0.5945
18817TIP3   OH277865   0.290   2.719  12.774  0.0724  0.3083  0.4331
18817TIP3    H177866   0.246   2.785  12.828  0.4708  0.5916  0.4159
18817TIP3    H277867   0.235   2.710  12.696 -0.7959 -0.4941  1.1189
18818TIP3   OH277868   0.333   3.026  12.279 -0.1950  0.7144 -0.6478
18818TIP3    H177869   0.316   2.955  12.217 -1.5213  0.8619 -0.4854
18818TIP3    H277870   0.349   3.103  12.223 -2.1467  1.0215 -0.8721
18819TIP3   OH277871   6.000   2.537   4.561 -0.0583  0.6208  0.6284
18819TIP3    H177872   6.075   2.486   4.530  0.3235  1.2170  0.5566
18819TIP3    H277873   5.978   2.594   4.487  1.5467  2.8393  1.7477
18820TIP3   OH277874   6.754   5.225   1.356 -0.2408 -0.0822  0.1446
18820TIP3    H177875   6.679   5.185   1.312  0.3707  0.9559 -1.9752
18820TIP3    H277876   6.814   5.248   1.285  1.5880  0.1783  1.6772
18821TIP3   OH277877   1.433   4.639  14.804 -0.4121 -0.3651  0.2018
18821TIP3    H177878   1.426   4.567  14.866  0.2321  0.1546  0.8909
18821TIP3    H277879   1.449   4.716  14.858 -0.2656  0.1667 -0.5827
18822TIP3   OH277880   1.261   3.340   5.876  0.2220 -0.2084 -0.1496
18822TIP3    H177881   1.283   3.260   5.829  0.6627 -0.9699  1.2656
18822TIP3    H277882   1.169   3.356   5.856  0.2575 -0.8087 -0.8056
18823TIP3   OH277883   3.981   4.268  12.170 -0.1571 -0.8645 -0.3593
18823TIP3    H177884   4.074   4.282  12.184  0.0946 -1.0413 -1.7129
18823TIP3    H277885   3.977   4.204  12.099 -1.2826  0.9412 -2.0219
18824TIP3   OH277886   2.091   4.880  14.651 -1.1192  0.1442  0.1275
18824TIP3    H177887   2.094   4.860  14.745  2.5284  0.0338  0.1383
18824TIP3    H277888   2.055   4.801  14.611  0.1755 -1.0797  1.2458
18825TIP3   OH277889   1.484   1.964  12.652 -0.4159  0.0031 -0.9516
18825TIP3    H177890   1.398   1.930  12.675 -0.1757 -0.0841 -0.1602
18825TIP3    H277891   1.529   1.890  12.612 -0.6418  0.0013 -1.2091
18826TIP3   OH277892   5.339   6.391   6.015  0.4305  0.0595 -0.2033
18826TIP3    H177893   5.434   6.377   6.015  0.2372 -1.6266 -1.1257
18826TIP3    H277894   5.304   6.317   5.965 -1.3246  1.0515 -0.5449
18827TIP3   OH277895   2.900   3.587  13.687 -0.1508  0.5786 -0.6252
18827TIP3    H177896   2.905   3.573  13.782 -1.7737  0.4890 -0.5293
18827TIP3    H277897   2.806   3.590  13.668  0.1132 -0.9244 -2.4507
18828TIP3   OH277898   5.851   2.778  16.537 -0.1450  0.4924  0.3246
18828TIP3    H177899   5.941   2.761  16.564  0.0337 -3.7649 -1.9916
18828TIP3    H277900   5.859   2.834  16.460  0.5069  0.4853  0.3847
18829TIP3   OH277901   2.874   3.829   5.897  0.0136  0.3613 -0.5205
18829TIP3    H177902   2.793   3.810   5.851 -0.1974  0.0390 -0.0207
18829TIP3    H277903   2.924   3.883   5.835 -0.5554  0.5266 -0.8477
18830TIP3   OH277904   4.936   1.216  13.890 -0.4534  0.6797  0.1941
18830TIP3    H177905   4.919   1.177  13.976  1.1650 -1.6582 -0.4399
18830TIP3    H277906   5.007   1.163  13.853 -0.3257  2.3090 -2.1455
18831TIP3   OH277907   3.920   0.535  16.360 -0.1040  0.0504  0.0415
18831TIP3    H177908   3.939   0.507  16.271 -1.3834  0.6162 -0.4268
18831TIP3    H277909   3.998   0.583  16.387 -0.6081  1.9499 -1.6590
18832TIP3   OH277910   6.541   1.607  14.726 -0.0262 -0.0478  0.0354
18832TIP3    H177911   6.611   1.648  14.777 -0.4042 -0.3463  0.8263
18832TIP3    H277912   6.579   1.524  14.695  0.5705  0.6468 -1.1344
18833TIP3   OH277913   2.026   2.641  13.737  0.0462  0.2328 -0.3664
18833TIP3    H177914   1.966   2.659  13.810 -1.2534  0.8938 -1.5522
18833TIP3    H277915   2.007   2.710  13.673  0.9634 -0.4919 -1.4456
18834TIP3   OH277916   5.270   4.074   1.166 -0.3685 -0.7951  0.3258
18834TIP3    H177917   5.184   4.114   1.164 -0.3036 -0.6370  0.7549
18834TIP3    H277918   5.309   4.096   1.081  0.3680  1.5836  1.2154
18835TIP3   OH277919   1.675   3.336   2.061  0.0351  0.7606  0.7006
18835TIP3    H177920   1.683   3.293   1.976 -1.1310  0.5638  0.6752
18835TIP3    H277921   1.765   3.343   2.093  0.7676  2.8934 -1.5343
18836TIP3   OH277922   3.924   5.960  13.435 -0.1348 -0.4867  0.2963
18836TIP3    H177923   3.892   6.049  13.449  0.5408  0.2558 -2.2886
18836TIP3    H277924   3.904   5.941  13.343 -0.3071 -3.0544  0.7773
18837TIP3   OH277925   4.153   1.676  11.848 -0.3575  0.0549  0.0047
18837TIP3    H177926   4.217   1.721  11.903  0.4871 -1.7019  0.5308
18837TIP3    H277927   4.194   1.670  11.762 -0.6366  0.6046 -0.1736
18838TIP3   OH277928   0.367   6.445   0.184  0.0530 -0.0874 -0.0755
18838TIP3    H177929   0.329   6.529   0.210  1.4185 -0.0359  2.0438
18838TIP3    H277930   0.419   6.465   0.106 -1.6587  0.4606 -1.1277
18839TIP3   OH277931   0.749   6.465  13.768  0.0619 -0.3709 -0.4940
18839TIP3    H177932   0.653   6.461  13.768  0.0346 -0.6351  1.4814
18839TIP3    H277933   0.775   6.407  13.696 -1.2394  0.6796 -1.8895
18840TIP3   OH277934   4.415   5.980  14.119  0.6654  0.3991 -0.0462
18840TIP3    H177935   4.418   5.923  14.042  0.6237  0.0922  0.1807
18840TIP3    H277936   4.479   5.943  14.180 -0.0559  0.0120  0.4977
18841TIP3   OH277937   2.393   6.471  12.205  0.6578 -0.3979 -0.2664
18841TIP3    H177938   2.452   6.484  12.130 -1.4510  2.2483 -1.6208
18841TIP3    H277939   2.326   6.411  12.173  2.1383 -2.9743  1.1072
18842TIP3   OH277940   1.132   1.685   4.337 -0.0312 -0.8486  0.1493
18842TIP3    H177941   1.098   1.649   4.419 -0.3585 -0.5594  0.1400
18842TIP3    H277942   1.165   1.771   4.360 -1.5729 -0.0923 -0.3156
18843TIP3   OH277943   0.893   2.148   4.675 -0.2688 -0.2141  0.3328
18843TIP3    H177944   0.962   2.214   4.676  0.5758 -1.0399 -0.4562
18843TIP3    H277945   0.822   2.188   4.626 -0.6863  0.9395  1.8146
18844TIP3   OH277946   5.809   3.681   3.798  0.2297  0.0763  0.0802
18844TIP3    H177947   5.718   3.653   3.784  0.0155  0.8822 -0.2095
18844TIP3    H277948   5.822   3.675   3.893 -0.3798  0.6595  0.2124
18845TIP3   OH277949   3.692   6.335  14.802  0.6415  0.1418 -0.3988
18845TIP3    H177950   3.690   6.353  14.708  1.1447  1.1176 -0.2398
18845TIP3    H277951   3.720   6.244  14.808  0.0656 -0.1031 -1.2036
18846TIP3   OH277952   4.504   3.703   1.100 -0.7578  0.8347 -0.1156
18846TIP3    H177953   4.520   3.797   1.087 -0.5690  1.1213  1.7975
18846TIP3    H277954   4.530   3.687   1.191 -1.1030 -1.0170 -0.3037
18847TIP3   OH277955   5.477   5.704   5.067  0.3891 -0.0599 -0.3861
18847TIP3    H177956   5.389   5.684   5.100  0.8191  0.4776  1.1688
18847TIP3    H277957   5.491   5.796   5.089  1.6128 -0.3267  0.0418
18848TIP3   OH277958   0.168   3.929  14.930 -0.0678  0.2196  0.4347
18848TIP3    H177959   0.079   3.921  14.963 -0.1757 -0.4370  0.0053
18848TIP3    H277960   0.162   3.897  14.839  0.9409 -1.5075  0.9389
18849TIP3   OH277961   1.358   0.865  15.590  0.4836 -0.0339  0.3211
18849TIP3    H177962   1.403   0.812  15.656  2.8088 -0.7534 -1.6794
18849TIP3    H277963   1.314   0.801  15.534  0.2782  0.4187 -0.0333
18850TIP3   OH277964   5.485   1.347   0.105 -0.7125 -0.4119 -0.4681
18850TIP3    H177965   5.456   1.426   0.151 -0.0080  0.5536 -1.6124
18850TIP3    H277966   5.409   1.323   0.050 -0.3893  0.4277 -1.3105
18851TIP3   OH277967   3.005   0.908   2.504  0.1712  0.4400  0.1399
18851TIP3    H177968   2.950   0.979   2.536 -1.1247 -0.3948 -0.1731
18851TIP3    H277969   2.982   0.832   2.558  1.3780  0.1814  0.3318
18852TIP3   OH277970   3.595   2.653  11.858 -0.1556 -0.4852  0.3650
18852TIP3    H177971   3.596   2.583  11.792  0.0910  0.1411 -0.3159
18852TIP3    H277972   3.516   2.703  11.839 -0.9150 -1.2020  1.5421
18853TIP3   OH277973   4.728   6.543  12.356 -0.4991 -0.0378  0.0293
18853TIP3    H177974   4.724   6.564  12.262 -2.8285  1.6552  0.4049
18853TIP3    H277975   4.763   6.622  12.396 -1.5823  0.0718  0.7736
18854TIP3   OH277976   6.756   1.048  16.333  0.3333 -0.3629  0.2910
18854TIP3    H177977   6.684   1.064  16.394 -0.0232 -0.4539 -0.1019
18854TIP3    H277978   6.789   1.135  16.311  0.9111 -0.3566  1.1397
18855TIP3   OH277979   2.809   6.014   5.548 -0.4457  0.7766  0.7082
18855TIP3    H177980   2.827   6.015   5.642  0.2382  0.5793  0.5825
18855TIP3    H277981   2.822   6.105   5.520  2.5927  0.2943  0.2252
18856TIP3   OH277982   4.241   1.086  13.102 -0.4073  0.1451  0.4682
18856TIP3    H177983   4.280   1.002  13.131  0.7557  0.5351  0.0976
18856TIP3    H277984   4.161   1.061  13.058 -0.4876 -0.7223  1.0694
18857TIP3   OH277985   5.884   1.557  16.026  0.3679 -0.9323  0.0312
18857TIP3    H177986   5.978   1.565  16.042  0.0440 -0.5697  1.9730
18857TIP3    H277987   5.861   1.469  16.056  0.0954 -1.0402 -0.4826
18858TIP3   OH277988   5.309   3.289  15.833 -0.4737  0.2066 -0.3340
18858TIP3    H177989   5.397   3.288  15.796 -0.4160 -1.0389 -0.2043
18858TIP3    H277990   5.322   3.287  15.928 -0.6386  2.1508 -0.2323
18859TIP3   OH277991   2.122   1.413   1.192  0.3470 -0.6111  0.1413
18859TIP3    H177992   2.195   1.432   1.132  0.7124  0.6264  0.9334
18859TIP3    H277993   2.045   1.413   1.135  0.9969 -2.5791 -0.8135
18860TIP3   OH277994   1.150   5.206  13.430  0.4460 -0.0842  0.0884
18860TIP3    H177995   1.073   5.240  13.384  0.3534  0.1452  0.4064
18860TIP3    H277996   1.221   5.214  13.367  0.7886  2.2982  0.6817
18861TIP3   OH277997   0.010   2.226  15.747 -0.3197 -0.0049  0.8738
18861TIP3    H177998  -0.078   2.230  15.710  0.4010 -0.2534 -0.9692
18861TIP3    H277999   0.013   2.142  15.794 -1.1707  0.1949  1.3112
18862TIP3   OH278000   4.138   5.789  13.519 -0.2002  0.0909 -0.2225
18862TIP3    H178001   4.078   5.761  13.588  1.3100 -1.2893  0.5781
18862TIP3    H278002   4.094   5.864  13.479 -1.7432  0.0853  1.3344
18863TIP3   OH278003   3.505   2.437   2.468 -0.1748  0.4614  0.1791
18863TIP3    H178004   3.508   2.360   2.411  0.6981 -0.0825  0.9330
18863TIP3    H278005   3.428   2.486   2.439 -0.5519 -0.5291 -0.5233
18864TIP3   OH278006   1.974   4.088   6.359  0.0572  0.5261 -0.1143
18864TIP3    H178007   1.932   4.165   6.397 -2.0760  0.5335 -2.2445
18864TIP3    H278008   1.918   4.015   6.385  0.1399  0.1786 -0.8837
18865TIP3   OH278009   1.580   0.823  13.086  0.8802 -0.0657  0.0549
18865TIP3    H178010   1.559   0.850  12.996 -0.7839 -0.9969  0.1239
18865TIP3    H278011   1.650   0.758  13.075  0.4375 -0.4492 -0.6199
18866TIP3   OH278012   1.329   0.389   4.535 -0.2776  0.0835  0.2211
18866TIP3    H178013   1.351   0.455   4.601 -0.9403  1.0621 -0.5016
18866TIP3    H278014   1.325   0.307   4.583  1.2717  0.4487  1.0203
18867TIP3   OH278015   3.875   5.232  11.156  0.2365 -0.2307 -0.1231
18867TIP3    H178016   3.836   5.317  11.174  2.0419  0.3566  1.3088
18867TIP3    H278017   3.862   5.220  11.062 -1.8005  0.6680 -0.0194
18868TIP3   OH278018   5.329   2.852   1.161  0.1064  0.2242  0.0307
18868TIP3    H178019   5.276   2.918   1.116  0.8005 -1.3048 -3.3134
18868TIP3    H278020   5.266   2.784   1.185  0.2236 -1.2747 -3.3303
18869TIP3   OH278021   5.515   5.084   2.056  0.5567 -0.0335  0.8027
18869TIP3    H178022   5.459   5.018   2.095 -0.8998  1.2390  0.9662
18869TIP3    H278023   5.504   5.162   2.111 -0.9395  1.5718 -1.5421
18870TIP3   OH278024   2.989   4.328  10.899  0.3440 -0.1851  0.0394
18870TIP3    H178025   3.077   4.294  10.916  1.6749  1.5365 -2.5947
18870TIP3    H278026   2.996   4.366  10.811 -3.1295 -0.1736 -0.3521
18871TIP3   OH278027   2.926   3.403  15.767 -0.2917 -0.0271  0.4918
18871TIP3    H178028   3.007   3.387  15.719 -0.5585 -0.5679  0.2134
18871TIP3    H278029   2.874   3.323  15.754 -0.8720  0.3187  0.6556
18872TIP3   OH278030   0.155   5.499   3.938  0.0385 -0.1374  0.5711
18872TIP3    H178031   0.140   5.452   4.020  0.3070 -1.2781 -0.0124
18872TIP3    H278032   0.068   5.522   3.906 -0.1061 -0.4496  0.7465
18873TIP3   OH278033   6.766   4.781   3.678 -0.0954  0.0354  0.4372
18873TIP3    H178034   6.770   4.860   3.625 -1.0519  0.5145  1.0405
18873TIP3    H278035   6.724   4.716   3.622 -0.4859  0.3432  0.3683
18874TIP3   OH278036   2.879   4.795   2.393 -0.0565  0.0447 -0.3658
18874TIP3    H178037   2.868   4.886   2.421 -1.6956 -0.3445  0.3819
18874TIP3    H278038   2.814   4.746   2.443  1.1967 -1.6565 -0.3103
18875TIP3   OH278039   2.786   1.606  14.743  0.2146  0.5509  0.7177
18875TIP3    H178040   2.701   1.568  14.766  0.8009 -1.3576 -0.0391
18875TIP3    H278041   2.766   1.673  14.678 -0.5918 -1.7014 -1.5267
18876TIP3   OH278042   0.945   1.542  14.476 -0.1892 -0.5477  0.1200
18876TIP3    H178043   0.916   1.502  14.558 -2.5922  2.6519  1.0385
18876TIP3    H278044   0.869   1.539  14.419  0.1193  0.9786 -0.4291
18877TIP3   OH278045   2.368   3.855   5.704 -0.5317 -0.0124 -0.3769
18877TIP3    H178046   2.366   3.920   5.634  1.0431 -0.2490 -0.6592
18877TIP3    H278047   2.358   3.771   5.660 -0.9198 -0.0805 -0.1681
18878TIP3   OH278048   1.308   5.566  12.489  0.0224  0.0499 -0.6489
18878TIP3    H178049   1.287   5.588  12.580  1.6650 -0.7008 -0.0568
18878TIP3    H278050   1.349   5.646  12.455 -2.6320  1.1841 -1.5279
18879TIP3   OH278051   0.887   0.335   5.928 -0.4358  0.5477 -0.4660
18879TIP3    H178052   0.853   0.250   5.953  1.7358  0.0762  1.1997
18879TIP3    H278053   0.903   0.328   5.834 -2.3103 -0.0795 -0.7683
18880TIP3   OH278054   3.881   1.037  11.798 -0.3118  0.2000 -0.3168
18880TIP3    H178055   3.815   1.105  11.787  1.0723  1.4321 -1.4383
18880TIP3    H278056   3.867   0.977  11.725 -0.9275 -0.2179  0.1334
18881TIP3   OH278057   2.169   1.055  16.599 -0.0513  0.5473  0.6652
18881TIP3    H178058   2.153   1.024  16.510  1.0461  1.4640  0.1176
18881TIP3    H278059   2.090   1.103  16.622 -1.3492 -1.6494  1.1350
18882TIP3   OH278060   4.868   3.475  16.263  0.2264 -0.1536 -0.4792
18882TIP3    H178061   4.953   3.499  16.299  0.4906  1.5258 -2.0092
18882TIP3    H278062   4.878   3.488  16.168 -2.2530  2.1248 -0.5730
18883TIP3   OH278063   4.481   6.496   2.303 -0.2683  0.3229 -0.4422
18883TIP3    H178064   4.394   6.474   2.336  0.2868 -1.0976  0.1613
18883TIP3    H278065   4.472   6.584   2.267 -2.0002  0.1051 -0.6011
18884TIP3   OH278066   2.382   1.018  13.844 -0.0408  0.5155 -0.1289
18884TIP3    H178067   2.474   1.034  13.826  0.2744  0.2767  1.1709
18884TIP3    H278068   2.337   1.042  13.762  1.1234  0.9393 -0.6702
18885TIP3   OH278069   2.826   0.755   6.479  0.8721 -0.0025  0.3208
18885TIP3    H178070   2.733   0.746   6.499  1.0243  0.1450  1.1312
18885TIP3    H278071   2.858   0.665   6.473  0.9611 -0.0594  1.4648
18886TIP3   OH278072   2.657   5.150   5.760  0.4307 -0.2687 -0.1214
18886TIP3    H178073   2.671   5.151   5.855  0.5423 -0.7653 -0.1306
18886TIP3    H278074   2.562   5.153   5.749  0.4233 -0.0163 -0.0010
18887TIP3   OH278075   1.645   5.980  10.841 -0.6660 -0.1507 -0.1132
18887TIP3    H178076   1.633   6.014  10.753  0.7585  0.8630  0.0432
18887TIP3    H278077   1.681   5.892  10.829 -1.1356 -0.2850 -0.5397
18888TIP3   OH278078   3.450   4.672  13.072 -0.1627 -0.3748 -0.1926
18888TIP3    H178079   3.473   4.706  12.986  1.1006  0.9475  0.6083
18888TIP3    H278080   3.478   4.741  13.133 -2.0373 -0.7850  1.2124
18889TIP3   OH278081   0.301   0.369   3.538 -0.4896  0.8947 -0.3166
18889TIP3    H178082   0.219   0.336   3.576 -0.6326 -1.3953 -2.3351
18889TIP3    H278083   0.366   0.303   3.560 -0.2385  0.3299 -2.5526
18890TIP3   OH278084   0.408   3.469  11.461  0.1821 -0.0073  0.2477
18890TIP3    H178085   0.356   3.495  11.384 -1.1930  1.4060  1.5659
18890TIP3    H278086   0.467   3.543  11.475  0.0085  0.0200  0.8700
18891TIP3   OH278087   2.890   2.176  12.654 -0.4879  0.2752  0.2319
18891TIP3    H178088   2.849   2.198  12.570 -0.9682  1.7547  0.8202
18891TIP3    H278089   2.856   2.242  12.715 -1.1144 -1.4914  1.8826
18892TIP3   OH278090   2.964   5.290  14.549 -0.3956 -0.5514 -0.4521
18892TIP3    H178091   2.891   5.228  14.545 -0.5909 -0.2715 -1.8043
18892TIP3    H278092   2.968   5.317  14.641 -0.5529 -2.2438  0.0882
18893TIP3   OH278093   5.120   5.294  14.985 -0.8510 -0.8552 -0.3344
18893TIP3    H178094   5.053   5.363  14.981  1.0928  1.2811  1.3384
18893TIP3    H278095   5.071   5.213  14.998 -3.1271  0.6198  0.8403
18894TIP3   OH278096   5.096   4.410   5.857 -0.0325 -0.3341 -0.1877
18894TIP3    H178097   5.005   4.417   5.888  0.5414  0.5315  1.4591
18894TIP3    H278098   5.094   4.450   5.770 -1.0865  0.4931  0.1793
18895TIP3   OH278099   1.793   3.557   2.317  0.7687  0.0352  0.1969
18895TIP3    H178100   1.773   3.485   2.257  0.0451 -1.3617  2.0311
18895TIP3    H278101   1.871   3.529   2.363  0.0261  0.0419  1.4931
18896TIP3   OH278102   2.105   5.345  16.249 -0.1293 -0.0980  0.4343
18896TIP3    H178103   2.119   5.278  16.316  0.9620 -0.3114  0.0185
18896TIP3    H278104   2.107   5.298  16.166  0.9659  0.4711  0.1165
18897TIP3   OH278105   0.683   3.387  16.995 -0.2487  0.0314 -0.4665
18897TIP3    H178106   0.596   3.418  16.971 -0.9603  0.5073  2.4001
18897TIP3    H278107   0.702   3.429  17.079  2.0669 -1.3342 -0.2105
18898TIP3   OH278108   4.846   1.862   2.180  0.1698 -0.5477 -0.8403
18898TIP3    H178109   4.871   1.954   2.175 -0.0826 -0.3706  0.8938
18898TIP3    H278110   4.842   1.834   2.088 -1.9366  1.7367 -1.5610
18899TIP3   OH278111   6.598   6.617  10.229  0.1911 -0.3012  0.4903
18899TIP3    H178112   6.572   6.662  10.309  0.9308  0.5463  0.2708
18899TIP3    H278113   6.693   6.604  10.239  0.6915  1.6884 -1.1251
18900TIP3   OH278114   0.655   6.784  13.817  0.2230  0.4111  0.3005
18900TIP3    H178115   0.624   6.838  13.744 -1.3329  0.0945  0.6756
18900TIP3    H278116   0.667   6.697  13.779 -0.3641  0.3003  0.3497
18901TIP3   OH278117   6.289   6.562  12.577 -0.1391 -0.2153  0.4051
18901TIP3    H178118   6.197   6.542  12.591 -1.0388  0.0792 -3.7437
18901TIP3    H278119   6.294   6.658  12.581 -0.3931 -0.1324 -0.8821
18902TIP3   OH278120   6.249   5.778  10.746  0.4657 -0.5883  0.2304
18902TIP3    H178121   6.194   5.818  10.813 -1.1737 -0.1028 -1.2969
18902TIP3    H278122   6.220   5.687  10.742  1.4216 -0.9443  0.9822
18903TIP3   OH278123   5.333   6.420  12.307 -0.5507 -0.7178 -0.4688
18903TIP3    H178124   5.275   6.363  12.356 -0.6514  0.1839  0.4969
18903TIP3    H278125   5.277   6.489  12.274 -0.0257  0.3123  0.7049
18904TIP3   OH278126   3.335   4.843  11.999 -0.4253 -0.2487  0.5108
18904TIP3    H178127   3.396   4.792  12.053 -0.9959 -3.3869 -1.4992
18904TIP3    H278128   3.391   4.902  11.949  0.5483 -0.3281  1.4617
18905TIP3   OH278129   6.168   1.848   4.009 -0.1293 -0.2264 -0.7053
18905TIP3    H178130   6.108   1.843   4.083  0.5053  0.3429 -0.1327
18905TIP3    H278131   6.132   1.917   3.953 -0.1209 -0.0281 -0.4667
18906TIP3   OH278132   4.903   1.153   2.759  0.0839 -0.0648 -1.4063
18906TIP3    H178133   4.981   1.200   2.730  0.6483 -0.5031 -0.6446
18906TIP3    H278134   4.860   1.124   2.679 -1.4555  3.5191 -2.0813
18907TIP3   OH278135   4.383   0.753   4.976 -0.3444 -0.5268  0.3682
18907TIP3    H178136   4.306   0.783   5.024 -0.7134  1.0022 -1.0916
18907TIP3    H278137   4.457   0.782   5.030 -0.7542  1.1479  0.0914
18908TIP3   OH278138   2.664   6.687   2.688 -0.2604 -0.2605 -0.0913
18908TIP3    H178139   2.751   6.712   2.719  0.5670 -2.2822 -0.6591
18908TIP3    H278140   2.669   6.698   2.593  0.0520 -2.2158 -0.3357
18909TIP3   OH278141   1.347   5.577   0.242  0.0663  0.3370  0.5160
18909TIP3    H178142   1.411   5.643   0.218 -0.1037  0.3716  0.1385
18909TIP3    H278143   1.363   5.559   0.334 -0.1157  1.1605  0.7161
18910TIP3   OH278144   1.170   0.783  14.504  0.4993  0.4931 -0.3618
18910TIP3    H178145   1.093   0.727  14.514  0.5643  0.7406  1.9761
18910TIP3    H278146   1.188   0.782  14.410 -1.7190 -0.4067 -0.8363
18911TIP3   OH278147   4.956   5.782   3.497  0.8422  0.4981  0.1503
18911TIP3    H178148   4.911   5.799   3.414 -0.5131 -0.0933  0.7394
18911TIP3    H278149   4.954   5.866   3.542  0.7454  0.5904 -0.0228
18912TIP3   OH278150   5.077   0.234   3.729 -0.1178  0.1401  0.6092
18912TIP3    H178151   5.115   0.323   3.728  0.2111  0.0004  0.4398
18912TIP3    H278152   5.125   0.190   3.799 -0.1975  0.0606  0.6125
18913TIP3   OH278153   2.923   5.212  12.502  0.4308  0.7178  0.0829
18913TIP3    H178154   2.915   5.271  12.577 -1.7993 -0.2316  0.6660
18913TIP3    H278155   2.834   5.182  12.485  1.2021 -0.8365 -1.5308
18914TIP3   OH278156   0.401   0.077  14.358 -0.0843  0.8364  0.1954
18914TIP3    H178157   0.320   0.055  14.312 -1.4700  1.8876  2.0105
18914TIP3    H278158   0.429   0.161  14.321  0.0257  0.6247 -0.2109
18915TIP3   OH278159   1.755   5.948   2.109 -0.1067  0.2997  0.1542
18915TIP3    H178160   1.792   6.036   2.103  0.9144  0.0600  2.1057
18915TIP3    H278161   1.686   5.955   2.175 -1.1092 -0.0466 -0.8344
18916TIP3   OH278162   6.081   5.315  13.471  0.5253  0.2635  0.5543
18916TIP3    H178163   6.113   5.245  13.415  0.6055  0.4164  0.4065
18916TIP3    H278164   5.989   5.325  13.446  0.1635 -0.6543  1.4783
18917TIP3   OH278165   0.683   3.589  14.079 -0.0033 -0.0869  0.1680
18917TIP3    H178166   0.617   3.650  14.113 -0.8720  0.1251 -1.7488
18917TIP3    H278167   0.636   3.506  14.071  0.2359 -0.1859 -0.2548
18918TIP3   OH278168   4.699   2.811   4.656 -0.1049 -0.0783  0.1973
18918TIP3    H178169   4.744   2.783   4.736 -0.1820 -0.1667  0.2109
18918TIP3    H278170   4.706   2.906   4.656  2.4109 -0.1874 -1.1708
18919TIP3   OH278171   4.522   3.426  14.607 -0.4918  0.2973  0.9459
18919TIP3    H178172   4.572   3.419  14.688 -0.8341 -0.5476  1.1040
18919TIP3    H278173   4.554   3.505  14.564  0.9030 -0.1668  1.0943
18920TIP3   OH278174   1.355   2.812  10.473  0.1662  0.2278 -0.2560
18920TIP3    H178175   1.415   2.809  10.399  1.4034 -1.8782  0.7687
18920TIP3    H278176   1.384   2.887  10.525  1.8756 -0.6604  0.1411
18921TIP3   OH278177   5.187   6.716   1.600  0.3241  0.6772  0.3004
18921TIP3    H178178   5.113   6.743   1.546  1.8964  1.3019 -1.6414
18921TIP3    H278179   5.159   6.632   1.637 -1.4735  1.0440 -0.0866
18922TIP3   OH278180   3.491   1.789  15.805  0.0241  0.0746 -0.0530
18922TIP3    H178181   3.569   1.806  15.858 -0.3999 -0.1219  0.6428
18922TIP3    H278182   3.482   1.693  15.805 -0.9061  0.1385  0.9074
18923TIP3   OH278183   6.554   1.363   3.577 -0.0369 -0.0023 -0.0063
18923TIP3    H178184   6.579   1.295   3.639  0.5517 -0.4777 -0.7425
18923TIP3    H278185   6.493   1.419   3.625  2.5347  1.3322  1.9716
18924TIP3   OH278186   6.295   3.429   2.085 -0.4553 -0.0050  0.2606
18924TIP3    H178187   6.387   3.447   2.106 -0.8591  1.6990  0.7286
18924TIP3    H278188   6.262   3.512   2.051 -1.7386 -0.7051 -0.2676
18925TIP3   OH278189   5.669   0.230   5.144 -0.5636 -0.4153  0.2677
18925TIP3    H178190   5.582   0.201   5.118 -1.0935  0.7730  0.6830
18925TIP3    H278191   5.655   0.314   5.188  0.6990 -0.5912  1.0630
18926TIP3   OH278192   2.588   4.439  16.053 -0.1839 -0.3825 -0.3211
18926TIP3    H178193   2.506   4.488  16.050  0.3422  0.5756  0.3458
18926TIP3    H278194   2.640   4.475  15.980  1.6762  2.8800  2.3120
18927TIP3   OH278195   1.242   4.302  14.710 -0.9262 -0.0862  0.4024
18927TIP3    H178196   1.315   4.310  14.648 -1.0275 -1.4731  0.0711
18927TIP3    H278197   1.189   4.379  14.693 -0.9553 -0.4338 -1.2805
18928TIP3   OH278198   2.889   0.363  10.900 -0.1477  0.2192 -0.0675
18928TIP3    H178199   2.914   0.452  10.875 -0.4002  0.3046 -0.0255
18928TIP3    H278200   2.849   0.327  10.821  2.0434 -0.6783 -0.8256
18929TIP3   OH278201   6.362   0.032   0.039  0.4029  0.3577  0.2337
18929TIP3    H178202   6.402  -0.053   0.057 -0.3888 -0.5176 -1.8040
18929TIP3    H278203   6.271   0.021   0.063 -0.1923 -0.1501 -1.9842
18930TIP3   OH278204   6.324   4.837  17.152  0.5553 -0.4066 -0.3402
18930TIP3    H178205   6.299   4.922  17.189  0.5721 -0.5433 -0.0132
18930TIP3    H278206   6.364   4.790  17.224 -1.6334 -1.6207  0.1744
18931TIP3   OH278207   2.412   1.713   0.321  0.0960 -0.0117 -0.2534
18931TIP3    H178208   2.486   1.774   0.321 -0.0374  0.1586  0.5527
18931TIP3    H278209   2.335   1.768   0.309  0.1108 -0.2226 -1.4201
18932TIP3   OH278210   1.012   0.095  16.006  0.3378  0.1133  0.2158
18932TIP3    H178211   0.989   0.188  16.008  0.0472  0.0358  0.8616
18932TIP3    H278212   1.100   0.093  15.968 -0.1253  0.5447 -0.9120
18933TIP3   OH278213   0.314   2.703  13.703  0.1481 -0.1176  0.8435
18933TIP3    H178214   0.386   2.654  13.742 -0.6652 -0.7022  1.6437
18933TIP3    H278215   0.341   2.717  13.612  1.1466 -0.5541  1.0578
18934TIP3   OH278216   5.734   6.388   5.165 -0.3920  0.2853 -0.4642
18934TIP3    H178217   5.671   6.345   5.223  0.5016  0.0548  0.3765
18934TIP3    H278218   5.681   6.442   5.107 -1.2918  0.9112  0.8898
18935TIP3   OH278219   6.268   4.050  15.158 -0.0526 -0.3876 -0.8297
18935TIP3    H178220   6.275   4.119  15.093  0.3257  2.0338  1.5705
18935TIP3    H278221   6.348   3.998  15.148  1.6692  1.9734 -0.2116
18936TIP3   OH278222   2.180   0.706   4.673 -0.2845  0.3455 -0.2307
18936TIP3    H178223   2.217   0.673   4.591  0.4719  0.1259  0.1865
18936TIP3    H278224   2.120   0.637   4.701 -0.6176  0.4649 -0.6501
18937TIP3   OH278225   5.132   1.448  16.540  0.2302  0.2859  0.1414
18937TIP3    H178226   5.219   1.485  16.526  1.2182 -1.4476  1.1638
18937TIP3    H278227   5.110   1.472  16.630 -0.2206  0.4910 -0.0228
18938TIP3   OH278228   5.159   3.768   5.831 -0.3449  0.0485  0.4468
18938TIP3    H178229   5.082   3.714   5.849  0.2727 -0.4720  1.6781
18938TIP3    H278230   5.133   3.857   5.856 -1.1595  0.2467 -0.9923
18939TIP3   OH278231   0.808   5.613   4.574  0.2764 -0.1470 -0.2626
18939TIP3    H178232   0.879   5.676   4.562  0.3995 -0.4464 -1.2517
18939TIP3    H278233   0.728   5.667   4.576  0.3612  0.0391 -1.3279
18940TIP3   OH278234   2.481   1.430   1.282 -0.0330  0.1871  0.1370
18940TIP3    H178235   2.508   1.514   1.244 -0.4728  1.4588  2.4365
18940TIP3    H278236   2.459   1.375   1.207 -1.6693  2.7767 -1.4160
18941TIP3   OH278237   3.652   0.892   5.200 -0.2813  0.1279 -0.0487
18941TIP3    H178238   3.696   0.807   5.196  1.6110  1.0525 -0.1092
18941TIP3    H278239   3.576   0.882   5.144 -0.6716 -1.8206  0.7358
18942TIP3   OH278240   2.700   4.539  15.565  0.0291 -0.3435 -0.8511
18942TIP3    H178241   2.780   4.487  15.558  0.6702  0.3469  0.8383
18942TIP3    H278242   2.716   4.615  15.509  0.3533 -0.4511 -0.9039
18943TIP3   OH278243   1.931   1.584   4.969 -0.0637  0.0897 -0.8183
18943TIP3    H178244   1.925   1.578   5.064 -0.4996  1.4884 -0.7410
18943TIP3    H278245   2.004   1.644   4.953 -0.8423  0.9202 -1.3240
18944TIP3   OH278246   4.480   1.009  14.284 -0.2190 -0.0002  0.2352
18944TIP3    H178247   4.538   0.984  14.212  1.0202  1.7227  0.5894
18944TIP3    H278248   4.396   1.027  14.241  0.4914  0.9902 -0.8043
18945TIP3   OH278249   5.064   5.983   2.428  0.2034 -0.2948 -0.3336
18945TIP3    H178250   5.076   5.892   2.454 -0.8189 -0.5519 -0.7450
18945TIP3    H278251   5.130   6.031   2.480  1.4764 -1.3680 -0.9029
18946TIP3   OH278252   6.666   0.435   5.023 -0.1043  0.2415 -0.0995
18946TIP3    H178253   6.627   0.352   5.049 -0.2168  0.6360  1.0387
18946TIP3    H278254   6.632   0.499   5.085  0.5550  1.0149 -0.4995
18947TIP3   OH278255   1.064   0.274   4.570 -0.6176  0.8743 -0.7854
18947TIP3    H178256   1.088   0.271   4.477  0.4713  0.7550 -0.5096
18947TIP3    H278257   1.112   0.201   4.609 -1.3771  0.6876 -0.1954
18948TIP3   OH278258   2.756   0.254  13.374  0.1997  0.5258  0.0617
18948TIP3    H178259   2.742   0.241  13.280 -1.9866  0.8088  0.2823
18948TIP3    H278260   2.691   0.197  13.416 -0.1014  1.7377  1.3327
18949TIP3   OH278261   2.073   6.767  11.364 -0.4305 -0.1321 -0.1177
18949TIP3    H178262   2.132   6.708  11.411  1.0762  2.7017  1.8364
18949TIP3    H278263   2.120   6.789  11.283  0.2526  0.4305  0.4186
18950TIP3   OH278264   5.871   6.127  16.670 -0.1062 -0.2424 -0.3911
18950TIP3    H178265   5.792   6.178  16.690  1.0198  1.6917 -0.6563
18950TIP3    H278266   5.838   6.044  16.636 -2.0196  0.0542  0.6130
18951TIP3   OH278267   5.826   0.493   6.378 -0.5419 -0.0622 -0.6532
18951TIP3    H178268   5.914   0.503   6.339 -0.5369  2.4586 -0.1662
18951TIP3    H278269   5.842   0.453   6.463 -0.1042 -1.4902 -1.3720
18952TIP3   OH278270   1.925   0.843   1.196  0.1180  0.7335 -0.6151
18952TIP3    H178271   1.834   0.837   1.225  0.4691  2.1246  1.0068
18952TIP3    H278272   1.939   0.937   1.183  1.7185  0.7008  0.6240
18953TIP3   OH278273   5.453   2.245  11.043  0.0449  0.4883 -0.0704
18953TIP3    H178274   5.475   2.209  11.129 -1.2061 -0.5320 -0.1481
18953TIP3    H278275   5.404   2.325  11.062 -1.5896 -0.5490  0.2246
18954TIP3   OH278276   4.837   5.148   2.926  0.1383  0.6718  0.6994
18954TIP3    H178277   4.873   5.102   3.001  0.2146  1.3041  1.0559
18954TIP3    H278278   4.862   5.094   2.851 -0.8331 -0.5241  1.1982
18955TIP3   OH278279   2.429   0.343   0.037 -0.0701  0.3462 -0.3818
18955TIP3    H178280   2.515   0.369   0.004 -0.0975  1.0582  0.0823
18955TIP3    H278281   2.373   0.345  -0.040  0.1878  0.5355 -0.5700
18956TIP3   OH278282   0.932   5.951  15.065 -0.2385  0.2884  0.1612
18956TIP3    H178283   0.858   5.984  15.116 -0.4566  0.5034 -0.2911
18956TIP3    H278284   0.892   5.913  14.987  0.1027  0.0688  0.0932
18957TIP3   OH278285   5.314   1.104   4.885 -0.1624 -0.6868 -0.4925
18957TIP3    H178286   5.399   1.065   4.902 -0.5681 -1.3506  0.0496
18957TIP3    H278287   5.313   1.184   4.938  0.0660 -0.7507 -0.3943
18958TIP3   OH278288   3.645   1.592   4.824  0.0671 -0.1849 -0.0045
18958TIP3    H178289   3.582   1.556   4.761  0.9443  0.1454 -1.0817
18958TIP3    H278290   3.717   1.624   4.771 -0.0399  1.9016  1.0125
18959TIP3   OH278291   2.828   4.559   2.140 -0.3418  0.1086  0.0839
18959TIP3    H178292   2.752   4.591   2.188 -0.4499 -0.7775  0.5267
18959TIP3    H278293   2.895   4.546   2.207 -0.1751 -0.1995 -0.1401
18960TIP3   OH278294   0.579   6.118  13.870  0.5380  0.2554 -0.6125
18960TIP3    H178295   0.495   6.162  13.853 -0.3319 -0.8624  0.5205
18960TIP3    H278296   0.579   6.043  13.811  0.3500 -0.1968 -0.0466
18961TIP3   OH278297   2.198   4.361  14.321 -0.2211  0.1036  0.2200
18961TIP3    H178298   2.146   4.415  14.380 -0.8219  0.5416 -0.6901
18961TIP3    H278299   2.182   4.398  14.234  0.2877 -0.8083 -0.2772
18962TIP3   OH278300   3.235   2.759   1.758 -0.8321 -0.0228 -0.1045
18962TIP3    H178301   3.187   2.777   1.677 -0.5815  2.6012  0.2554
18962TIP3    H278302   3.171   2.774   1.828 -0.1605  1.2326  0.2802
18963TIP3   OH278303   4.583   5.250   6.065  0.5041 -0.0055 -0.0155
18963TIP3    H178304   4.554   5.284   6.150 -0.3181 -1.0795  0.1633
18963TIP3    H278305   4.674   5.276   6.059 -0.1429  2.5390 -0.0881
18964TIP3   OH278306   6.322   4.130  12.815  0.0089  0.0506 -0.0416
18964TIP3    H178307   6.238   4.083  12.815 -0.4082  0.7545 -1.6248
18964TIP3    H278308   6.298   4.223  12.814  0.7626  0.2609 -1.7731
18965TIP3   OH278309   4.778   0.877  15.808  0.3056 -0.1071  0.3476
18965TIP3    H178310   4.813   0.820  15.876 -0.4059  0.4819  1.2419
18965TIP3    H278311   4.802   0.965  15.835  1.3066  0.0501 -0.9657
18966TIP3   OH278312   6.372   5.569  11.854 -0.3062  0.3559  0.7460
18966TIP3    H178313   6.323   5.575  11.772 -0.5643 -2.7681  0.5449
18966TIP3    H278314   6.463   5.581  11.829 -0.4602  0.3153  0.1577
18967TIP3   OH278315   4.046   6.250   2.075 -0.1370  0.1882 -1.2851
18967TIP3    H178316   4.074   6.259   2.165  0.0948  3.4507 -1.5842
18967TIP3    H278317   3.981   6.180   2.077  1.0581 -0.9584  1.0602
18968TIP3   OH278318   2.246   5.433   3.698 -0.4094 -0.0719 -0.1469
18968TIP3    H178319   2.205   5.384   3.769 -0.7216 -1.5028 -1.2684
18968TIP3    H278320   2.334   5.451   3.730 -0.5402 -0.7016  0.6154
18969TIP3   OH278321   4.261   5.544  16.222  0.1860 -0.3839  0.2242
18969TIP3    H178322   4.344   5.536  16.175  0.0830 -0.0232 -0.0182
18969TIP3    H278323   4.213   5.464  16.199 -0.6427  0.6462 -1.8144
18970TIP3   OH278324   2.577   2.160  11.564  0.1756 -0.3532 -0.4536
18970TIP3    H178325   2.504   2.198  11.613 -0.3868 -2.6605  0.6320
18970TIP3    H278326   2.623   2.236  11.527  0.2474  1.5825  3.0898
18971TIP3   OH278327   6.750   3.060   0.373  0.0177  0.6104 -0.2573
18971TIP3    H178328   6.734   3.141   0.324  0.1851  1.0927  0.4641
18971TIP3    H278329   6.795   3.089   0.453  0.4928 -0.2482 -0.2046
18972TIP3   OH278330   0.988   0.497   6.131 -0.1372 -0.0754  0.4150
18972TIP3    H178331   0.966   0.425   6.073 -0.1158 -0.1325  0.4776
18972TIP3    H278332   0.980   0.575   6.077 -1.3911 -0.0109  0.6665
18973TIP3   OH278333   4.017   4.780  14.103 -0.2037  0.1995  0.2747
18973TIP3    H178334   3.930   4.754  14.134  0.1474 -1.6084 -0.1434
18973TIP3    H278335   4.014   4.765  14.008  0.3280  0.8676  0.1461
18974TIP3   OH278336   0.376   6.478   5.222 -0.0444  0.2585 -0.6935
18974TIP3    H178337   0.422   6.542   5.276  0.0577  0.7351 -1.3275
18974TIP3    H278338   0.396   6.393   5.262 -0.6244  0.6630  0.4741
18975TIP3   OH278339   0.763   1.852  15.392  0.3537  0.0125 -0.6344
18975TIP3    H178340   0.798   1.769  15.426  2.5855  1.5388  1.1307
18975TIP3    H278341   0.669   1.846  15.407  0.7026 -1.3595  1.5209
18976TIP3   OH278342   6.744   6.646   4.216 -0.3129  0.1600 -0.0123
18976TIP3    H178343   6.744   6.672   4.309 -1.2270 -1.1623  0.3898
18976TIP3    H278344   6.700   6.561   4.215 -0.8217  0.4028 -1.7469
18977TIP3   OH278345   1.843   6.135  15.012 -0.2863  0.0428  0.3302
18977TIP3    H178346   1.794   6.056  14.987  0.2512  0.2171 -1.4018
18977TIP3    H278347   1.776   6.204  15.016 -0.7287 -0.4370  1.6712
18978TIP3   OH278348   2.116   0.981   0.164  0.2020 -0.0707  0.5656
18978TIP3    H178349   2.132   0.918   0.094 -2.2807 -1.0056  0.7417
18978TIP3    H278350   2.178   0.957   0.233  0.5619 -1.1317 -0.1011
18979TIP3   OH278351   4.882   6.556  11.499  0.5073 -0.3480 -0.1105
18979TIP3    H178352   4.793   6.521  11.503  0.7837 -1.0875 -0.1434
18979TIP3    H278353   4.908   6.565  11.591  0.2819  0.1962 -0.0960
18980TIP3   OH278354   5.502   0.282  11.719  0.1673  0.4674 -0.1302
18980TIP3    H178355   5.435   0.240  11.665 -1.4033  0.8980  1.4100
18980TIP3    H278356   5.488   0.376  11.705  0.8891  0.5537 -0.2984
18981TIP3   OH278357   3.849   1.840  13.595  0.4219  0.3566  0.2179
18981TIP3    H178358   3.765   1.809  13.627  0.4094 -0.4740 -0.5951
18981TIP3    H278359   3.913   1.805  13.657  0.7164 -3.8637 -2.1476
18982TIP3   OH278360   4.360   1.535  12.989  0.4060 -0.4480  1.2331
18982TIP3    H178361   4.271   1.549  13.022 -0.1320  0.4891 -0.4668
18982TIP3    H278362   4.354   1.456  12.935 -0.3096  1.3777 -1.6093
18983TIP3   OH278363   5.054   0.149  14.178 -0.2347  0.2464  0.5564
18983TIP3    H178364   5.094   0.185  14.099 -0.5429  2.4469  1.3297
18983TIP3    H278365   5.011   0.069  14.149  2.0801 -0.5709 -0.8958
18984TIP3   OH278366   2.624   3.156  15.184  0.1886 -0.1912  0.3879
18984TIP3    H178367   2.627   3.084  15.120  0.8349  0.1184  0.0675
18984TIP3    H278368   2.639   3.235  15.132 -0.5983  0.1933  0.7289
18985TIP3   OH278369   5.872   3.126  10.823 -0.2406  0.0681  0.3714
18985TIP3    H178370   5.815   3.095  10.753 -2.5665  0.9000  1.7958
18985TIP3    H278371   5.890   3.048  10.875  1.6928 -0.6036 -1.1764
18986TIP3   OH278372   5.582   1.168  10.194  0.0086 -0.4064  0.5241
18986TIP3    H178373   5.636   1.091  10.211 -0.0847 -0.3711  0.9971
18986TIP3    H278374   5.644   1.238  10.174  0.1767 -0.2401  1.5615
18987TIP3   OH278375   2.194   2.175   0.515 -0.3270 -0.6317 -0.1695
18987TIP3    H178376   2.273   2.229   0.517 -0.4335 -0.4631 -0.4986
18987TIP3    H278377   2.136   2.214   0.580 -0.3532 -0.4313 -0.3147
18988TIP3   OH278378   0.063   4.002  16.498 -0.0855  0.5871  0.2027
18988TIP3    H178379   0.044   3.951  16.419  2.2529 -0.8211  0.4555
18988TIP3    H278380   0.033   4.090  16.478  0.3158  0.2257 -2.2214
18989TIP3   OH278381   0.858   3.089   6.398  0.3192 -0.2489  0.4267
18989TIP3    H178382   0.824   3.031   6.466  0.5349 -0.3543  0.4459
18989TIP3    H278383   0.862   3.175   6.440  1.5020 -0.5154  0.9097
18990TIP3   OH278384   1.111   0.075   1.880  0.4642 -0.3319 -0.1091
18990TIP3    H178385   1.051   0.148   1.895  1.9909  1.1000 -0.7377
18990TIP3    H278386   1.141   0.050   1.968 -1.0736 -1.1468  0.2266
18991TIP3   OH278387   0.028   2.852  16.800 -0.4190  0.4264 -0.4185
18991TIP3    H178388   0.102   2.885  16.749 -0.6592 -0.1214 -1.1384
18991TIP3    H278389   0.002   2.771  16.756  0.0767 -0.6938  1.2148
18992TIP3   OH278390   5.252   0.318  16.492  0.4838  0.2854  0.3072
18992TIP3    H178391   5.224   0.328  16.582 -0.2927 -0.5604  0.1807
18992TIP3    H278392   5.347   0.325  16.495  0.4656  0.2330  1.1946
18993TIP3   OH278393   5.755   2.642  14.258 -0.2510 -0.8117 -0.0168
18993TIP3    H178394   5.785   2.566  14.307 -0.8159 -0.7815  0.3880
18993TIP3    H278395   5.689   2.682  14.314  1.0900  0.8395  0.4543
18994TIP3   OH278396   1.625   5.945   3.891  0.2570 -0.2671  0.0690
18994TIP3    H178397   1.566   5.927   3.818 -0.3552 -2.8172  1.0773
18994TIP3    H278398   1.586   6.020   3.936 -0.2032  0.3434 -1.2961
18995TIP3   OH278399   3.184   3.474  11.643 -0.4077  0.0470 -0.3799
18995TIP3    H178400   3.181   3.379  11.635 -1.4426  0.0964 -0.5910
18995TIP3    H278401   3.173   3.507  11.554  1.0979  0.3613 -0.4781
18996TIP3   OH278402   3.899   4.900  17.165 -0.1477  0.0863  0.4551
18996TIP3    H178403   3.808   4.929  17.161 -0.1356  0.2598  1.2337
18996TIP3    H278404   3.943   4.949  17.096 -0.5677  0.3038  0.3375
18997TIP3   OH278405   2.996   6.064   0.384 -0.1369  0.3034  0.1237
18997TIP3    H178406   3.059   6.134   0.368 -0.3231  0.4327 -0.0425
18997TIP3    H278407   2.939   6.065   0.307 -0.1661 -0.0019  0.1415
18998TIP3   OH278408   2.941   5.213   3.767 -0.0859  0.0140  0.0564
18998TIP3    H178409   2.895   5.251   3.842  1.0357  0.5603  0.4909
18998TIP3    H278410   2.920   5.120   3.770 -2.7933  0.4923 -0.9455
18999TIP3   OH278411   2.018   0.694  17.139 -0.5231  0.6670 -0.2933
18999TIP3    H178412   2.092   0.754  17.145  0.7308 -0.8177 -0.0829
18999TIP3    H278413   1.972   0.720  17.059  0.0369  1.8363 -0.2508
19000TIP3   OH278414   2.794   5.842   0.227  0.2219 -0.4797  0.5293
19000TIP3    H178415   2.855   5.823   0.156 -0.2476 -1.0240  0.2706
19000TIP3    H278416   2.715   5.874   0.184  0.3541  0.3461  0.8721
19001TIP3   OH278417   5.103   2.624  14.927  0.0777  0.0801  0.3011
19001TIP3    H178418   5.148   2.655  14.848  1.2297  0.2323  1.0096
19001TIP3    H278419   5.018   2.669  14.924  0.7434  1.3674 -0.0078
19002TIP3   OH278420   5.504   4.450   1.023  0.9456 -0.7375 -0.3925
19002TIP3    H178421   5.418   4.438   0.984  1.2701 -0.4024 -1.2260
19002TIP3    H278422   5.560   4.476   0.950  1.8068 -1.1895  0.0910
19003TIP3   OH278423   4.441   4.043  15.324  0.3307 -0.0535 -0.0136
19003TIP3    H178424   4.478   4.123  15.286  1.5368 -0.4132  0.3485
19003TIP3    H278425   4.477   3.973  15.270 -0.4971 -0.3730 -0.1579
19004TIP3   OH278426   2.063   2.269   2.653  0.1602  0.4608 -0.3267
19004TIP3    H178427   1.974   2.303   2.659 -0.0182  0.2994 -1.8165
19004TIP3    H278428   2.112   2.318   2.719 -0.5764  2.0145 -0.8903
19005TIP3   OH278429   1.927   6.132  15.847  0.7673  0.5071 -0.6945
19005TIP3    H178430   1.940   6.156  15.938  1.9565 -2.3631  0.0136
19005TIP3    H278431   1.939   6.214  15.798  2.5609  1.6938  1.5317
19006TIP3   OH278432   1.945   1.396  16.412  0.2149  0.4617 -0.1044
19006TIP3    H178433   1.881   1.458  16.446 -0.4004  0.2530 -0.8426
19006TIP3    H278434   1.941   1.321  16.472  0.8458  1.0611  0.6992
19007TIP3   OH278435   0.989   5.237  15.932 -0.0096  0.0209  0.3409
19007TIP3    H178436   0.969   5.267  15.844 -0.2109 -0.9396  0.0452
19007TIP3    H278437   0.990   5.316  15.986 -0.8400  0.5048 -0.3452
19008TIP3   OH278438   2.038   2.400   3.962 -0.3057  0.4401  0.2232
19008TIP3    H178439   2.035   2.456   3.885 -0.2471 -0.2578 -0.2952
19008TIP3    H278440   2.048   2.461   4.035  1.1053  1.0372 -0.4241
19009TIP3   OH278441   3.703   2.438  11.712  0.0050  0.0767 -0.9501
19009TIP3    H178442   3.790   2.460  11.747  1.3912 -1.8513 -2.9576
19009TIP3    H278443   3.721   2.386  11.634 -2.9951  0.0136 -1.7039
19010TIP3   OH278444   3.172   4.071   2.990 -0.5471 -0.2100 -0.0187
19010TIP3    H178445   3.086   4.113   2.982 -1.1853 -1.3159  0.8272
19010TIP3    H278446   3.174   4.006   2.919  0.2201  0.8102 -0.9779
19011TIP3   OH278447   3.150   4.888   3.097  0.6221 -0.6409 -0.0289
19011TIP3    H178448   3.126   4.836   3.173 -1.6727 -0.7433 -0.7336
19011TIP3    H278449   3.087   4.960   3.096  0.0942 -1.0506 -2.1820
19012TIP3   OH278450   3.085   5.985  13.416 -0.1528 -0.2621 -0.8425
19012TIP3    H178451   3.053   6.015  13.501  1.5623 -1.5546  0.2887
19012TIP3    H278452   3.059   5.893  13.411  1.2055 -0.6538 -0.9663
19013TIP3   OH278453   2.085   3.055  12.689  0.2757  0.4564  0.6581
19013TIP3    H178454   2.060   2.984  12.630 -0.2273  1.1913 -0.0409
19013TIP3    H278455   2.159   3.020  12.739 -0.5733 -0.8944  1.0298
19014TIP3   OH278456   1.109   1.250  10.776  0.3553  0.0239 -0.1974
19014TIP3    H178457   1.074   1.279  10.692 -0.2077  0.8516  0.3009
19014TIP3    H278458   1.126   1.157  10.765  2.3816  0.5180 -1.9234
19015TIP3   OH278459   3.279   3.196   0.220  0.2878 -0.0551 -0.3863
19015TIP3    H178460   3.369   3.169   0.238  0.1292 -1.6874 -1.8272
19015TIP3    H278461   3.260   3.162   0.133 -2.3168 -1.3907  0.5837
19016TIP3   OH278462   1.993   1.487  17.021 -0.1766 -0.4587  0.2933
19016TIP3    H178463   1.930   1.416  17.014  0.9266 -1.3224 -1.8208
19016TIP3    H278464   2.073   1.446  17.054  0.5311 -0.3163 -1.1296
19017TIP3   OH278465   6.151   3.897  16.584 -0.2736 -0.0582  0.2287
19017TIP3    H178466   6.090   3.965  16.555  0.5003  0.1899 -0.8686
19017TIP3    H278467   6.138   3.892  16.679 -0.6980  1.2643  0.2548
19018TIP3   OH278468   2.523   6.516  16.510 -0.3205 -0.2048  0.4770
19018TIP3    H178469   2.618   6.511  16.506 -0.2325  1.3001  0.3229
19018TIP3    H278470   2.499   6.568  16.433 -1.2745 -0.5126  0.5547
19019TIP3   OH278471   3.564   6.504  12.098  0.0692  0.1001 -0.2813
19019TIP3    H178472   3.516   6.572  12.050 -1.9796 -1.6691 -0.8838
19019TIP3    H278473   3.568   6.430  12.038  2.2983 -0.3552  0.3356
19020TIP3   OH278474   3.600   5.563  13.727 -0.1019  0.2334  0.2240
19020TIP3    H178475   3.676   5.601  13.683  1.2636 -1.7584  0.7693
19020TIP3    H278476   3.541   5.538  13.656  1.3717 -1.4882 -0.4579
19021TIP3   OH278477   0.820   6.465   5.297  0.1727  0.0060  0.2796
19021TIP3    H178478   0.798   6.415   5.375  2.3164 -1.5263 -0.0293
19021TIP3    H278479   0.737   6.505   5.271 -1.3394 -2.1634  1.4244
19022TIP3   OH278480   1.079   6.735   0.298  0.1296  0.2155 -0.1152
19022TIP3    H178481   1.060   6.759   0.388  0.6570 -1.3148  0.4256
19022TIP3    H278482   1.174   6.728   0.294  0.0395 -1.2118 -0.3678
19023TIP3   OH278483   2.517   4.442  12.758 -0.3164 -0.4833 -0.3427
19023TIP3    H178484   2.582   4.496  12.804  0.7663 -0.8414 -1.4036
19023TIP3    H278485   2.434   4.468  12.796  0.2026  1.6409 -0.5164
19024TIP3   OH278486   3.116   6.648   0.047  0.3626 -0.5523 -0.1436
19024TIP3    H178487   3.201   6.621   0.083  0.3567 -1.4764 -0.7935
19024TIP3    H278488   3.056   6.577   0.071 -0.7094  0.9642  1.9944
19025TIP3   OH278489   1.802   6.348   4.702  0.2812 -0.2210 -0.0735
19025TIP3    H178490   1.710   6.363   4.725  0.2686 -0.6041  0.1395
19025TIP3    H278491   1.813   6.390   4.617  0.1305  0.5622  0.2832
19026TIP3   OH278492   0.500   6.529   5.776  0.1586  0.2457  0.3129
19026TIP3    H178493   0.489   6.584   5.854  2.0995 -1.8106  2.1900
19026TIP3    H278494   0.523   6.443   5.811  0.9161 -0.8251 -2.5573
19027TIP3   OH278495   0.209   2.199   0.653 -1.0091  0.6802 -0.9702
19027TIP3    H178496   0.301   2.199   0.629 -0.0304 -1.4459  2.1930
19027TIP3    H278497   0.176   2.115   0.622 -0.6035 -0.5630  1.7057
19028TIP3   OH278498   3.177   3.431   5.759  0.1324  0.2792 -0.0464
19028TIP3    H178499   3.087   3.463   5.765 -0.2812 -0.7723 -0.4719
19028TIP3    H278500   3.169   3.342   5.726  1.3295  0.1314  0.0151
19029TIP3   OH278501   6.389   2.141   5.747  0.0915  0.2588 -0.3512
19029TIP3    H178502   6.361   2.198   5.676  0.4619  0.7055 -0.1437
19029TIP3    H278503   6.478   2.115   5.724 -0.2316 -0.6151 -0.6724
19030TIP3   OH278504   3.955   4.022  12.023 -0.1199 -0.0724 -0.1067
19030TIP3    H178505   3.970   3.991  12.112 -2.5323 -0.8074  0.1373
19030TIP3    H278506   4.041   4.018  11.981  1.1274  0.5302  2.2147
19031TIP3   OH278507   0.753   5.872  15.372  0.0574  0.0471  0.2868
19031TIP3    H178508   0.820   5.865  15.440  1.3211 -0.7487 -0.9906
19031TIP3    H278509   0.699   5.794  15.383 -1.0889  0.9708  1.6845
19032TIP3   OH278510   4.342   6.339   0.422  0.1143  0.7799 -0.1888
19032TIP3    H178511   4.344   6.324   0.516 -1.0636  1.5217 -0.0305
19032TIP3    H278512   4.287   6.268   0.388  0.5558  0.4999 -0.3287
19033TIP3   OH278513   6.282   4.179   0.318 -0.3874 -0.5683  0.4719
19033TIP3    H178514   6.197   4.136   0.310 -0.4410 -0.4478  0.3898
19033TIP3    H278515   6.300   4.179   0.412  0.1694 -1.8400  0.3817
19034TIP3   OH278516   6.609   1.250  17.099 -0.0058  0.2291 -0.7326
19034TIP3    H178517   6.570   1.207  17.175  1.5288  1.2746  0.7125
19034TIP3    H278518   6.674   1.309  17.136  1.1824  0.3729 -2.9046
19035TIP3   OH278519   5.111   5.746  14.297 -0.0870  0.0971  0.2409
19035TIP3    H178520   5.108   5.800  14.218  0.0570 -0.2476 -0.0069
19035TIP3    H278521   5.040   5.682  14.285  1.2120 -1.2573 -0.5884
19036TIP3   OH278522   6.354   6.786   5.271  0.0861  0.0950  0.0001
19036TIP3    H178523   6.397   6.845   5.332 -0.4396 -0.2057  0.6788
19036TIP3    H278524   6.400   6.702   5.282  1.5430  0.5971 -1.7284
19037TIP3   OH278525   5.333   1.625  14.840  0.1987  0.2019  0.2673
19037TIP3    H178526   5.301   1.694  14.897 -1.5240 -1.0930  0.9494
19037TIP3    H278527   5.318   1.544  14.889  3.0764 -0.6547 -0.0705
19038TIP3   OH278528   1.840   5.135   3.255 -0.4283  0.0774  0.5611
19038TIP3    H178529   1.833   5.055   3.307  0.4196 -0.0196  0.5392
19038TIP3    H278530   1.907   5.187   3.300 -0.0677  0.2186 -0.1346
19039TIP3   OH278531   1.408   3.400  15.494  0.0969 -0.3278  0.7303
19039TIP3    H178532   1.319   3.433  15.510 -0.0165 -0.4879  0.4396
19039TIP3    H278533   1.441   3.455  15.424  0.3105 -0.1259  0.9873
19040TIP3   OH278534   2.897   0.931  11.211  0.4244  0.1021 -0.4062
19040TIP3    H178535   2.832   0.899  11.274  0.9804 -1.8482 -0.7399
19040TIP3    H278536   2.909   1.023  11.234 -2.5815  0.6234 -0.4602
19041TIP3   OH278537   4.105   5.475   5.178 -0.1422  0.3046  0.1363
19041TIP3    H178538   4.181   5.420   5.165 -0.5302 -0.5599  1.3696
19041TIP3    H278539   4.041   5.445   5.113  0.2867  0.5553 -0.4150
19042TIP3   OH278540   3.275   2.259  15.750  0.0826 -0.4757 -0.2056
19042TIP3    H178541   3.366   2.256  15.721 -0.4950 -0.5480 -2.1604
19042TIP3    H278542   3.236   2.180  15.714 -1.1749  0.4687 -1.0159
19043TIP3   OH278543   2.289   3.008   3.608 -0.1441 -0.1325 -0.7634
19043TIP3    H178544   2.356   2.959   3.561 -1.1903 -1.7946 -0.5988
19043TIP3    H278545   2.221   2.944   3.627 -1.3220  1.2733 -0.0174
19044TIP3   OH278546   4.398   5.935   0.170  0.5553 -0.4950 -0.2096
19044TIP3    H178547   4.368   5.981   0.091  0.5372 -1.2198 -0.6270
19044TIP3    H278548   4.493   5.942   0.167  0.5131  0.7862  0.5052
19045TIP3   OH278549   5.117   2.283   3.400 -0.2439 -0.5336 -0.4050
19045TIP3    H178550   5.111   2.214   3.333  0.5484 -1.3229  0.3067
19045TIP3    H278551   5.193   2.258   3.453 -1.6558 -0.7076  1.6361
19046TIP3   OH278552   1.009   0.984  14.327  0.6027 -0.4766 -0.6421
19046TIP3    H178553   1.071   1.036  14.276  0.4135 -0.0133 -0.4134
19046TIP3    H278554   0.943   1.048  14.355  0.3694 -0.8436 -0.3511
19047TIP3   OH278555   2.807   0.867  16.836  0.2004 -0.1271  0.1451
19047TIP3    H178556   2.835   0.776  16.845 -0.1987 -0.1759  0.8838
19047TIP3    H278557   2.735   0.877  16.898  0.1691  0.6638 -0.0106
19048TIP3   OH278558   0.051   2.255  14.007  0.4088 -0.1311  0.1758
19048TIP3    H178559   0.074   2.163  14.023  0.3012 -0.1271  0.3618
19048TIP3    H278560   0.087   2.302  14.083 -0.2892 -0.1380  0.5221
19049TIP3   OH278561   1.290   2.735   0.142  0.5820  0.4923 -0.1609
19049TIP3    H178562   1.236   2.658   0.123 -0.4877  1.8211 -3.3166
19049TIP3    H278563   1.228   2.799   0.177  1.0388  0.6040  0.4504
19050TIP3   OH278564   5.393   0.448   2.583 -0.0513 -0.5933  0.2624
19050TIP3    H178565   5.422   0.400   2.506  0.0646  0.4426 -0.3611
19050TIP3    H278566   5.374   0.536   2.551 -0.7659 -0.3605  1.2710
19051TIP3   OH278567   5.247   2.979  12.303 -0.1836 -0.2939  0.2946
19051TIP3    H178568   5.254   2.945  12.214 -1.9711 -0.3267  0.1361
19051TIP3    H278569   5.207   3.065  12.293 -3.3211 -1.5153  1.1891
19052TIP3   OH278570   0.377   2.199  13.290  0.3581 -0.1533  0.0027
19052TIP3    H178571   0.446   2.177  13.353  0.7669 -0.5839 -0.5815
19052TIP3    H278572   0.417   2.265  13.233  0.0958  0.0006 -0.0046
19053TIP3   OH278573   4.439   3.334   4.643 -0.2407 -0.0067  0.1079
19053TIP3    H178574   4.493   3.295   4.574  1.0139 -0.3170  1.2246
19053TIP3    H278575   4.351   3.337   4.605  0.1450 -1.4388 -1.0142
19054TIP3   OH278576   3.892   6.055   0.702 -0.3883  0.5952 -0.4712
19054TIP3    H178577   3.882   5.999   0.779  0.1548  0.6122 -0.3837
19054TIP3    H278578   3.986   6.054   0.684 -0.7305 -1.4391 -2.6445
19055TIP3   OH278579   0.260   1.210  14.278  0.4344 -0.0037 -0.0120
19055TIP3    H178580   0.167   1.191  14.295  1.0350 -1.8099  1.6263
19055TIP3    H278581   0.270   1.200  14.183 -1.1130  0.6750 -0.2823
19056TIP3   OH278582   1.656   2.869   0.837  0.4293  0.1084 -0.5420
19056TIP3    H178583   1.698   2.939   0.787  1.5303 -0.7429 -0.8337
19056TIP3    H278584   1.651   2.904   0.926  1.4680  0.3618 -0.5650
19057TIP3   OH278585   6.710   5.493  13.451 -0.1908  0.5368 -0.4867
19057TIP3    H178586   6.628   5.539  13.433  0.1243  1.4167  0.2665
19057TIP3    H278587   6.699   5.460  13.541 -0.3392 -0.7259 -0.9475
19058TIP3   OH278588   6.285   3.768  17.018  0.8626 -0.0315  0.4365
19058TIP3    H178589   6.256   3.842  16.965  1.5120 -0.2831 -0.2930
19058TIP3    H278590   6.257   3.790  17.107  0.7168  0.9109  0.1739
19059TIP3   OH278591   4.276   2.892   0.333 -0.0523 -0.2547 -0.5419
19059TIP3    H178592   4.321   2.807   0.328 -1.6285 -1.1229 -0.5480
19059TIP3    H278593   4.281   2.916   0.426 -0.3906 -0.8125 -0.3727
19060TIP3   OH278594   1.266   4.299  13.485 -0.0962  0.3416  0.6632
19060TIP3    H178595   1.354   4.280  13.519  0.6743  3.0640  0.4172
19060TIP3    H278596   1.207   4.251  13.543  1.4157  0.8840  2.7587
19061TIP3   OH278597   2.674   1.076   2.286  0.3389 -0.4995  0.1020
19061TIP3    H178598   2.605   1.011   2.269  0.0594 -0.5805  1.4315
19061TIP3    H278599   2.649   1.152   2.235  0.4373 -1.2776 -1.1411
19062TIP3   OH278600   1.232   3.081   5.303 -0.6403  0.0287 -0.3918
19062TIP3    H178601   1.315   3.047   5.337 -0.6490  0.9255  0.5563
19062TIP3    H278602   1.232   3.056   5.211  0.7363  0.1160 -0.4315
19063TIP3   OH278603   6.123   6.100  16.129 -0.0333  0.1290 -0.2443
19063TIP3    H178604   6.042   6.050  16.118 -1.2888  1.9483  0.2791
19063TIP3    H278605   6.096   6.179  16.176  1.7231  1.5812 -1.5374
19064TIP3   OH278606   4.540   3.071  10.778  0.1854  0.4263  0.2638
19064TIP3    H178607   4.567   3.144  10.833  0.1655  0.8702 -0.3013
19064TIP3    H278608   4.509   3.005  10.839  1.6157  0.2910  0.8729
19065TIP3   OH278609   5.873   3.351  15.193 -0.2469 -0.0510  0.7060
19065TIP3    H178610   5.837   3.297  15.263 -2.3934 -1.6823 -1.4713
19065TIP3    H278611   5.876   3.292  15.117 -2.0955  2.6561 -1.6597
19066TIP3   OH278612   3.052   2.951  16.765 -0.8477 -0.7608  0.0910
19066TIP3    H178613   3.058   2.887  16.694 -0.0595 -0.5686 -0.0262
19066TIP3    H278614   3.136   2.943  16.811  0.2582  1.7514 -1.2827
19067TIP3   OH278615   0.005   3.333   3.934 -0.1234 -0.2371 -0.0823
19067TIP3    H178616  -0.043   3.399   3.883  0.9649  0.9811  0.4007
19067TIP3    H278617   0.063   3.291   3.870 -1.7781 -1.7429 -0.6754
19068TIP3   OH278618   3.458   0.027   3.579  0.4133  0.0614  0.1368
19068TIP3    H178619   3.542   0.052   3.540 -0.8179  2.8393 -0.9764
19068TIP3    H278620   3.401   0.009   3.504  0.2229 -3.0104  0.8742
19069TIP3   OH278621   0.423   3.743   4.250 -0.7896  0.5301  0.2539
19069TIP3    H178622   0.361   3.771   4.182  0.0139  1.6832 -0.0350
19069TIP3    H278623   0.452   3.656   4.222 -0.7133  0.8586 -0.7058
19070TIP3   OH278624   3.876   0.255  14.560  0.1373  0.3193  0.0704
19070TIP3    H178625   3.846   0.227  14.647 -0.1345  0.4888  0.0307
19070TIP3    H278626   3.951   0.311  14.577  1.7281 -1.6974  0.1011
19071TIP3   OH278627   4.978   0.039  13.257  0.2475 -0.1120 -0.7414
19071TIP3    H178628   4.899  -0.008  13.286  1.1481 -1.1926  0.0740
19071TIP3    H278629   5.043   0.019  13.325  1.5130 -0.0722 -1.9077
19072TIP3   OH278630   5.361   4.699  14.716 -0.2139  0.9396 -0.1666
19072TIP3    H178631   5.417   4.753  14.661 -0.8154  0.2961 -1.4495
19072TIP3    H278632   5.274   4.705  14.676 -0.5871  0.1512  0.4860
19073TIP3   OH278633   6.595   6.575   1.989  0.7516  0.0920  0.3911
19073TIP3    H178634   6.651   6.509   2.030  1.9553  1.0011  0.2683
19073TIP3    H278635   6.652   6.620   1.927  0.1954  1.7493  1.0182
19074TIP3   OH278636   3.317   3.426  14.362 -0.1229 -0.4859 -0.2819
19074TIP3    H178637   3.266   3.475  14.298  0.4944 -1.7714 -1.8238
19074TIP3    H278638   3.366   3.362  14.310  0.8573 -1.1957  1.4256
19075TIP3   OH278639   5.355   6.186   6.240  0.2350 -0.0167  0.0663
19075TIP3    H178640   5.445   6.193   6.273 -0.0437 -2.1380  1.5266
19075TIP3    H278641   5.360   6.116   6.175 -0.2225  0.3629 -0.3713
19076TIP3   OH278642   3.745   3.029  11.851  0.3563  0.3122  0.4975
19076TIP3    H178643   3.655   3.006  11.874  0.3606  0.1334  0.3365
19076TIP3    H278644   3.799   2.967  11.900  0.3637 -0.1183 -0.0407
19077TIP3   OH278645   1.384   3.517  12.150 -0.2451  0.0572  0.2224
19077TIP3    H178646   1.306   3.570  12.133  0.1387  0.1306 -1.5246
19077TIP3    H278647   1.456   3.579  12.144 -0.0261  0.0067  1.9362
19078TIP3   OH278648   2.983   2.030  11.143  0.0685 -0.1769  0.2605
19078TIP3    H178649   3.021   1.968  11.205  1.8582  1.2183  0.6234
19078TIP3    H278650   3.016   2.002  11.058 -0.7361 -0.8702  0.1613
19079TIP3   OH278651   1.792   2.134  13.098 -0.1671 -0.0553 -0.5195
19079TIP3    H178652   1.801   2.228  13.081 -0.2846 -0.0461 -0.5315
19079TIP3    H278653   1.874   2.110  13.141  0.0550 -0.0414 -0.9324
19080TIP3   OH278654   5.594   0.508  15.265  0.5578  0.2516 -0.5046
19080TIP3    H178655   5.632   0.592  15.288  0.0119  0.1364  0.9835
19080TIP3    H278656   5.499   0.524  15.265  0.4036 -0.5207  0.6522
19081TIP3   OH278657   3.354   2.735   2.942 -0.2140  0.0431  0.4582
19081TIP3    H178658   3.304   2.725   2.861  1.3025 -1.1754 -0.3846
19081TIP3    H278659   3.416   2.661   2.941 -0.4688 -0.2914  2.9723
19082TIP3   OH278660   2.556   3.577  14.959  0.2690  0.8009 -0.4922
19082TIP3    H178661   2.649   3.570  14.939  0.4343 -0.1346  0.5097
19082TIP3    H278662   2.552   3.575  15.054 -0.8043  0.2954 -0.5324
19083TIP3   OH278663   4.134   2.300   6.105  0.2853  0.3849  0.0522
19083TIP3    H178664   4.218   2.345   6.094  0.2540  0.8611  1.5839
19083TIP3    H278665   4.075   2.367   6.141 -0.2838 -0.3898  0.6002
19084TIP3   OH278666   1.216   5.104  12.544 -0.1645  0.0760 -0.2281
19084TIP3    H178667   1.145   5.164  12.569  0.2130  0.2152  0.5631
19084TIP3    H278668   1.294   5.160  12.541  0.2149 -0.3783  0.6331
19085TIP3   OH278669   6.186   0.644   0.594  0.2971 -0.0913  0.2025
19085TIP3    H178670   6.111   0.616   0.647 -0.2109  1.0317  0.1059
19085TIP3    H278671   6.154   0.641   0.504  0.1594  0.9862  0.2088
19086TIP3   OH278672   4.067   0.759  17.255 -0.3851  0.3671  0.0634
19086TIP3    H178673   4.059   0.718  17.341  0.0291  0.3438  0.0918
19086TIP3    H278674   4.058   0.686  17.193  2.8070 -0.2248  0.1447
19087TIP3   OH278675   5.006   2.127   0.956  0.3079 -0.8795 -0.3448
19087TIP3    H178676   5.029   2.054   0.899 -0.0262 -0.1582 -1.4313
19087TIP3    H278677   5.082   2.185   0.952  0.1332 -0.6517 -0.3412
19088TIP3   OH278678   4.982   3.378   0.608 -0.3155 -0.1126 -0.1716
19088TIP3    H178679   4.914   3.440   0.582  0.8241  0.6666 -1.4451
19088TIP3    H278680   5.014   3.412   0.692  0.0074  0.8075 -0.6549
19089TIP3   OH278681   2.653   0.427   4.013 -0.1480 -0.4551 -0.2776
19089TIP3    H178682   2.673   0.334   4.025 -0.2376 -0.4951 -0.4378
19089TIP3    H278683   2.639   0.459   4.102 -0.0124 -0.5719 -0.2138
19090TIP3   OH278684   4.206   6.044   5.970  0.2283 -0.2374 -0.1336
19090TIP3    H178685   4.167   6.032   6.057  1.7894  0.4017  0.6855
19090TIP3    H278686   4.267   5.971   5.961 -0.2568 -0.5586 -0.9087
19091TIP3   OH278687   2.042   4.974  16.187  0.1487 -0.3321  0.2513
19091TIP3    H178688   1.959   5.018  16.169  0.5458 -0.1223 -1.1363
19091TIP3    H278689   2.036   4.891  16.140 -0.0610 -1.2233  1.7855
19092TIP3   OH278690   1.100   4.318  14.996  0.5519 -0.0358  0.0743
19092TIP3    H178691   1.070   4.261  14.925 -0.6063  0.8817 -0.2183
19092TIP3    H278692   1.160   4.264  15.047  0.4953 -1.0902 -0.9321
19093TIP3   OH278693   5.329   0.199  12.374  0.1129  0.0004 -0.8551
19093TIP3    H178694   5.316   0.288  12.342  2.4663  0.2994 -1.1503
19093TIP3    H278695   5.423   0.183  12.364 -0.1185 -2.2402 -0.0720
19094TIP3   OH278696   2.988   1.583  11.991 -0.2737 -0.2083 -0.6743
19094TIP3    H178697   2.963   1.491  11.991  0.2617 -0.4627 -3.5711
19094TIP3    H278698   2.944   1.619  11.914  2.5238  0.9738 -1.8628
19095TIP3   OH278699   4.685   1.628   3.540 -0.4246 -0.5660  0.2025
19095TIP3    H178700   4.710   1.683   3.614  0.3644 -2.5270  1.5032
19095TIP3    H278701   4.748   1.556   3.543 -1.0578 -1.2529 -1.7417
19096TIP3   OH278702   5.875   1.989   1.528 -0.2081  0.1558 -0.0731
19096TIP3    H178703   5.802   1.950   1.577  1.5116 -0.3539  2.2197
19096TIP3    H278704   5.911   2.055   1.587  0.9890  0.6273 -1.2933
19097TIP3   OH278705   3.068   3.859  15.730  0.5570  0.1033  0.2867
19097TIP3    H178706   3.095   3.844  15.640 -0.9573  0.8256 -0.3145
19097TIP3    H278707   3.127   3.926  15.763  1.6625 -0.7737  0.1244
19098TIP3   OH278708   5.170   6.733  14.370 -0.2120  0.0343 -0.0064
19098TIP3    H178709   5.160   6.810  14.314  0.6598  0.7485  0.7936
19098TIP3    H278710   5.262   6.735  14.398 -0.7150 -0.0780  1.7701
19099TIP3   OH278711   3.675   4.095   3.028 -0.3921 -0.4086  0.1790
19099TIP3    H178712   3.701   4.174   3.076 -0.7116 -0.9928  1.3435
19099TIP3    H278713   3.728   4.025   3.067  1.8267 -0.4228 -2.5768
19100TIP3   OH278714   4.894   6.226   5.986 -0.0568 -0.1488 -0.5880
19100TIP3    H178715   4.949   6.219   6.065 -0.9285  0.8277  0.1396
19100TIP3    H278716   4.903   6.317   5.959 -1.0630 -0.0568 -0.6358
19101TIP3   OH278717   1.413   3.132  11.842  0.2234  0.1747  0.6595
19101TIP3    H178718   1.453   3.114  11.757  0.5969  1.0770  0.6365
19101TIP3    H278719   1.404   3.227  11.845  1.3511  0.2688  2.1422
19102TIP3   OH278720   2.030   6.372   6.023 -0.0744 -0.0095 -0.1433
19102TIP3    H178721   2.048   6.398   6.113  0.4925  1.7927 -0.7499
19102TIP3    H278722   2.108   6.323   5.996  0.9240  1.6768 -0.4545
19103TIP3   OH278723   3.947   1.309   0.792  0.0513  0.2168  0.1228
19103TIP3    H178724   3.884   1.238   0.800  2.4118 -1.8367  2.7739
19103TIP3    H278725   3.965   1.314   0.698 -0.3696 -2.6355 -0.2040
19104TIP3   OH278726   3.286   0.366   0.854  0.6787  0.6632 -0.0502
19104TIP3    H178727   3.314   0.374   0.763  1.6386  0.0095  0.1720
19104TIP3    H278728   3.195   0.397   0.854  0.5284  0.2855 -1.3013
19105TIP3   OH278729   3.961   3.665  16.195  0.8848 -0.0159  0.2109
19105TIP3    H178730   3.962   3.591  16.257 -0.1685 -0.1878  0.0455
19105TIP3    H278731   3.936   3.740  16.248  1.8159  0.2020  0.3508
19106TIP3   OH278732   3.039   6.516   2.524  0.1564 -0.1540  0.2655
19106TIP3    H178733   2.991   6.489   2.446  1.4790 -0.9698 -0.2796
19106TIP3    H278734   3.119   6.464   2.524  0.5721  0.4134  1.7348
19107TIP3   OH278735   4.489   0.179   5.406  0.0251 -0.0387  0.1183
19107TIP3    H178736   4.560   0.115   5.409 -1.0498 -1.2825 -0.1049
19107TIP3    H278737   4.469   0.188   5.313 -0.1232  0.2971  0.1820
19108TIP3   OH278738   4.261   4.842   6.254  0.0152  0.1014  0.1631
19108TIP3    H178739   4.209   4.910   6.213 -0.5618 -0.6264 -0.3498
19108TIP3    H278740   4.350   4.877   6.257 -0.7248  2.0621  2.5672
19109TIP3   OH278741   2.055   4.105  16.986 -0.0965  0.1209 -0.3034
19109TIP3    H178742   1.973   4.081  17.027  0.3004  2.5074  2.1567
19109TIP3    H278743   2.110   4.136  17.058  1.7090  1.8730 -2.2926
19110TIP3   OH278744   6.249   1.372   0.927  0.1740  0.2571 -0.1662
19110TIP3    H178745   6.196   1.446   0.958 -0.8359 -0.0499 -1.0898
19110TIP3    H278746   6.301   1.347   1.003 -1.4029  0.2371  0.9656
19111TIP3   OH278747   3.314   1.746   2.814  0.0554 -0.0061 -0.2649
19111TIP3    H178748   3.286   1.831   2.780  1.1638  0.2905 -0.4817
19111TIP3    H278749   3.339   1.763   2.904  1.7318  0.2522 -0.7425
19112TIP3   OH278750   0.141   3.138  13.348  0.5163 -0.1388 -0.1966
19112TIP3    H178751   0.164   3.122  13.439  0.6604 -3.0097 -0.6600
19112TIP3    H278752   0.084   3.215  13.351  0.2640 -0.3504  2.3537
19113TIP3   OH278753   2.955   5.064  11.069  0.2164  0.2462  0.7335
19113TIP3    H178754   2.995   5.083  11.153  0.5753  0.8578  0.4334
19113TIP3    H278755   2.979   5.139  11.014 -0.7107  0.2558  0.3310
19114TIP3   OH278756   6.080   5.143   5.069 -0.8059 -0.7381  0.4065
19114TIP3    H178757   6.066   5.151   5.163  0.5989  0.6097  0.5521
19114TIP3    H278758   6.174   5.124   5.061 -0.2452  2.0772 -0.7727
19115TIP3   OH278759   5.076   4.284  15.640 -0.6540 -0.1830 -0.0523
19115TIP3    H178760   5.106   4.245  15.558  0.5314  0.4900  0.0473
19115TIP3    H278761   4.988   4.315  15.621  0.1616  1.3495 -1.5501
19116TIP3   OH278762   5.746   5.931   1.996  0.2526  0.0805  0.5352
19116TIP3    H178763   5.834   5.952   1.965  1.1968 -1.2128  2.1995
19116TIP3    H278764   5.704   5.886   1.922  0.9925  0.6524 -0.2430
19117TIP3   OH278765   5.741   3.170   0.297 -0.3211 -0.5210  0.3474
19117TIP3    H178766   5.829   3.181   0.335 -0.3009 -1.3615  0.5593
19117TIP3    H278767   5.682   3.175   0.371 -0.4477 -0.0897  0.2205
19118TIP3   OH278768   2.032   3.743   6.433  0.1888  0.2561  0.0251
19118TIP3    H178769   2.121   3.730   6.399  0.1265  0.4614 -0.2226
19118TIP3    H278770   2.042   3.741   6.528  0.6082  1.2310  0.0152
19119TIP3   OH278771   1.940   2.403  15.533 -0.1832  0.0162  0.3520
19119TIP3    H178772   1.925   2.477  15.474 -1.6579 -0.2072  0.4080
19119TIP3    H278773   2.015   2.358  15.496 -0.0421  0.8334 -0.4014
19120TIP3   OH278774   4.094   2.655  16.718  0.2308  0.0021  0.2576
19120TIP3    H178775   4.032   2.728  16.716 -0.8294 -0.8226  1.7105
19120TIP3    H278776   4.154   2.674  16.645 -0.8634  1.5560 -0.3093
19121TIP3   OH278777   5.830   3.189  12.624  0.2306  0.3909 -0.4686
19121TIP3    H178778   5.797   3.279  12.627 -0.3601  0.1951  2.8862
19121TIP3    H278779   5.751   3.135  12.621  0.4642 -0.0039  0.1724
19122TIP3   OH278780   6.117   1.777   3.523  0.3046 -0.1102  0.1593
19122TIP3    H178781   6.045   1.760   3.584 -0.5276  0.4265 -0.6571
19122TIP3    H278782   6.075   1.806   3.443  1.4651  1.1872 -0.0196
19123TIP3   OH278783   6.342   4.587  16.390 -0.0904 -0.1331 -0.3895
19123TIP3    H178784   6.247   4.580  16.392 -0.2525  0.7555  3.5862
19123TIP3    H278785   6.360   4.668  16.342 -1.5445  0.9970  0.8811
19124TIP3   OH278786   5.600   5.301   4.827 -0.1666 -0.1237  0.3653
19124TIP3    H178787   5.602   5.394   4.804  1.4745 -0.1381  0.3495
19124TIP3    H278788   5.542   5.261   4.762 -2.0944  1.0749  1.2475
19125TIP3   OH278789   5.948   4.889   1.019  0.1636  0.2086 -0.0878
19125TIP3    H178790   6.012   4.829   0.982  1.2605  1.2706  0.0405
19125TIP3    H278791   5.897   4.835   1.080  0.1420 -0.9143 -1.0734
19126TIP3   OH278792   6.109   1.329  12.713 -0.1759 -0.3684  0.2907
19126TIP3    H178793   6.136   1.239  12.729  1.0510 -0.1274 -0.3661
19126TIP3    H278794   6.091   1.333  12.619 -2.2732 -0.4360  0.6402
19127TIP3   OH278795   2.578   1.853  12.044  0.3216 -0.6166 -0.1549
19127TIP3    H178796   2.548   1.930  11.995 -1.2336 -1.3171 -0.3576
19127TIP3    H278797   2.659   1.882  12.086 -0.1606  1.0963 -0.3199
19128TIP3   OH278798   1.568   4.733  12.894  0.0454 -0.3000  0.0224
19128TIP3    H178799   1.520   4.713  12.813  1.3194 -0.4018 -0.7370
19128TIP3    H278800   1.573   4.829  12.896 -1.1439 -0.2278  0.7068
19129TIP3   OH278801   4.193   4.852   3.422 -0.1408 -0.4224 -0.0231
19129TIP3    H178802   4.243   4.777   3.456  1.3773  1.1116  1.3383
19129TIP3    H278803   4.225   4.927   3.472  0.8750  1.7632 -3.5861
19130TIP3   OH278804   4.203   0.478  12.089  0.6166 -0.1607 -0.1654
19130TIP3    H178805   4.176   0.392  12.119  1.7138 -0.4003  0.2004
19130TIP3    H278806   4.282   0.462  12.038 -0.2033  0.4395 -1.6910
19131TIP3   OH278807   3.853   2.069   1.076 -0.0800 -0.1466 -0.5972
19131TIP3    H178808   3.938   2.093   1.038 -0.4150  1.7754 -0.2607
19131TIP3    H278809   3.813   2.153   1.099 -2.8616 -0.8634 -2.3795
19132TIP3   OH278810   0.491   4.929   4.822  0.3146 -0.0299  0.0602
19132TIP3    H178811   0.436   4.919   4.745  0.5498  0.4073 -0.1716
19132TIP3    H278812   0.465   4.858   4.881 -0.3257  0.0345 -0.1461
19133TIP3   OH278813   4.742   2.209  15.374  0.3638 -0.0805 -0.2160
19133TIP3    H178814   4.750   2.251  15.288 -0.4487 -0.8717 -0.6974
19133TIP3    H278815   4.648   2.190  15.383  0.2697  0.9506  1.3295
19134TIP3   OH278816   3.933   5.702  16.479 -0.4212 -0.3500  0.5935
19134TIP3    H178817   3.891   5.638  16.422  0.6677  0.0422 -0.7179
19134TIP3    H278818   3.932   5.662  16.566 -1.7089 -1.1742  0.2206
19135TIP3   OH278819   4.439   3.386  11.710 -0.0444 -0.2441  0.3050
19135TIP3    H178820   4.463   3.476  11.728 -0.2488  0.0883 -0.9758
19135TIP3    H278821   4.397   3.389  11.624 -0.3634 -1.5063  0.3952
19136TIP3   OH278822   3.875   0.419   2.287  0.4807  0.0554  0.3872
19136TIP3    H178823   3.794   0.458   2.321 -0.9476 -1.4512 -1.1207
19136TIP3    H278824   3.935   0.421   2.362 -1.3159  0.2239  1.9160
19137TIP3   OH278825   4.173   0.142   4.276  0.2595 -0.2230  0.7777
19137TIP3    H178826   4.188   0.096   4.194  1.8380  0.5825  0.5838
19137TIP3    H278827   4.258   0.179   4.299 -0.1272 -0.4759  2.8106
19138TIP3   OH278828   0.242   1.685   4.681 -0.7266  0.0833 -0.4552
19138TIP3    H178829   0.302   1.758   4.665 -0.4623 -0.5266 -2.5755
19138TIP3    H278830   0.158   1.727   4.698  0.3449  1.0247  3.8421
19139TIP3   OH278831   5.710   6.762  12.897  0.6985 -0.1995 -0.6726
19139TIP3    H178832   5.759   6.782  12.977  0.4708 -0.6397 -0.4232
19139TIP3    H278833   5.679   6.672  12.909  0.6747 -0.2729 -1.2621
19140TIP3   OH278834   4.797   3.783   2.770  0.3337  0.5999 -0.2655
19140TIP3    H178835   4.837   3.701   2.742 -0.5184 -0.3439  1.1652
19140TIP3    H278836   4.720   3.793   2.714 -0.2025 -0.1930  0.3163
19141TIP3   OH278837   5.408   6.507  14.595 -0.4784 -0.1273  0.2460
19141TIP3    H178838   5.480   6.507  14.658  0.4602 -0.4902 -0.8049
19141TIP3    H278839   5.331   6.531  14.647  0.6665  2.0387  1.0901
19142TIP3   OH278840   5.259   2.948   3.338 -0.0916  0.2394 -0.3559
19142TIP3    H178841   5.229   2.873   3.288 -0.7523 -0.2421  0.7364
19142TIP3    H278842   5.193   3.016   3.323 -0.9219 -0.2854  0.7424
19143TIP3   OH278843   4.202   2.266  16.541 -0.0388 -0.2159  0.0768
19143TIP3    H178844   4.272   2.327  16.566  0.3608 -1.6872  3.0925
19143TIP3    H278845   4.183   2.218  16.622 -3.1603 -1.2940 -1.1503
19144TIP3   OH278846   3.829   1.686   4.637  0.3491  0.2931 -0.2861
19144TIP3    H178847   3.856   1.775   4.663  0.9944 -0.0451  0.2291
19144TIP3    H278848   3.847   1.682   4.543  2.5635 -0.0521  0.1035
19145TIP3   OH278849   3.749   2.688  14.039 -0.4150 -0.0283  0.7359
19145TIP3    H178850   3.704   2.768  14.066 -1.0220 -0.3299  0.6195
19145TIP3    H278851   3.750   2.633  14.117 -0.8457 -0.2970  0.5496
19146TIP3   OH278852   5.047   5.781  13.725 -0.2734  0.4037 -0.2929
19146TIP3    H178853   5.089   5.811  13.645 -0.3741 -0.3898 -0.6526
19146TIP3    H278854   5.083   5.838  13.794 -1.0600  1.8791 -1.0454
19147TIP3   OH278855   6.053   5.232  12.819  0.3013  0.4895 -0.0413
19147TIP3    H178856   6.050   5.259  12.910  2.3278 -2.5435  1.0673
19147TIP3    H278857   6.116   5.291  12.778 -0.4052  1.6815  0.5287
19148TIP3   OH278858   6.193   3.295  14.014  0.2213 -0.2799  0.1196
19148TIP3    H178859   6.231   3.338  13.937  0.1103  0.1006  0.2758
19148TIP3    H278860   6.100   3.286  13.992  0.0072  0.6915  0.5965
19149TIP3   OH278861   3.792   2.521   0.625 -0.2298  0.3427  0.3893
19149TIP3    H178862   3.807   2.590   0.561 -1.0991  1.4605  1.3394
19149TIP3    H278863   3.867   2.527   0.685  0.4329 -0.5113 -0.3243
19150TIP3   OH278864   6.699   3.827  15.472  0.7983 -0.1146 -0.0140
19150TIP3    H178865   6.624   3.883  15.491  0.3556 -0.8000  0.3335
19150TIP3    H278866   6.771   3.863  15.525  0.6405  0.3783 -0.1351
19151TIP3   OH278867   1.502   2.861   6.460 -0.6454 -0.4033  0.0057
19151TIP3    H178868   1.413   2.888   6.485 -0.8331 -2.3479  1.6858
19151TIP3    H278869   1.553   2.942   6.463 -1.8846  0.3730  1.2714
19152TIP3   OH278870   1.435   6.293  12.931 -0.2370 -0.0120  0.6282
19152TIP3    H178871   1.449   6.212  12.882  1.3375  0.2095  0.6751
19152TIP3    H278872   1.392   6.351  12.869  0.0706 -0.3474  0.0980
19153TIP3   OH278873   0.466   3.994   3.449  0.0348  0.2919  0.9187
19153TIP3    H178874   0.410   4.007   3.525  0.3301 -0.2221  1.2338
19153TIP3    H278875   0.501   4.081   3.429  1.7878  0.1008  2.8169
19154TIP3   OH278876   5.961   5.736  16.782 -0.1721  0.9314 -0.9224
19154TIP3    H178877   6.004   5.798  16.723  1.4865 -1.9511 -3.0155
19154TIP3    H278878   6.029   5.710  16.844 -0.7907  1.0579 -0.1724
19155TIP3   OH278879   4.048   6.466  14.385  0.4262  0.4076 -0.5423
19155TIP3    H178880   4.082   6.512  14.461 -1.6506  0.1287  0.6413
19155TIP3    H278881   4.113   6.480  14.317  1.3852  2.3774  0.6964
19156TIP3   OH278882   5.283   1.917  10.478 -1.0130 -0.3489  0.0739
19156TIP3    H178883   5.355   1.977  10.458 -0.0620 -1.5639 -0.2714
19156TIP3    H278884   5.227   1.966  10.539 -0.0631  0.7240  0.1161
19157TIP3   OH278885   2.936   5.614  10.737  0.5138  0.1042  0.5588
19157TIP3    H178886   2.999   5.666  10.787 -1.0321  3.4493 -0.7179
19157TIP3    H278887   2.990   5.550  10.690  2.3052 -0.9446  3.7416
19158TIP3   OH278888   0.215   5.549   0.139 -0.2975  0.4242 -0.2798
19158TIP3    H178889   0.248   5.632   0.172 -0.9932  1.1281 -1.2878
19158TIP3    H278890   0.130   5.538   0.181 -0.4789  0.5368 -0.6111
19159TIP3   OH278891   2.691   6.131  15.370 -0.2984 -0.2506 -0.7304
19159TIP3    H178892   2.628   6.156  15.303 -0.0389  0.0692 -0.8604
19159TIP3    H278893   2.776   6.140  15.327 -0.2149 -2.2252 -1.0549
19160TIP3   OH278894   3.755   6.080  14.800  0.7215  0.2377 -0.3621
19160TIP3    H178895   3.680   6.022  14.788  1.9564 -1.2056 -1.5972
19160TIP3    H278896   3.824   6.040  14.748  2.3668  1.5043  0.7467
19161TIP3   OH278897   2.850   3.343  16.629  0.1878 -0.3807  0.4259
19161TIP3    H178898   2.908   3.418  16.617 -0.8153  0.1141 -1.8361
19161TIP3    H278899   2.770   3.380  16.667  0.6676 -0.7754  1.8695
19162TIP3   OH278900   2.613   0.937   1.974  0.7552  1.0912  0.0804
19162TIP3    H178901   2.573   0.920   2.059 -0.1012  0.1711 -0.4843
19162TIP3    H278902   2.707   0.928   1.989  0.6291  1.1482  0.9625
19163TIP3   OH278903   1.444   1.894   4.368 -0.0085  0.1600 -0.5194
19163TIP3    H178904   1.522   1.945   4.389 -1.0252  1.8812 -0.7447
19163TIP3    H278905   1.374   1.959   4.359 -1.7879 -1.4113  0.9811
19164TIP3   OH278906   2.013   1.388   4.782  0.4313 -0.2512 -0.9133
19164TIP3    H178907   2.042   1.311   4.830 -0.3706  0.4240  0.7276
19164TIP3    H278908   1.972   1.444   4.848 -1.9479  0.1414 -2.5675
19165TIP3   OH278909   5.990   6.571   3.839 -0.1947  0.2063 -0.6211
19165TIP3    H178910   6.057   6.580   3.906 -0.1239 -0.7650 -0.5505
19165TIP3    H278911   6.036   6.538   3.762 -0.9285 -3.1041  0.2021
19166TIP3   OH278912   5.811   5.903  16.518  0.5793  0.1050 -0.1949
19166TIP3    H178913   5.854   5.850  16.452  0.4902  0.4184 -0.5041
19166TIP3    H278914   5.744   5.846  16.555 -1.5112  0.8536 -2.5341
19167TIP3   OH278915   6.507   3.510  15.199 -0.2093  0.3353  0.2545
19167TIP3    H178916   6.494   3.604  15.213  0.0787  0.4054  0.0635
19167TIP3    H278917   6.496   3.471  15.286 -0.2031  0.5612  0.3572
19168TIP3   OH278918   0.148   1.657  16.489 -0.3300 -0.0772 -0.0382
19168TIP3    H178919   0.229   1.686  16.529  0.4618 -1.2585 -0.7283
19168TIP3    H278920   0.121   1.729  16.432 -0.6384  0.9719  1.3978
19169TIP3   OH278921   2.812   6.570   5.523 -0.4206 -0.3472 -0.3690
19169TIP3    H178922   2.817   6.585   5.429 -2.5558  2.4524 -0.1697
19169TIP3    H278923   2.724   6.598   5.548 -0.0841 -1.3801  2.4285
19170TIP3   OH278924   0.147   5.342  14.061  0.1945  0.3989  0.4248
19170TIP3    H178925   0.111   5.346  14.149  0.8408 -0.2762  0.7307
19170TIP3    H278926   0.151   5.249  14.040  2.1756  0.4002  0.5928
19171TIP3   OH278927   6.507   5.199  12.226 -0.5913 -0.3540 -0.6244
19171TIP3    H178928   6.533   5.265  12.290  0.0230 -1.1980  0.0363
19171TIP3    H278929   6.590   5.167  12.190 -0.8745 -0.7522 -0.9318
19172TIP3   OH278930   6.257   0.344  15.136  0.3173 -0.3952 -0.6927
19172TIP3    H178931   6.296   0.301  15.060  1.8444 -1.4117  0.5933
19172TIP3    H278932   6.222   0.273  15.189  0.6298  0.1389  0.2686
19173TIP3   OH278933   1.918   2.756   1.543 -0.0720  0.3632 -0.4711
19173TIP3    H178934   1.961   2.800   1.617  0.4047  0.0289 -0.5499
19173TIP3    H278935   1.851   2.701   1.584  1.0372 -0.8031 -0.1911
19174TIP3   OH278936   0.662   4.009   3.127 -0.2606 -0.1659  0.2215
19174TIP3    H178937   0.669   3.916   3.104 -0.2480 -0.1148  0.0151
19174TIP3    H278938   0.568   4.025   3.132 -0.2544 -0.3751  1.0239
19175TIP3   OH278939   3.125   6.126   2.382 -0.7282 -0.2691  0.2874
19175TIP3    H178940   3.165   6.198   2.333 -0.4696  0.2712  1.2656
19175TIP3    H278941   3.034   6.126   2.355 -0.2612 -1.0246 -1.3956
19176TIP3   OH278942   6.452   3.216   0.948 -0.3077  0.2766  0.0348
19176TIP3    H178943   6.390   3.245   0.881  1.2942 -0.6662 -1.9800
19176TIP3    H278944   6.492   3.138   0.911  1.9403  0.7348  1.3204
19177TIP3   OH278945   0.713   0.336  12.241  0.2683 -0.1147  0.0252
19177TIP3    H178946   0.661   0.272  12.193  1.4254 -0.4072 -0.8968
19177TIP3    H278947   0.730   0.295  12.326  0.5716 -0.8276 -0.3694
19178TIP3   OH278948   0.550   0.982  11.462 -0.6509  0.3395  0.8571
19178TIP3    H178949   0.464   0.972  11.501 -0.8636  1.1647  0.6163
19178TIP3    H278950   0.533   1.020  11.375 -0.1443 -0.7834  0.2349
19179TIP3   OH278951   2.022   1.482  15.592 -0.1525  0.0731  0.1029
19179TIP3    H178952   2.044   1.556  15.535 -1.2359 -0.0584 -0.5240
19179TIP3    H278953   1.930   1.497  15.616  0.4943  0.5300  2.4768
19180TIP3   OH278954   6.610   3.010   0.803 -0.6268 -0.6639  0.7459
19180TIP3    H178955   6.620   2.992   0.709 -2.7135  0.9391  0.1224
19180TIP3    H278956   6.574   2.929   0.839  1.0485 -1.6058  0.3780
19181TIP3   OH278957   3.042   2.200   1.458 -0.1536 -0.6450 -0.2481
19181TIP3    H178958   2.957   2.169   1.491 -0.0127 -0.0888  0.6887
19181TIP3    H278959   3.029   2.293   1.443  0.6208 -0.2708  1.1479
19182TIP3   OH278960   5.930   2.666   4.892 -0.0758  0.3926  0.0050
19182TIP3    H178961   5.860   2.606   4.917 -2.2641  2.3734 -0.9635
19182TIP3    H278962   5.980   2.680   4.973 -2.0163  0.4191  1.2686
19183TIP3   OH278963   0.709   2.228  16.868  0.2635  0.2800 -0.0472
19183TIP3    H178964   0.740   2.175  16.795 -0.1538 -0.6029  0.3996
19183TIP3    H278965   0.789   2.253  16.915  0.4552 -0.0907 -0.1738
19184TIP3   OH278966   0.506   0.237   0.202 -0.1019  0.3915  0.4942
19184TIP3    H178967   0.431   0.232   0.261  0.9804  1.0934  1.9671
19184TIP3    H278968   0.519   0.147   0.172 -2.1241  0.4036 -0.5882
19185TIP3   OH278969   1.150   1.429  12.985  0.1438 -0.1254  0.0784
19185TIP3    H178970   1.057   1.435  12.964 -0.6607 -1.2745  2.8861
19185TIP3    H278971   1.161   1.339  13.018  2.2781 -0.0287 -0.2163
19186TIP3   OH278972   1.816   4.159  11.859  0.3893 -0.0266 -0.2866
19186TIP3    H178973   1.795   4.228  11.795 -0.8625  0.4516  0.5892
19186TIP3    H278974   1.745   4.095  11.848 -0.5843  0.6938  1.4749
19187TIP3   OH278975   1.085   0.539   3.943 -0.2833  0.0747  0.9154
19187TIP3    H178976   1.178   0.544   3.919 -0.7982  0.4579 -1.2060
19187TIP3    H278977   1.076   0.599   4.016  1.2732 -0.5317  1.6536
19188TIP3   OH278978   0.033   6.635  11.878  0.1948 -0.4980 -1.0580
19188TIP3    H178979   0.012   6.689  11.954 -0.7593 -1.1704 -0.8357
19188TIP3    H278980  -0.049   6.593  11.854 -0.5088  2.3906 -4.6551
19189TIP3   OH278981   0.572   3.171   0.298  0.1237 -0.2097  0.6699
19189TIP3    H178982   0.510   3.212   0.358  0.1077 -1.5772  1.6519
19189TIP3    H278983   0.596   3.089   0.341 -0.6486 -1.7711 -1.6492
19190TIP3   OH278984   0.721   1.839  11.744  0.3559 -0.3337 -0.7202
19190TIP3    H178985   0.716   1.758  11.694  2.1478  0.4300 -2.2501
19190TIP3    H278986   0.808   1.839  11.783  0.5598  1.0513 -1.1280
19191TIP3   OH278987   1.577   4.710   4.372 -0.2178 -0.3459  0.0042
19191TIP3    H178988   1.610   4.760   4.297 -4.1218  1.9798 -0.4203
19191TIP3    H278989   1.569   4.620   4.339  0.0512  0.2243 -1.7128
19192TIP3   OH278990   1.343   3.280  12.442 -0.1948 -0.7034  0.1938
19192TIP3    H178991   1.434   3.283  12.415 -0.4783  0.8638 -0.6913
19192TIP3    H278992   1.301   3.221  12.379 -0.1105 -0.1172 -0.4143
19193TIP3   OH278993   6.153   1.057  12.193 -0.2147  0.7661  0.5618
19193TIP3    H178994   6.120   1.092  12.110 -2.6542 -1.4635  0.4639
19193TIP3    H278995   6.232   1.010  12.168 -0.1631  1.2554 -0.2624
19194TIP3   OH278996   1.015   0.027  14.370  0.7046 -0.6118  0.0737
19194TIP3    H178997   1.053   0.030  14.283  0.2650 -0.0504 -0.1062
19194TIP3    H278998   0.921   0.013  14.355  0.7718 -1.6209  0.4966
19195TIP3   OH278999   3.028   4.983   3.575 -0.7224  0.0267  0.0971
19195TIP3    H179000   2.974   4.941   3.641  1.3879 -1.3420  1.0552
19195TIP3    H279001   3.112   4.997   3.618  0.2236  0.5796 -1.8153
19196TIP3   OH279002   2.327   2.232  11.685  0.1770 -0.9965 -0.5042
19196TIP3    H179003   2.239   2.205  11.709  0.5279 -0.6998  1.2699
19196TIP3    H279004   2.325   2.328  11.692  1.1851 -1.0641  1.8876
19197TIP3   OH279005   6.575   1.738  16.446  0.3728  0.0620  0.5092
19197TIP3    H179006   6.567   1.773  16.357  0.8853  0.4505  0.6126
19197TIP3    H279007   6.631   1.661  16.437  1.0768  0.5511  0.6012
19198TIP3   OH279008   1.610   3.829   4.974 -0.1996 -0.3738  0.6082
19198TIP3    H179009   1.649   3.764   4.915  0.6812 -1.3490  2.2129
19198TIP3    H279010   1.615   3.912   4.925 -0.7056 -1.3605 -1.1915
19199TIP3   OH279011   4.265   4.321  10.703 -0.1152  0.7276 -0.1002
19199TIP3    H179012   4.216   4.384  10.650  1.0680 -0.4341 -2.7662
19199TIP3    H279013   4.258   4.239  10.654 -0.9523 -1.1113  2.8388
19200TIP3   OH279014   1.658   2.552   2.916 -0.2431  0.1626  0.5478
19200TIP3    H179015   1.633   2.644   2.925  0.8271  0.6421 -0.9701
19200TIP3    H279016   1.644   2.532   2.824 -0.0921 -1.0951  0.7826
19201TIP3   OH279017   5.872   6.503   1.187  0.1985  0.1918 -0.3080
19201TIP3    H179018   5.851   6.589   1.224  1.2407  0.4923 -0.3784
19201TIP3    H279019   5.790   6.473   1.147 -0.1181  1.2645 -0.4999
19202TIP3   OH279020   3.467   6.224  11.866  0.1571 -0.3712 -0.3516
19202TIP3    H179021   3.460   6.294  11.801  2.0831 -1.4465 -1.8410
19202TIP3    H279022   3.382   6.223  11.911 -0.3832  1.9869 -1.2001
19203TIP3   OH279023   5.503   6.100   5.837  1.0034  0.7667  0.0988
19203TIP3    H179024   5.561   6.164   5.877 -0.5032  1.7178  0.8361
19203TIP3    H279025   5.462   6.054   5.910  2.1123 -1.1328 -0.4170
19204TIP3   OH279026   5.074   0.695   2.040 -0.4356 -0.2437 -0.3415
19204TIP3    H179027   5.158   0.719   2.080  0.0754 -1.3128 -0.7247
19204TIP3    H279028   5.026   0.777   2.033 -0.6416  0.0256  2.6417
19205TIP3   OH279029   5.305   4.737  11.863 -0.1695 -0.0866  0.4453
19205TIP3    H179030   5.239   4.667  11.863  1.5719 -1.8441  1.2515
19205TIP3    H279031   5.271   4.802  11.924 -0.0603 -2.1226  2.8007
19206TIP3   OH279032   4.709   3.705  13.871  0.5035  0.0961 -0.2195
19206TIP3    H179033   4.624   3.708  13.915  0.8831 -1.2258  0.6642
19206TIP3    H279034   4.717   3.615  13.840  1.0307  0.5484 -1.4513
19207TIP3   OH279035   2.031   0.318  13.878 -0.2332  0.2251 -0.0569
19207TIP3    H179036   2.048   0.273  13.961  0.3581  0.5993  0.0325
19207TIP3    H279037   2.097   0.388  13.875 -0.0157 -0.0062 -1.0025
19208TIP3   OH279038   0.557   4.476   3.125  0.2768  0.1228  0.6144
19208TIP3    H179039   0.612   4.521   3.188 -0.8883  0.9438  1.0887
19208TIP3    H279040   0.468   4.503   3.147 -0.1947  0.2128 -1.2012
19209TIP3   OH279041   1.824   3.016  11.950  0.6029  0.0030 -0.1509
19209TIP3    H179042   1.766   3.047  12.020  1.7392  0.5496  0.5772
19209TIP3    H279043   1.765   2.979  11.884 -0.4305 -3.0795  2.2509
19210TIP3   OH279044   2.749   6.773   6.130  0.3099 -0.0410 -0.1948
19210TIP3    H179045   2.712   6.853   6.167 -0.0142  0.2769 -1.1766
19210TIP3    H279046   2.728   6.705   6.193  1.5258  0.8074  1.1944
19211TIP3   OH279047   5.353   0.871   2.090 -0.3723  0.2035  0.1282
19211TIP3    H179048   5.290   0.920   2.037  0.2790  0.8137 -0.0960
19211TIP3    H279049   5.335   0.899   2.180  0.0366  0.9213 -0.0037
19212TIP3   OH279050   5.373   4.502   2.881  0.3167  0.3509 -0.3714
19212TIP3    H179051   5.374   4.510   2.786  0.2009 -0.4188 -0.4410
19212TIP3    H279052   5.357   4.592   2.912 -2.7899  0.1968 -1.1667
19213TIP3   OH279053   0.210   2.409  14.764  0.3199 -0.2992  0.1475
19213TIP3    H179054   0.232   2.473  14.832  0.3995 -0.3654  0.1838
19213TIP3    H279055   0.139   2.358  14.801 -1.0461  0.9719 -0.5925
19214TIP3   OH279056   2.279   4.796  11.131  0.2968 -0.1739  0.2923
19214TIP3    H179057   2.340   4.785  11.204 -0.7049  0.0936  1.2168
19214TIP3    H279058   2.334   4.806  11.054  1.4835  1.6883  1.3044
19215TIP3   OH279059   0.410   0.115  16.483  0.0372 -0.2219 -0.0576
19215TIP3    H179060   0.472   0.188  16.486 -0.6500  0.4094 -0.9138
19215TIP3    H279061   0.435   0.065  16.406 -0.3992 -0.0624 -0.3076
19216TIP3   OH279062   6.088   2.676   1.251 -0.1720 -0.1869 -0.1710
19216TIP3    H179063   6.138   2.595   1.235 -2.0462 -1.2169 -1.1568
19216TIP3    H279064   6.029   2.654   1.323 -0.8094  0.2306 -0.5521
19217TIP3   OH279065   1.408   1.110  15.462 -0.3800 -0.0663 -0.1975
19217TIP3    H179066   1.375   1.056  15.534  0.7523 -2.2777 -1.2384
19217TIP3    H279067   1.467   1.052  15.414 -0.7649  1.4697 -2.6779
19218TIP3   OH279068   1.439   2.652  16.616  0.1216 -0.2623 -0.7054
19218TIP3    H179069   1.490   2.647  16.697 -2.9933 -0.6408  1.4128
19218TIP3    H279070   1.471   2.730  16.572  1.9765 -0.0922  0.8123
19219TIP3   OH279071   3.534   4.875  13.253 -0.0489 -0.0002 -0.7413
19219TIP3    H179072   3.539   4.937  13.325  0.3431 -0.5656 -0.2769
19219TIP3    H279073   3.582   4.798  13.283  1.5923  0.3622 -2.2203
19220TIP3   OH279074   0.561   3.736   0.215 -0.4478  0.3748  0.6647
19220TIP3    H179075   0.544   3.738   0.309  0.0662 -0.5209  0.7887
19220TIP3    H279076   0.609   3.654   0.201  1.7950  1.6964  0.0145
19221TIP3   OH279077   5.987   3.558  12.932 -0.9494  0.4707  0.0659
19221TIP3    H179078   5.898   3.590  12.942 -1.0360  0.0470  0.7524
19221TIP3    H279079   5.989   3.477  12.983 -0.3188  0.1964 -0.3823
19222TIP3   OH279080   0.553   2.631   6.168  0.3701  0.5944  0.2667
19222TIP3    H179081   0.459   2.616   6.159  0.5039 -1.4413  1.5302
19222TIP3    H279082   0.567   2.720   6.135 -1.7104  0.3247 -1.6166
19223TIP3   OH279083   5.508   1.182  15.862 -0.0042  0.4698  0.4977
19223TIP3    H179084   5.440   1.117  15.844 -0.3877  1.3677 -1.5697
19223TIP3    H279085   5.587   1.147  15.820 -0.0499  0.9842 -0.0398
19224TIP3   OH279086   0.248   6.368  10.312  0.0635 -0.2043  0.1769
19224TIP3    H179087   0.256   6.294  10.251 -2.6895 -0.4673 -0.0080
19224TIP3    H279088   0.247   6.327  10.399 -3.1867 -0.7651  0.0319
19225TIP3   OH279089   1.661   3.549  12.435 -0.6473 -0.3058  0.1164
19225TIP3    H179090   1.746   3.566  12.476 -0.4681  3.6778 -1.4444
19225TIP3    H279091   1.622   3.480  12.489  2.8051 -1.0454  1.9572
19226TIP3   OH279092   4.939   5.313  12.347  0.8632 -0.2798 -0.0224
19226TIP3    H179093   4.871   5.248  12.332 -1.2939  2.1457 -1.6861
19226TIP3    H279094   4.898   5.376  12.407  2.9661 -0.4640  1.7479
19227TIP3   OH279095   0.502   2.309  14.768  0.0881  0.3550  0.2432
19227TIP3    H179096   0.506   2.230  14.821  0.5734  0.8659  0.9961
19227TIP3    H279097   0.416   2.307  14.728 -0.6729  0.3986  1.7913
19228TIP3   OH279098   3.402   6.243   3.229 -0.2513  0.1128 -0.0695
19228TIP3    H179099   3.375   6.317   3.284 -1.3167  0.2734 -0.7844
19228TIP3    H279100   3.482   6.274   3.186  0.2134  0.2340  0.8563
19229TIP3   OH279101   5.136   0.626   2.328  0.5485  0.4360 -0.3901
19229TIP3    H179102   5.118   0.699   2.387  0.1100  0.0431 -0.0210
19229TIP3    H279103   5.049   0.590   2.309  0.6522  0.7572 -1.5434
19230TIP3   OH279104   5.431   3.772   5.888 -0.0082  0.8492  0.3556
19230TIP3    H179105   5.479   3.782   5.806  1.0806  0.5931  0.9489
19230TIP3    H279106   5.339   3.766   5.861  0.1775  2.2384 -0.7412
19231TIP3   OH279107   1.866   1.386   2.445  0.4375  0.0109 -0.1058
19231TIP3    H179108   1.935   1.430   2.496 -0.0284  0.1581  0.4078
19231TIP3    H279109   1.895   1.394   2.354  1.8801 -1.3005  0.2026
19232TIP3   OH279110   2.253   5.208   5.934  0.2729  0.4021  0.6505
19232TIP3    H179111   2.205   5.236   5.856 -0.4887  0.5977  1.1734
19232TIP3    H279112   2.303   5.132   5.905  1.5448  1.6312 -0.5174
19233TIP3   OH279113   3.590   6.714  11.703  0.0347 -0.2592  0.1550
19233TIP3    H179114   3.548   6.750  11.624  0.1134  1.0587  0.7053
19233TIP3    H279115   3.673   6.680  11.671 -0.2420 -0.3934 -0.4556
19234TIP3   OH279116   4.862   3.888  14.013  0.7824  0.1540  0.2666
19234TIP3    H179117   4.815   3.831  13.952  1.0799  0.4808 -0.2697
19234TIP3    H279118   4.935   3.923  13.962  0.7163  0.8654  0.6551
19235TIP3   OH279119   2.898   6.629   4.453 -0.3553 -0.2899  0.4617
19235TIP3    H179120   2.907   6.665   4.541  0.5311  1.4821 -0.3084
19235TIP3    H279121   2.978   6.578   4.438  0.8945  1.7876 -0.3184
19236TIP3   OH279122   0.004   0.554  12.595  0.6756  0.2241 -0.0161
19236TIP3    H179123  -0.034   0.466  12.594 -0.2485  0.6112 -0.3309
19236TIP3    H279124   0.027   0.569  12.687  1.8578 -0.7590 -0.1400
19237TIP3   OH279125   4.321   6.271  15.636 -0.3714 -0.5379  0.0826
19237TIP3    H179126   4.254   6.224  15.586 -0.2710 -1.8181  1.0847
19237TIP3    H279127   4.349   6.342  15.578 -2.1502 -0.3358 -0.5986
19238TIP3   OH279128   3.942   4.415   5.969  0.5971 -0.3333  0.0114
19238TIP3    H179129   3.927   4.380   5.881  2.2488 -0.8817 -0.0923
19238TIP3    H279130   3.999   4.490   5.955  0.1477  0.1139  0.5556
19239TIP3   OH279131   2.312   3.684   1.671 -0.1976 -0.2623 -0.0504
19239TIP3    H179132   2.316   3.601   1.718  0.7159 -0.4552 -0.4430
19239TIP3    H279133   2.222   3.689   1.638 -0.1366 -1.3105 -0.4006
19240TIP3   OH279134   5.216   0.757   1.192 -0.3003 -0.4601 -0.1040
19240TIP3    H179135   5.258   0.691   1.248  1.5631  0.4438 -0.3564
19240TIP3    H279136   5.263   0.838   1.212 -0.4281  0.1365 -2.0603
19241TIP3   OH279137   2.067   5.229  15.973  0.8161 -0.0515  0.0376
19241TIP3    H179138   1.992   5.171  15.987  0.2353  0.3258 -1.3533
19241TIP3    H279139   2.029   5.309  15.937  1.8872  0.1437 -0.6992
19242TIP3   OH279140   1.585   6.444  11.162  0.0260  0.7922 -0.1927
19242TIP3    H179141   1.679   6.428  11.171 -0.1199  0.3132  0.5704
19242TIP3    H279142   1.563   6.409  11.075  0.3237 -0.2744  0.1437
19243TIP3   OH279143   3.585   2.436   4.496  0.3385  0.4328  0.1790
19243TIP3    H179144   3.638   2.357   4.482  0.4179  0.1561  1.8482
19243TIP3    H279145   3.507   2.422   4.443  0.3779 -0.7368  0.4066
19244TIP3   OH279146   3.960   0.442   2.009 -0.5661  0.1416 -0.0922
19244TIP3    H179147   3.912   0.429   2.091 -1.5767 -1.0573 -0.8463
19244TIP3    H279148   3.923   0.522   1.972 -1.6991 -0.5270 -0.4429
19245TIP3   OH279149   2.249   5.246   3.508  0.9702 -0.2276 -0.4875
19245TIP3    H179150   2.228   5.185   3.579  0.4812  0.2043 -0.2546
19245TIP3    H279151   2.274   5.327   3.552 -1.3079  0.7152 -0.7773
19246TIP3   OH279152   1.279   0.764   0.789 -0.1105  0.0713 -0.1607
19246TIP3    H179153   1.211   0.764   0.858  0.8906 -0.4365  0.8590
19246TIP3    H279154   1.346   0.704   0.822  2.2552  2.7743  0.2841
19247TIP3   OH279155   0.867   6.031   2.247 -0.1920  0.2378  0.4222
19247TIP3    H179156   0.935   6.018   2.182 -0.2357  0.2407  0.3757
19247TIP3    H279157   0.882   5.962   2.312 -0.3131  0.0649  0.2695
19248TIP3   OH279158   0.292   6.611   0.863 -0.0910  0.0773 -0.1965
19248TIP3    H179159   0.291   6.600   0.768 -1.0493 -0.7840 -0.1040
19248TIP3    H279160   0.383   6.630   0.885  0.3389 -0.7989 -1.1721
19249TIP3   OH279161   1.908   2.854   2.753 -0.0964  0.1949  0.0750
19249TIP3    H179162   1.961   2.933   2.750 -0.3094  0.3289 -0.2158
19249TIP3    H279163   1.891   2.840   2.846 -0.2107  0.5939  0.1179
19250TIP3   OH279164   4.073   6.663   3.153 -0.1645 -0.2521 -0.2657
19250TIP3    H179165   4.024   6.581   3.147 -2.2874  0.6916  2.1526
19250TIP3    H279166   4.093   6.672   3.246  0.1099  1.9067 -0.4795
19251TIP3   OH279167   1.537   5.365   5.604 -0.0467  0.5744  0.5007
19251TIP3    H179168   1.607   5.321   5.556 -1.1018 -1.4290  0.6770
19251TIP3    H279169   1.528   5.450   5.561  4.1457  2.0693  2.0640
19252TIP3   OH279170   4.416   1.206  16.957 -0.2098 -0.1103  0.3889
19252TIP3    H179171   4.432   1.214  16.863 -0.9958 -1.9723  0.0611
19252TIP3    H279172   4.385   1.116  16.969 -2.0857  0.6767  2.1419
19253TIP3   OH279173   6.181   0.720  13.789  0.1264  0.4568 -0.7774
19253TIP3    H179174   6.176   0.679  13.703  1.9565  1.4983 -1.4237
19253TIP3    H279175   6.237   0.662  13.840 -0.0584  0.4102 -0.6255
19254TIP3   OH279176   2.706   6.352   0.522 -0.3039 -0.3619  0.0761
19254TIP3    H179177   2.639   6.415   0.547  0.9349  1.2926 -0.5397
19254TIP3    H279178   2.725   6.373   0.431 -0.1053 -1.8964 -0.2533
19255TIP3   OH279179   3.892   2.401  12.215  0.0852 -0.2249 -0.2616
19255TIP3    H179180   3.969   2.398  12.158  0.1870  0.3157 -0.1646
19255TIP3    H279181   3.927   2.420  12.302  0.0199 -2.0209  0.1862
19256TIP3   OH279182   1.024   6.311   1.029 -0.5239 -0.0658  0.0103
19256TIP3    H179183   1.025   6.394   1.076 -0.3661 -0.0813  0.0353
19256TIP3    H279184   1.041   6.245   1.095 -2.0585 -0.2555  0.2463
19257TIP3   OH279185   0.248   0.656   2.083 -0.1486 -0.5073 -0.2369
19257TIP3    H179186   0.313   0.718   2.049 -0.8590  0.5062  0.2135
19257TIP3    H279187   0.173   0.666   2.025 -0.8410  0.2090  0.7360
19258TIP3   OH279188   0.704   3.578  12.078 -0.8952 -0.3939 -0.0664
19258TIP3    H179189   0.627   3.614  12.034 -0.2323  1.9620  0.5458
19258TIP3    H279190   0.778   3.609  12.026 -0.2625 -0.7004  0.6247
19259TIP3   OH279191   2.337   2.807   1.198  0.1107 -0.0788  0.1633
19259TIP3    H179192   2.275   2.741   1.167  1.0465 -0.6707 -0.5182
19259TIP3    H279193   2.399   2.758   1.251  2.3677 -0.3402 -2.4616
19260TIP3   OH279194   2.862   4.809  13.168 -0.5661 -0.2003  0.0059
19260TIP3    H179195   2.815   4.745  13.222  0.6487 -0.0635  1.2728
19260TIP3    H279196   2.895   4.758  13.095 -1.0180 -0.6861  0.1303
19261TIP3   OH279197   5.143   3.842   2.705  0.7968  0.0847 -0.5032
19261TIP3    H179198   5.225   3.859   2.752 -0.7165 -0.0336  2.3760
19261TIP3    H279199   5.139   3.746   2.700  0.3880  0.0533  0.2714
19262TIP3   OH279200   4.250   1.560   2.204  0.2624 -0.4291  0.0072
19262TIP3    H179201   4.289   1.617   2.138 -1.2393 -0.4749 -0.9524
19262TIP3    H279202   4.260   1.471   2.169 -0.2947 -0.4799 -0.0233
19263TIP3   OH279203   0.317   3.001  16.406  0.0038 -0.0677 -0.0713
19263TIP3    H179204   0.377   3.074  16.416  1.0404 -0.8132 -0.6263
19263TIP3    H279205   0.300   2.971  16.496  1.9895 -1.0121  0.0598
19264TIP3   OH279206   2.460   2.179   0.864  0.1442 -0.7519 -0.3003
19264TIP3    H179207   2.541   2.127   0.858 -0.4389 -1.7077 -0.0164
19264TIP3    H279208   2.401   2.126   0.916  0.1654  1.0227  1.7047
19265TIP3   OH279209   5.430   2.921  12.660 -0.1027 -0.0493  0.3188
19265TIP3    H179210   5.470   2.969  12.732  0.3366  0.2636 -0.1260
19265TIP3    H279211   5.483   2.943  12.584 -0.4492 -0.5199 -0.0694
19266TIP3   OH279212   6.123   2.153  14.978 -0.1540 -0.1631 -0.8147
19266TIP3    H179213   6.133   2.125  14.887  0.5703  0.7834 -1.0451
19266TIP3    H279214   6.031   2.138  14.998  0.0496 -2.0211 -1.1264
19267TIP3   OH279215   0.923   2.065  14.734 -0.4276 -0.0598 -0.5387
19267TIP3    H179216   0.910   2.103  14.647  1.8316  1.7011 -0.2024
19267TIP3    H279217   0.992   1.999  14.722  0.9086  1.1782  0.1095
19268TIP3   OH279218   3.049   5.829   6.340  0.5929 -0.0857 -0.2426
19268TIP3    H179219   3.008   5.909   6.308 -0.2062 -0.4184 -0.0864
19268TIP3    H279220   3.133   5.825   6.296  1.1635  1.4566  0.6508
19269TIP3   OH279221   3.429   4.653   0.266 -0.0514 -0.0270 -0.2730
19269TIP3    H179222   3.335   4.664   0.250  0.1745  1.3594 -0.8011
19269TIP3    H279223   3.463   4.614   0.186 -0.0986 -0.1322 -0.2429
19270TIP3   OH279224   5.823   2.345  11.191  0.3053  0.1353  0.3974
19270TIP3    H179225   5.760   2.292  11.141 -0.3489 -0.2411  1.5744
19270TIP3    H279226   5.784   2.432  11.194  0.0472  0.0053  0.7768
19271TIP3   OH279227   6.104   4.230  13.886 -0.2573 -0.2781  0.3688
19271TIP3    H179228   6.192   4.267  13.901 -0.1111 -0.4096 -0.1433
19271TIP3    H279229   6.089   4.174  13.962  0.2990 -0.6193  0.2299
19272TIP3   OH279230   4.589   3.444  15.193  0.8337  0.2797 -0.2252
19272TIP3    H179231   4.579   3.510  15.125 -1.0131  1.4460  1.0861
19272TIP3    H279232   4.613   3.494  15.271 -0.4811 -0.5870  0.7742
19273TIP3   OH279233   6.026   2.248   5.749 -0.1658 -0.1479  0.1655
19273TIP3    H179234   6.073   2.276   5.828 -2.4237  2.0748  0.8439
19273TIP3    H279235   6.092   2.250   5.680  2.2867 -3.6789  2.1047
19274TIP3   OH279236   1.608   4.052   2.690  0.2858 -0.2718 -0.0677
19274TIP3    H179237   1.661   4.049   2.770  0.9604 -0.3849 -0.5138
19274TIP3    H279238   1.635   3.974   2.641  0.7861  0.4604 -0.9729
19275TIP3   OH279239   1.162   4.184   6.159 -0.3084  0.1935 -0.3230
19275TIP3    H179240   1.135   4.127   6.230 -0.5288  1.0326  0.2755
19275TIP3    H279241   1.252   4.209   6.181 -0.1364 -0.0750 -0.6945
19276TIP3   OH279242   1.076   5.882  17.141  0.0911 -0.1722 -0.0095
19276TIP3    H179243   1.148   5.822  17.121 -0.5459 -1.5138  1.4976
19276TIP3    H279244   1.118   5.967  17.152  1.5614 -1.0323  1.4297
19277TIP3   OH279245   6.720   2.072  10.731  0.1297 -0.5727  0.1142
19277TIP3    H179246   6.628   2.062  10.709 -0.3919 -1.9068  2.5220
19277TIP3    H279247   6.727   2.161  10.765 -0.4044 -0.6224  0.3708
19278TIP3   OH279248   6.704   5.647   2.419 -0.4024 -0.1624 -0.3461
19278TIP3    H179249   6.729   5.638   2.511 -1.3431  0.4591 -0.0174
19278TIP3    H279250   6.641   5.577   2.404 -0.4081 -0.1321 -0.4717
19279TIP3   OH279251   3.896   0.211   1.690 -0.1326 -0.4562  0.5653
19279TIP3    H179252   3.974   0.251   1.652  1.2846 -1.9269  1.7550
19279TIP3    H279253   3.883   0.258   1.773  0.6175 -1.3738  1.2301
19280TIP3   OH279254   4.351   0.639   1.085 -0.0251 -0.3441 -0.2446
19280TIP3    H179255   4.313   0.707   1.141 -2.4090 -1.3605 -0.5245
19280TIP3    H279256   4.383   0.572   1.147 -0.3843 -0.3274 -0.0403
19281TIP3   OH279257   0.284   4.539  16.931 -0.2390 -0.1672  0.0787
19281TIP3    H179258   0.312   4.581  17.013 -1.8145 -0.5324  0.8535
19281TIP3    H279259   0.219   4.475  16.958 -0.0489 -1.0211 -1.3896
19282TIP3   OH279260   3.730   0.283  10.729 -0.3113  0.0864 -0.3090
19282TIP3    H179261   3.738   0.233  10.647 -1.2209  0.9973 -0.9894
19282TIP3    H279262   3.741   0.219  10.798  0.6016 -0.6915 -1.1481
19283TIP3   OH279263   2.874   1.705  17.063 -0.1272  0.1151 -0.3326
19283TIP3    H179264   2.908   1.620  17.091  1.5074  0.4652 -1.0962
19283TIP3    H279265   2.892   1.763  17.136  0.4252  0.1664 -0.4989
19284TIP3   OH279266   4.402   3.265  13.548  0.3238 -0.0386  0.1222
19284TIP3    H179267   4.430   3.324  13.478  0.3717 -2.2183 -1.8411
19284TIP3    H279268   4.307   3.257  13.535  0.6206 -2.2575 -1.3442
19285TIP3   OH279269   5.285   5.385   4.908 -0.4263 -0.1206  0.0633
19285TIP3    H179270   5.330   5.300   4.903  0.1740  0.1604  0.5409
19285TIP3    H279271   5.313   5.432   4.830 -0.4191 -0.2073  0.0142
19286TIP3   OH279272   4.773   5.111   6.322  0.1292 -0.1669  0.1404
19286TIP3    H179273   4.852   5.059   6.338  0.4221  0.6544  1.5639
19286TIP3    H279274   4.803   5.188   6.274 -0.0088 -0.4051 -0.3385
19287TIP3   OH279275   4.457   1.356   1.974  0.2302 -0.3897  0.2762
19287TIP3    H179276   4.442   1.408   1.894 -1.4454  0.4161  1.0615
19287TIP3    H279277   4.523   1.292   1.949 -0.8987 -0.7477 -2.0408
19288TIP3   OH279278   0.824   6.005   3.637  0.1654 -0.1958 -0.1105
19288TIP3    H179279   0.790   6.019   3.725  0.8218  0.5853  0.0274
19288TIP3    H279280   0.747   5.981   3.585 -0.3233 -0.0526  0.5333
19289TIP3   OH279281   6.073   3.065   2.071 -0.7009 -0.4810  0.1486
19289TIP3    H179282   6.086   3.141   2.014  0.3472 -0.9585 -0.2727
19289TIP3    H279283   6.011   3.095   2.137 -0.5226  0.6550 -0.1783
19290TIP3   OH279284   0.427   1.724  14.937 -0.3261  0.3575 -0.0513
19290TIP3    H179285   0.504   1.766  14.976 -0.4525  0.4482  0.1014
19290TIP3    H279286   0.353   1.757  14.988 -0.6949  1.8587 -1.4854
19291TIP3   OH279287   4.918   0.568   5.060  0.1067 -0.6524  0.3179
19291TIP3    H179288   4.975   0.642   5.081 -1.0425  0.6832 -1.0551
19291TIP3    H279289   4.857   0.564   5.133 -0.4882  0.4607 -0.1064
19292TIP3   OH279290   3.862   3.752  13.147 -0.0562 -0.2376 -0.6091
19292TIP3    H179291   3.929   3.767  13.080  0.4455 -1.0027 -0.2904
19292TIP3    H279292   3.887   3.669  13.188 -0.4764  0.1104  0.3825
19293TIP3   OH279293   2.046   6.097   0.097 -0.2852  1.3284  0.0872
19293TIP3    H179294   2.051   6.183   0.056  0.2800  1.0298 -0.4862
19293TIP3    H279295   2.118   6.048   0.058 -1.7614 -0.0305 -1.0427
19294TIP3   OH279296   0.325   5.025  12.297  0.3074 -0.4522  0.5268
19294TIP3    H179297   0.320   5.109  12.343  0.2413 -0.7637  1.0966
19294TIP3    H279298   0.257   5.029  12.231  0.3522 -0.0272  0.5048
19295TIP3   OH279299   5.413   5.854  16.199  0.1847 -0.4787  0.1313
19295TIP3    H179300   5.433   5.798  16.274  2.0626  0.1348  0.1391
19295TIP3    H279301   5.458   5.813  16.125  1.9403  1.1527  0.2122
19296TIP3   OH279302   6.774   1.348  12.386  0.3608 -0.2553 -0.6751
19296TIP3    H179303   6.814   1.262  12.373  1.5529  0.1622  0.1338
19296TIP3    H279304   6.801   1.375  12.473 -2.5221 -0.3599  0.3641
19297TIP3   OH279305   0.596   2.858   5.235 -0.1881 -1.4672 -0.3123
19297TIP3    H179306   0.608   2.830   5.326 -0.1770  0.3221  0.2643
19297TIP3    H279307   0.677   2.833   5.192  1.5686  1.2042  1.1438
19298TIP3   OH279308   3.354   0.613   5.517  0.0097 -0.0068 -0.0492
19298TIP3    H179309   3.330   0.657   5.435 -2.6347 -2.5214 -0.8031
19298TIP3    H279310   3.332   0.677   5.585  0.1094  1.2951 -1.1720
19299TIP3   OH279311   1.491   0.095   0.162 -0.3021  0.1232  0.0503
19299TIP3    H179312   1.538   0.014   0.140  0.3755  0.2982  0.7918
19299TIP3    H279313   1.420   0.100   0.098 -1.5264 -2.0465  1.1120
19300TIP3   OH279314   2.870   0.190   0.956  0.1393  0.1535  0.3230
19300TIP3    H179315   2.818   0.218   0.881 -0.9405 -1.7689  0.3005
19300TIP3    H279316   2.806   0.172   1.024  0.9674  0.0501  1.0883
19301TIP3   OH279317   5.531   2.398   2.369 -0.1339  0.2141  0.4000
19301TIP3    H179318   5.575   2.478   2.340 -0.6240 -0.0497 -1.1171
19301TIP3    H279319   5.459   2.429   2.424  0.1515  0.7719  0.4660
19302TIP3   OH279320   5.094   1.995   1.995 -0.4605  0.9159 -0.5380
19302TIP3    H179321   5.189   2.003   2.000 -0.6017  3.5986 -1.0609
19302TIP3    H279322   5.063   2.021   2.082 -0.7211 -1.5863  0.2030
19303TIP3   OH279323   2.224   3.999  15.456  0.7401  0.5156 -0.1443
19303TIP3    H179324   2.221   4.026  15.548 -0.9384  1.7649 -0.5066
19303TIP3    H279325   2.304   4.038  15.421  0.2226  1.9931  0.2562
19304TIP3   OH279326   5.359   6.218  16.580  0.1804  0.0585 -0.2215
19304TIP3    H179327   5.292   6.282  16.602 -0.6161 -0.7367 -0.2585
19304TIP3    H279328   5.411   6.259  16.512  0.0405  0.8845  0.1589
19305TIP3   OH279329   5.217   2.042  15.369 -0.1722 -0.3963 -0.0957
19305TIP3    H179330   5.285   2.107  15.349 -1.0385  0.4323 -0.4418
19305TIP3    H279331   5.264   1.969  15.408  0.8644  0.3502  0.0948
19306TIP3   OH279332   0.461   0.468   2.577 -0.7975  0.5197 -0.2032
19306TIP3    H179333   0.475   0.388   2.528 -1.3190  0.5706 -0.4345
19306TIP3    H279334   0.540   0.477   2.631 -0.8642 -0.2883  0.0294
19307TIP3   OH279335   0.203   0.176   0.020 -0.2249  0.2456 -0.1817
19307TIP3    H179336   0.154   0.228  -0.043 -1.4829  1.2420  1.5287
19307TIP3    H279337   0.295   0.197   0.003 -0.6295  1.8068 -0.5940
19308TIP3   OH279338   4.472   1.807   1.378  0.3311 -0.3749  0.0875
19308TIP3    H179339   4.377   1.812   1.367  0.1875  0.8664  1.5196
19308TIP3    H279340   4.494   1.715   1.363 -0.9157 -0.4650 -1.4371
19309TIP3   OH279341   3.121   6.000  16.949 -0.1194 -0.1710  0.4541
19309TIP3    H179342   3.052   6.017  16.885  0.3206 -0.6583 -0.1573
19309TIP3    H279343   3.162   5.919  16.919  1.9754  1.0886 -0.3111
19310TIP3   OH279344   1.994   0.160   1.704 -0.3213 -0.1850 -0.0954
19310TIP3    H179345   2.076   0.200   1.676 -1.0141 -0.5075 -2.9024
19310TIP3    H279346   1.932   0.233   1.709 -0.1879 -0.1191  0.7875
19311TIP3   OH279347   2.890   1.853  14.378  0.1784  0.2663 -0.0345
19311TIP3    H179348   2.942   1.832  14.300  0.5658  0.5482  0.1419
19311TIP3    H279349   2.880   1.948  14.375  1.0158  0.3904  0.7599
19312TIP3   OH279350   4.478   6.698  14.451 -0.7987 -0.6734  0.1405
19312TIP3    H179351   4.480   6.684  14.545  0.6427 -0.2028  0.1973
19312TIP3    H279352   4.569   6.692  14.423 -1.0395  0.5157 -1.0322
19313TIP3   OH279353   1.219   1.794  16.762 -0.2208 -0.1435 -0.3560
19313TIP3    H179354   1.303   1.810  16.719  0.1280 -1.3916 -0.1796
19313TIP3    H279355   1.240   1.733  16.833 -1.4506 -1.4067 -1.0371
19314TIP3   OH279356   2.022   3.011  14.696  0.4706  0.1496 -0.1349
19314TIP3    H179357   2.072   3.058  14.629 -0.0218  3.0492  1.3251
19314TIP3    H279358   1.943   2.981  14.652  1.3787 -0.4490 -1.4212
19315TIP3   OH279359   5.407   4.445  15.066  0.0815 -0.1170  0.8031
19315TIP3    H179360   5.312   4.446  15.076  0.0810  0.3013  0.7595
19315TIP3    H279361   5.422   4.390  14.989 -0.1704  0.4042  0.3748
19316TIP3   OH279362   1.377   5.037  11.627  0.5142  0.2546  0.3531
19316TIP3    H179363   1.412   4.951  11.652  0.3151  0.3701  1.0564
19316TIP3    H279364   1.440   5.071  11.564  1.1503  0.0246  0.8489
19317TIP3   OH279365   0.436   3.071   0.818 -0.3930  0.7742 -0.5600
19317TIP3    H179366   0.405   3.102   0.904  1.1991 -1.4145  0.9209
19317TIP3    H279367   0.356   3.057   0.768 -1.3624  2.3023  0.4802
19318TIP3   OH279368   4.935   4.940  11.780  0.4261 -0.6085  0.3943
19318TIP3    H179369   4.904   4.864  11.732  0.6033 -0.0109 -0.7090
19318TIP3    H279370   4.872   4.951  11.852 -1.3622 -0.0592 -1.1611
19319TIP3   OH279371   1.442   5.875   3.629  0.0895 -0.0623 -0.1578
19319TIP3    H179372   1.476   5.788   3.612  0.7655  0.0845  0.3598
19319TIP3    H279373   1.365   5.861   3.684 -0.1297 -0.3562 -0.5407
19320TIP3   OH279374   1.958   0.698   5.266  0.9058 -0.0031 -0.3292
19320TIP3    H179375   2.052   0.718   5.264  0.7918  0.4796 -1.0249
19320TIP3    H279376   1.925   0.745   5.343  1.0944  0.4830 -0.5393
19321TIP3   OH279377   2.883   4.118  14.318 -0.4401 -0.1254 -0.0451
19321TIP3    H179378   2.945   4.189  14.300  0.2003 -0.6782 -0.0665
19321TIP3    H279379   2.930   4.038  14.294 -2.0883 -0.4266 -2.6441
19322TIP3   OH279380   2.489   3.998   5.036  0.1154 -0.4384 -0.3731
19322TIP3    H179381   2.542   4.068   4.999 -0.0962 -0.2414 -0.3067
19322TIP3    H279382   2.499   3.925   4.974 -1.4193  0.3740 -1.6557
19323TIP3   OH279383   4.023   1.487  16.438  0.4336  0.1363 -0.1623
19323TIP3    H179384   3.977   1.403  16.442 -3.0753  1.7373 -2.2611
19323TIP3    H279385   4.080   1.479  16.362  0.4657 -0.4983 -0.0795
19324TIP3   OH279386   0.062   6.274  11.693 -0.6621 -0.0562  0.3438
19324TIP3    H179387  -0.020   6.259  11.646 -0.7048 -0.8964  0.6627
19324TIP3    H279388   0.127   6.225  11.642 -0.5253 -0.1320  0.5909
19325TIP3   OH279389   3.291   6.259   1.996  0.2805  0.1238  0.6001
19325TIP3    H179390   3.219   6.196   1.985  0.9896 -0.7035  0.5142
19325TIP3    H279391   3.370   6.207   1.979  0.8315  1.3582 -0.8600
19326TIP3   OH279392   5.715   1.591   0.536 -0.2621  0.2799  0.3129
19326TIP3    H179393   5.786   1.651   0.556  0.9221 -0.9382 -0.0716
19326TIP3    H279394   5.702   1.542   0.618 -1.0581  0.8629  0.5521
19327TIP3   OH279395   4.723   2.662  11.762 -0.0951  0.0319  0.0388
19327TIP3    H179396   4.759   2.679  11.675  0.5115  0.3677  0.3480
19327TIP3    H279397   4.728   2.567  11.773 -1.6032 -0.1854 -0.8904
19328TIP3   OH279398   3.537   2.634   0.684  0.1258 -0.4987 -0.4305
19328TIP3    H179399   3.613   2.576   0.690 -0.1542 -0.8254  0.0105
19328TIP3    H279400   3.462   2.576   0.698 -0.2136 -0.2050 -1.0255
19329TIP3   OH279401   6.072   1.060  11.147 -0.7034 -0.3064  0.2162
19329TIP3    H179402   5.979   1.043  11.156 -0.3283 -1.7499  1.8231
19329TIP3    H279403   6.095   1.021  11.062 -1.2446 -1.5407  0.6164
19330TIP3   OH279404   6.207   4.159  11.649 -0.3176 -0.2383  0.1176
19330TIP3    H179405   6.244   4.086  11.599  1.6312 -0.0564  1.1954
19330TIP3    H279406   6.275   4.226  11.647 -1.2391  0.7531  0.8893
19331TIP3   OH279407   0.578   1.656  14.451  0.6790  0.7616 -0.4873
19331TIP3    H179408   0.509   1.605  14.409  0.8879  2.4434 -3.0651
19331TIP3    H279409   0.552   1.658  14.544 -1.6852 -0.2665 -1.0333
19332TIP3   OH279410   1.760   5.748  14.027  0.5161 -0.0443  0.5719
19332TIP3    H179411   1.747   5.843  14.017 -2.0476 -0.2993  0.8893
19332TIP3    H279412   1.833   5.740  14.088  0.1533  1.7470  1.2916
19333TIP3   OH279413   6.065   2.422  11.322 -0.2992 -0.0957 -0.1456
19333TIP3    H179414   6.056   2.498  11.380  1.2894  1.0605 -1.3263
19333TIP3    H279415   5.979   2.415  11.279 -0.3989  1.2194 -0.2063
19334TIP3   OH279416   5.051   2.096   1.757 -0.0421  0.2995  0.2262
19334TIP3    H179417   5.058   2.052   1.842  2.4929  1.4269  0.7070
19334TIP3    H279418   5.039   2.024   1.695  3.1303 -1.1693  1.0638
19335TIP3   OH279419   5.659   3.948  13.193 -0.2689  0.1038 -0.6983
19335TIP3    H179420   5.658   3.997  13.275  0.8570 -0.9049 -0.0516
19335TIP3    H279421   5.571   3.959  13.157 -0.8994  0.2503  0.8304
19336TIP3   OH279422   6.378   0.396   4.823  0.2360 -0.2041 -0.1313
19336TIP3    H179423   6.464   0.404   4.866  1.1179  0.3961 -1.9306
19336TIP3    H279424   6.382   0.457   4.750 -1.0200 -1.5536 -1.3828
19337TIP3   OH279425   1.532   2.033  10.749 -0.4556  0.5645  0.1672
19337TIP3    H179426   1.505   2.039  10.658  2.4435 -2.1760 -1.0284
19337TIP3    H279427   1.618   2.076  10.751  0.3426 -1.0173  1.1594
19338TIP3   OH279428   4.732   5.874  16.846 -0.1036  0.1655 -0.5497
19338TIP3    H179429   4.757   5.942  16.909  0.4633 -0.4533 -0.0836
19338TIP3    H279430   4.718   5.796  16.900  0.1155 -0.3081 -1.1623
19339TIP3   OH279431   5.422   3.646   0.344 -0.1430  0.0013  0.6867
19339TIP3    H179432   5.355   3.580   0.326 -0.9242  0.9712 -0.0887
19339TIP3    H279433   5.479   3.605   0.409 -0.2694 -1.6532 -0.2002
19340TIP3   OH279434   5.855   0.640  13.729 -0.6363  0.0343 -0.3024
19340TIP3    H179435   5.884   0.649  13.638  0.6649 -3.1394 -0.3423
19340TIP3    H279436   5.913   0.699  13.778 -1.1133  1.5125 -1.4369
19341TIP3   OH279437   5.148   5.124   1.527 -0.1269  0.3261 -0.4243
19341TIP3    H179438   5.137   5.086   1.440 -0.9708 -0.0234 -0.1695
19341TIP3    H279439   5.071   5.096   1.576  1.3219 -1.2626  1.0935
19342TIP3   OH279440   6.646   1.791   5.129 -0.1319  0.0279  0.3561
19342TIP3    H179441   6.687   1.728   5.188  0.0494  1.0117  1.3236
19342TIP3    H279442   6.573   1.827   5.180 -1.3092 -0.6289 -0.8071
19343TIP3   OH279443   1.434   1.753   6.304 -0.1970  0.0872  0.2186
19343TIP3    H179444   1.443   1.798   6.220  1.4979 -0.7523 -0.0751
19343TIP3    H279445   1.484   1.807   6.365 -0.1203 -0.1464  0.3612
19344TIP3   OH279446   5.726   1.616   3.266  0.1921  0.7318  0.3487
19344TIP3    H179447   5.639   1.650   3.243  0.3420  0.1358 -1.1709
19344TIP3    H279448   5.723   1.524   3.241  1.0874  0.5748  0.8044
19345TIP3   OH279449   3.602   2.097   4.736  0.2891 -0.3289  0.7784
19345TIP3    H179450   3.605   2.107   4.641 -0.1535 -1.4253  0.6315
19345TIP3    H279451   3.667   2.158   4.769 -0.5624  1.1250 -0.1429
19346TIP3   OH279452   5.735   5.572  13.879  0.2274  0.6912 -0.4472
19346TIP3    H179453   5.645   5.595  13.902  0.2933  0.6899 -0.1841
19346TIP3    H279454   5.780   5.566  13.963  0.9547  2.5984 -0.6562
19347TIP3   OH279455   0.908   1.795   1.468  0.6646  0.9079  0.3627
19347TIP3    H179456   0.909   1.852   1.391 -1.6222 -0.0384 -0.4421
19347TIP3    H279457   0.842   1.833   1.525  0.4631  0.1354  0.6565
19348TIP3   OH279458   1.836   3.513   0.463  0.2053  0.1969  0.2181
19348TIP3    H179459   1.830   3.466   0.380 -1.0916  0.0719  0.3641
19348TIP3    H279460   1.857   3.446   0.527  2.1797  0.4329 -0.1075
19349TIP3   OH279461   3.784   5.094  12.056 -0.4482  0.5535 -0.0733
19349TIP3    H179462   3.852   5.134  12.002  0.5810  0.9506  1.4774
19349TIP3    H279463   3.734   5.040  11.994  3.0173 -2.1384 -0.8515
19350TIP3   OH279464   5.579   0.126  14.028 -0.2080  0.5047  0.3441
19350TIP3    H179465   5.549   0.061  13.964 -0.1596 -0.1850  0.9978
19350TIP3    H279466   5.662   0.158  13.994  0.0788 -0.2506  0.3195
19351TIP3   OH279467   0.787   0.039   0.483 -0.2284  0.3219 -0.1455
19351TIP3    H179468   0.752  -0.048   0.500 -2.0319  1.1656  0.8123
19351TIP3    H279469   0.823   0.068   0.567  0.9731  0.2651 -0.6216
19352TIP3   OH279470   3.254   6.537  15.284 -0.2822  0.0811  0.3960
19352TIP3    H179471   3.254   6.520  15.378 -0.3313 -0.1784  0.3505
19352TIP3    H279472   3.245   6.451  15.244 -2.9694  0.3913  0.1729
19353TIP3   OH279473   1.785   0.440   0.194 -0.4750  0.5404  0.1783
19353TIP3    H179474   1.729   0.477   0.262 -2.4424 -0.4848 -0.8164
19353TIP3    H279475   1.726   0.423   0.120  0.7784 -2.1252 -0.3356
19354TIP3   OH279476   5.117   2.410  16.573  0.6216 -0.0761  0.1191
19354TIP3    H179477   5.175   2.359  16.517 -0.6590 -0.3872 -0.9939
19354TIP3    H279478   5.128   2.373  16.660  1.2825 -0.8401 -0.2790
19355TIP3   OH279479   5.974   3.416   0.836  0.6249 -0.8018 -0.2637
19355TIP3    H179480   5.918   3.347   0.800  1.0975 -2.0345  1.2799
19355TIP3    H279481   6.060   3.399   0.798  0.2445  0.4925 -1.8415
19356TIP3   OH279482   3.304   2.643   2.078 -0.0246 -0.4978 -0.5606
19356TIP3    H179483   3.323   2.701   2.153 -1.6679  1.0424 -1.2486
19356TIP3    H279484   3.387   2.599   2.061  0.8294  0.3075  1.1558
19357TIP3   OH279485   5.135   4.492  11.801 -0.1423  0.1199  0.1635
19357TIP3    H179486   5.096   4.435  11.867 -0.4651 -0.5000 -0.5450
19357TIP3    H279487   5.066   4.501  11.735 -0.4307  2.0694  0.6777
19358TIP3   OH279488   5.877   0.417   1.712 -0.1534  0.3608  0.0357
19358TIP3    H179489   5.948   0.451   1.658  0.1281 -2.7585 -1.8282
19358TIP3    H279490   5.806   0.400   1.650 -0.6747 -1.1810  0.9893
19359TIP3   OH279491   5.976   4.545  13.082  0.0888 -0.1317  0.8105
19359TIP3    H179492   5.979   4.596  13.001  2.8462  1.4881  1.7772
19359TIP3    H279493   6.011   4.460  13.058  1.3602  0.4934  0.3414
19360TIP3   OH279494   2.118   2.625   3.406  0.5124 -0.2465  0.1434
19360TIP3    H179495   2.102   2.704   3.457  1.9649  0.3420 -0.2588
19360TIP3    H279496   2.046   2.622   3.343 -0.0417  0.2495  0.7307
19361TIP3   OH279497   4.061   0.969  13.664 -0.0497 -0.0397  0.3216
19361TIP3    H179498   4.077   0.955  13.571 -1.3769  4.5062 -0.8332
19361TIP3    H279499   3.985   0.914  13.684 -0.3778 -0.3236 -1.5686
19362TIP3   OH279500   6.387   0.730  16.119 -0.3635  0.3439 -0.2058
19362TIP3    H179501   6.365   0.813  16.160 -0.9772  0.2759 -0.3880
19362TIP3    H279502   6.323   0.668  16.153  0.5663 -0.2355  0.5201
19363TIP3   OH279503   5.607   4.299  11.332  0.2127 -0.2519 -0.1072
19363TIP3    H179504   5.648   4.368  11.281  0.8350 -0.5346  0.0069
19363TIP3    H279505   5.522   4.284  11.289  1.1411 -1.2118 -1.6955
19364TIP3   OH279506   5.990   2.035   6.258  0.0187 -0.4388  0.2764
19364TIP3    H179507   5.938   2.096   6.311 -1.5055 -0.3290 -1.2551
19364TIP3    H279508   6.070   2.084   6.238  0.2669 -0.1932  1.7764
19365TIP3   OH279509   6.268   6.450   2.165  0.1894 -0.1577  0.2881
19365TIP3    H179510   6.338   6.441   2.229 -1.6372 -0.7884  2.3243
19365TIP3    H279511   6.215   6.371   2.176 -0.8360  0.2651 -1.2262
19366TIP3   OH279512   3.619   6.111  16.625  0.4495 -0.4929 -0.2913
19366TIP3    H179513   3.714   6.117  16.633  0.4519 -1.0276  0.1010
19366TIP3    H279514   3.586   6.115  16.715  0.0241  0.7344 -0.4721
19367TIP3   OH279515   2.976   1.267  15.240  0.2935 -0.4457  0.5152
19367TIP3    H179516   2.968   1.358  15.211  0.2373 -0.8476 -0.7931
19367TIP3    H279517   3.039   1.270  15.312  0.7520  0.5408  0.0909
19368TIP3   OH279518   4.109   2.294   2.143 -0.0615  0.0255  0.1389
19368TIP3    H179519   4.154   2.217   2.108 -1.0379 -1.2250  1.4949
19368TIP3    H279520   4.058   2.328   2.070  0.1313 -0.8048 -0.3921
19369TIP3   OH279521   1.231   4.395  17.127 -0.2659 -0.8092  0.3537
19369TIP3    H179522   1.257   4.488  17.121 -0.7094 -0.7449 -0.9993
19369TIP3    H279523   1.313   4.349  17.147 -0.2524 -0.0344  2.2800
19370TIP3   OH279524   0.104   5.489   6.849 -0.3379  0.2627 -0.4647
19370TIP3    H179525   0.048   5.562   6.875  1.2731  1.0046  1.1120
19370TIP3    H279526   0.189   5.529   6.830  1.2689 -1.3106  2.6167
19371TIP3   OH279527   2.532   4.023   5.297 -0.4759  0.1538 -0.6181
19371TIP3    H179528   2.485   3.993   5.219 -1.7095  2.8553 -1.0290
19371TIP3    H279529   2.594   4.088   5.263  1.2574 -0.9311  0.3422
19372TIP3   OH279530   0.063   1.285  16.180  0.5365 -0.2974  0.4299
19372TIP3    H179531   0.092   1.368  16.217  1.1143  0.6485 -1.9806
19372TIP3    H279532  -0.004   1.310  16.117  1.3411 -1.5688 -0.9604
19373TIP3   OH279533   6.311   0.634  12.495 -0.1503  0.0395  0.6475
19373TIP3    H179534   6.329   0.607  12.585  0.7210 -2.6842 -0.2533
19373TIP3    H279535   6.293   0.728  12.502  0.6769  0.0973  3.5252
19374TIP3   OH279536   3.479   2.317   3.389 -0.3314  0.0845  0.5681
19374TIP3    H179537   3.387   2.294   3.398  0.0191 -1.2451  1.0125
19374TIP3    H279538   3.508   2.336   3.479  0.2673 -1.3457  0.6927
19375TIP3   OH279539   2.372   3.971   1.893 -0.0637 -0.1814 -0.1896
19375TIP3    H179540   2.412   4.024   1.825 -0.2386 -1.7197 -1.5438
19375TIP3    H279541   2.446   3.928   1.937  0.3134  2.8080  2.5039
19376TIP3   OH279542   3.731   4.706  14.099  0.3439 -0.1949 -0.1572
19376TIP3    H179543   3.723   4.802  14.095 -1.0030 -0.2386  0.6106
19376TIP3    H279544   3.644   4.677  14.127  1.0425 -1.5663  0.6926
19377TIP3   OH279545   5.170   6.778   2.644 -0.3549 -0.7128  0.5251
19377TIP3    H179546   5.250   6.739   2.680  1.1497  1.3145 -0.4025
19377TIP3    H279547   5.161   6.737   2.557  1.0715  0.6815 -0.3383
19378TIP3   OH279548   1.356   3.100  13.478  0.5023 -0.0475  0.4486
19378TIP3    H179549   1.373   3.191  13.506 -0.3763  1.3218 -3.0051
19378TIP3    H279550   1.261   3.092  13.482  0.3360  0.2128 -1.8623
19379TIP3   OH279551   0.987   0.038   2.570  0.0664  0.2909 -0.2039
19379TIP3    H179552   0.975   0.011   2.661  1.0172  0.5156 -0.0032
19379TIP3    H279553   1.047   0.113   2.575 -1.2131  1.4077 -0.8786
19380TIP3   OH279554   4.784   0.164  15.526 -0.1422  0.2638  0.2916
19380TIP3    H179555   4.762   0.253  15.553 -0.4922  0.6247 -1.0766
19380TIP3    H279556   4.878   0.157  15.540 -0.1504  0.7686  0.6061
19381TIP3   OH279557   1.015   6.337   5.504  0.3442  0.2817 -0.1841
19381TIP3    H179558   1.059   6.406   5.454  0.2380  0.8096  0.4425
19381TIP3    H279559   1.009   6.263   5.443 -1.4994  1.5260 -1.6065
19382TIP3   OH279560   2.281   3.929  16.985 -0.3210 -0.2117 -0.0900
19382TIP3    H179561   2.190   3.961  16.987 -0.4329 -0.4526 -0.9373
19382TIP3    H279562   2.272   3.834  16.993 -0.3808 -0.5641 -3.2673
19383TIP3   OH279563   4.211   3.551   1.107  0.0278 -0.1792  0.0290
19383TIP3    H179564   4.285   3.611   1.105 -1.5269  1.8267 -0.4030
19383TIP3    H279565   4.172   3.558   1.019 -1.3384 -0.3115  0.5978
19384TIP3   OH279566   1.758   0.692  11.572 -0.5238  0.2097 -0.0452
19384TIP3    H179567   1.835   0.749  11.577 -1.1863  1.4069 -2.0461
19384TIP3    H279568   1.791   0.610  11.536 -0.2702  0.9688 -1.6034
19385TIP3   OH279569   3.535   2.205  10.885 -0.2161  0.5469 -0.1632
19385TIP3    H179570   3.498   2.120  10.910 -1.4679  0.4106 -2.2255
19385TIP3    H279571   3.459   2.263  10.879  0.5989  1.7836  0.9559
19386TIP3   OH279572   5.388   6.106  16.070  0.2439 -0.1889 -0.1096
19386TIP3    H179573   5.297   6.132  16.057 -0.2760 -0.5348  2.2606
19386TIP3    H279574   5.383   6.023  16.116  1.6570  0.7880  1.9793
19387TIP3   OH279575   5.479   1.906   3.815  0.2192 -0.2186  0.0634
19387TIP3    H179576   5.524   1.976   3.863 -0.6651  0.9297 -0.7488
19387TIP3    H279577   5.457   1.944   3.731  1.6676 -2.1723 -1.2892
19388TIP3   OH279578   3.732   5.458   3.563  0.0505 -0.2890  0.2118
19388TIP3    H179579   3.783   5.377   3.564  0.8794  0.2041  1.4942
19388TIP3    H279580   3.688   5.458   3.478  2.0948 -0.8039 -0.9209
19389TIP3   OH279581   4.150   1.505  15.405  0.3420 -0.0830  0.8941
19389TIP3    H179582   4.171   1.423  15.449  2.2236 -0.3039 -0.3128
19389TIP3    H279583   4.220   1.565  15.430  0.1301  0.5080  0.1261
19390TIP3   OH279584   6.147   2.642  10.413 -0.4621 -0.1851 -0.0391
19390TIP3    H179585   6.229   2.632  10.365 -0.2696 -3.0352  0.6782
19390TIP3    H279586   6.082   2.598  10.359 -1.3721  1.1922 -0.1238
19391TIP3   OH279587   0.872   3.780  16.034 -0.3154  1.0815 -0.6766
19391TIP3    H179588   0.950   3.727  16.021 -1.0084 -0.6455  1.6556
19391TIP3    H279589   0.886   3.825  16.117 -1.6654  0.9705 -0.3627
19392TIP3   OH279590   3.629   0.377   5.184  0.2636 -0.0237 -0.4081
19392TIP3    H179591   3.556   0.316   5.197  0.1463 -0.3222 -2.2456
19392TIP3    H279592   3.704   0.333   5.224 -0.0448 -0.9143 -0.7747
19393TIP3   OH279593   5.188   2.414   3.816 -0.5030  0.6750 -0.0963
19393TIP3    H179594   5.102   2.373   3.808 -0.5434  0.7036  0.1829
19393TIP3    H279595   5.217   2.426   3.726  0.3304 -1.7009 -0.2175
19394TIP3   OH279596   4.223   0.505   4.304  0.4734  0.2706 -0.1598
19394TIP3    H179597   4.200   0.456   4.384  0.9565 -1.1949 -0.8881
19394TIP3    H279598   4.251   0.590   4.336 -0.4812  0.1290  1.1570
19395TIP3   OH279599   6.690   4.629   4.907 -0.1252 -0.1938  0.0480
19395TIP3    H179600   6.731   4.649   4.991  0.4165 -0.2141 -0.2108
19395TIP3    H279601   6.762   4.603   4.850 -0.3572  0.7386 -0.7081
19396TIP3   OH279602   2.700   5.837   4.613  0.1101 -0.0581 -0.0513
19396TIP3    H179603   2.768   5.797   4.560 -0.6073 -2.3948  0.7036
19396TIP3    H279604   2.737   5.842   4.701 -0.5319 -1.0313  0.2922
19397TIP3   OH279605   0.948   2.927   2.405  0.4073 -0.1271 -0.2304
19397TIP3    H179606   0.858   2.904   2.386  0.8557 -0.8533 -1.6020
19397TIP3    H279607   1.000   2.878   2.341  1.8392 -0.4147  1.0752
19398TIP3   OH279608   3.912   1.255  13.088 -0.3033 -0.0043  0.2471
19398TIP3    H179609   3.818   1.252  13.103 -0.2771 -1.3778  0.2351
19398TIP3    H279610   3.923   1.224  12.998  0.1334  0.4646  0.1361
19399TIP3   OH279611   4.575   2.508  12.926  0.2283  0.6097 -0.1501
19399TIP3    H179612   4.648   2.447  12.924  1.2323  1.7443 -2.7589
19399TIP3    H279613   4.517   2.479  12.856 -0.3236  1.4416 -0.0531
19400TIP3   OH279614   0.941   3.427  14.557 -0.2551  0.1316 -0.0451
19400TIP3    H179615   0.925   3.514  14.522  1.4215  0.6636  0.3912
19400TIP3    H279616   1.004   3.388  14.497  0.8533  0.1702  1.0448
19401TIP3   OH279617   3.485   1.056  11.647  0.4532  0.0693  0.0248
19401TIP3    H179618   3.471   1.136  11.596  2.0831 -0.0474 -0.6703
19401TIP3    H279619   3.555   1.078  11.708  1.7328 -1.0987 -0.9415
19402TIP3   OH279620   6.524   0.912   1.264 -0.4293 -0.5092  0.3225
19402TIP3    H179621   6.530   0.992   1.317  0.3732  0.4456 -1.1398
19402TIP3    H279622   6.542   0.841   1.325  0.9303  0.5787  1.2522
19403TIP3   OH279623   4.718   4.942   3.296 -0.6644  0.0742 -0.1340
19403TIP3    H179624   4.730   4.847   3.302 -0.6296  0.1555  1.4727
19403TIP3    H279625   4.761   4.977   3.373 -1.2510  1.3571 -0.3529
19404TIP3   OH279626   0.726   2.775   3.680 -0.3188  0.2608  0.5418
19404TIP3    H179627   0.815   2.742   3.695 -0.2677  0.3320  0.3941
19404TIP3    H279628   0.671   2.696   3.681  0.2222 -0.4063 -3.5054
19405TIP3   OH279629   1.532   6.615   3.908  0.1514  0.1980  0.1114
19405TIP3    H179630   1.534   6.549   3.838  0.3361 -0.4419  0.7104
19405TIP3    H279631   1.447   6.603   3.950 -0.4159  1.3046 -0.6625
19406TIP3   OH279632   3.898   6.127  16.632 -0.0142  0.7820 -0.8200
19406TIP3    H179633   3.952   6.047  16.624 -0.9923  0.1487 -1.2042
19406TIP3    H279634   3.943   6.191  16.577  1.3042  0.8037  0.2112
19407TIP3   OH279635   5.414   6.173   0.623  0.0132 -0.5724  0.8130
19407TIP3    H179636   5.488   6.147   0.677 -0.0759 -1.2231  0.6402
19407TIP3    H279637   5.454   6.209   0.543  0.1500 -1.0265  0.6721
19408TIP3   OH279638   2.667   1.731   1.655 -0.1455 -0.0598 -0.5411
19408TIP3    H179639   2.632   1.650   1.619 -1.6758 -0.0400  0.7934
19408TIP3    H279640   2.706   1.706   1.739  0.3721  0.4151 -0.6334
19409TIP3   OH279641   0.045   4.951   1.946 -0.2309  0.2327  0.4461
19409TIP3    H179642   0.019   4.872   1.898  3.7125 -0.9189 -0.1528
19409TIP3    H279643   0.061   4.921   2.035 -1.1649  0.9463  0.8689
19410TIP3   OH279644   1.785   2.152  10.954  0.0003  0.7863  0.1927
19410TIP3    H179645   1.774   2.164  10.859  0.7515 -0.4175 -0.0695
19410TIP3    H279646   1.849   2.081  10.962 -1.1129 -0.1120  1.6063
19411TIP3   OH279647   2.663   6.301   1.706 -0.3888 -0.7413 -0.0042
19411TIP3    H179648   2.609   6.224   1.691  0.1470 -1.2019  0.3854
19411TIP3    H279649   2.614   6.373   1.666 -2.5306 -0.6593  2.4755
19412TIP3   OH279650   4.694   6.352   1.360  0.1541 -0.3189 -0.4117
19412TIP3    H179651   4.654   6.299   1.291  0.5060 -0.0949 -0.7976
19412TIP3    H279652   4.701   6.440   1.321  0.6395 -0.2617 -0.2058
19413TIP3   OH279653   4.732   6.589   0.877 -0.6294  0.0868 -0.0352
19413TIP3    H179654   4.801   6.571   0.813 -0.6033  0.6862 -0.1821
19413TIP3    H279655   4.716   6.683   0.870 -1.3307 -0.0091  0.1329
19414TIP3   OH279656   1.739   1.993   2.839  0.0353 -0.5002  0.1470
19414TIP3    H179657   1.778   1.936   2.773 -0.4050 -0.5486 -0.0727
19414TIP3    H279658   1.651   1.959   2.851 -0.2033  0.0820  0.0774
19415TIP3   OH279659   3.596   5.907   5.924 -0.0478 -0.0016  0.4756
19415TIP3    H179660   3.546   5.838   5.968 -0.3796 -0.6931 -0.9390
19415TIP3    H279661   3.544   5.986   5.937 -0.8887 -0.4776  0.0939
19416TIP3   OH279662   2.354   5.028  12.009 -0.1041 -0.4692 -0.5063
19416TIP3    H179663   2.263   5.025  12.038 -0.8887  1.4295 -2.4086
19416TIP3    H279664   2.356   4.972  11.931  0.1216  0.1067 -0.9263
19417TIP3   OH279665   5.740   2.287  11.456 -0.1305 -0.4383 -0.3134
19417TIP3    H179666   5.777   2.316  11.373 -2.1679  2.0691 -0.4874
19417TIP3    H279667   5.676   2.220  11.431 -0.4019 -0.0298 -0.7332
19418TIP3   OH279668   3.789   6.524  11.116 -1.1815  0.1055 -0.2377
19418TIP3    H179669   3.740   6.602  11.142 -1.2823 -0.8077  2.7511
19418TIP3    H279670   3.878   6.540  11.148 -0.5320  0.0395 -1.9416
19419TIP3   OH279671   4.896   3.597  15.832  0.4008  0.4659 -0.3029
19419TIP3    H179672   4.804   3.604  15.807  0.3430 -1.5442 -0.7526
19419TIP3    H279673   4.927   3.688  15.831 -1.6795  1.2591  0.3677
19420TIP3   OH279674   4.983   0.939  15.513  0.2787 -0.1589  0.3415
19420TIP3    H179675   5.014   1.024  15.480 -1.0782 -0.1830 -1.0972
19420TIP3    H279676   4.940   0.961  15.596  1.2304  0.3173  0.7335
19421TIP3   OH279677   2.101   4.839  11.340  0.0378  0.0231 -0.5106
19421TIP3    H179678   2.168   4.792  11.290  0.4902  0.1920 -0.0683
19421TIP3    H279679   2.122   4.931  11.329 -1.1717  0.1880 -1.8329
19422TIP3   OH279680   1.779   1.012  15.908  1.0485 -0.1785  0.1085
19422TIP3    H179681   1.865   1.045  15.937  1.3904 -0.2735 -0.7727
19422TIP3    H279682   1.800   0.932  15.859  0.6464  0.8094 -1.7661
19423TIP3   OH279683   0.347   5.345  15.515 -0.0088  0.2751 -0.1865
19423TIP3    H179684   0.387   5.321  15.598  1.2445 -0.4529 -0.9678
19423TIP3    H279685   0.290   5.419  15.536  0.6058  0.3772  1.2304
19424TIP3   OH279686   2.265   1.112  15.218  0.5738  0.3825 -0.2205
19424TIP3    H179687   2.224   1.140  15.299 -2.3005  2.2064 -2.1365
19424TIP3    H279688   2.258   1.187  15.160  3.0870 -0.6338 -2.0243
19425TIP3   OH279689   4.678   6.240  11.741  0.4808  0.6990  0.2178
19425TIP3    H179690   4.623   6.282  11.675 -0.8990 -0.4330  0.5864
19425TIP3    H279691   4.649   6.148  11.742  3.1646 -0.2515 -0.3558
19426TIP3   OH279692   0.422   2.279  11.830  0.3288  0.1312  0.2794
19426TIP3    H179693   0.329   2.268  11.849  0.4015  0.9387  1.1764
19426TIP3    H279694   0.451   2.193  11.799 -0.9119  0.1083 -0.9154
19427TIP3   OH279695   6.317   3.488  14.302 -0.3072  0.4320 -0.3391
19427TIP3    H179696   6.291   3.505  14.393 -1.3807 -1.7897 -0.1799
19427TIP3    H279697   6.271   3.408  14.278  0.6806  0.4634 -2.5635
19428TIP3   OH279698   3.395   1.148  12.349 -0.6275  0.0599  0.6314
19428TIP3    H179699   3.424   1.201  12.274 -1.4871  2.8086  2.0942
19428TIP3    H279700   3.304   1.173  12.363 -0.1847  0.5154  3.2455
19429TIP3   OH279701   1.333   6.695   4.521  0.3285 -0.1993 -0.5943
19429TIP3    H179702   1.252   6.705   4.471  0.3511 -0.9718 -0.7965
19429TIP3    H279703   1.340   6.601   4.538 -0.9755  0.1819  3.0201
19430TIP3   OH279704   5.754   1.589   4.705  0.8079  0.3029  0.7411
19430TIP3    H179705   5.818   1.617   4.770  0.4486  0.5277  0.9986
19430TIP3    H279706   5.669   1.606   4.745  0.5304  2.4903 -0.6178
19431TIP3   OH279707   1.071   3.056   6.033 -0.2715  0.1099  0.7348
19431TIP3    H179708   1.085   2.975   5.985  2.8686  1.5298 -1.0344
19431TIP3    H279709   0.978   3.054   6.056 -0.6626 -3.2069 -0.5876
19432TIP3   OH279710   5.234   5.188  14.456 -0.1567  0.3125  0.4270
19432TIP3    H179711   5.212   5.219  14.544  1.3667  0.0929  0.9022
19432TIP3    H279712   5.192   5.251  14.397 -0.8346  0.7024  1.3089
19433TIP3   OH279713   1.516   4.875   1.653  0.3651  0.2733 -0.0632
19433TIP3    H179714   1.444   4.938   1.648 -0.8728 -1.0695  0.0227
19433TIP3    H279715   1.526   4.857   1.747  0.0656 -0.3441 -0.1427
19434TIP3   OH279716   1.046   5.114   1.560 -0.2614 -0.1625 -0.3639
19434TIP3    H179717   1.007   5.068   1.634  1.4576 -0.1111  0.6352
19434TIP3    H279718   1.038   5.207   1.583  1.7848 -0.1741  0.6602
19435TIP3   OH279719   4.154   3.949   3.751  0.2194 -0.1476 -0.2566
19435TIP3    H179720   4.141   4.021   3.690  0.1237 -0.9607 -1.2136
19435TIP3    H279721   4.068   3.910   3.761  0.2429 -0.0536  0.3695
19436TIP3   OH279722   2.686   6.485   0.244 -0.4282  0.3547 -0.0750
19436TIP3    H179723   2.592   6.468   0.240 -0.1088 -1.4214 -1.3516
19436TIP3    H279724   2.714   6.489   0.153  0.7812  0.6628  0.2855
19437TIP3   OH279725   2.804   2.484   5.764  0.4509 -0.4190  0.0331
19437TIP3    H179726   2.833   2.427   5.692 -0.5138 -1.5497  0.5036
19437TIP3    H279727   2.821   2.433   5.843 -0.3479 -0.0181  0.4715
19438TIP3   OH279728   3.754   0.398   0.120  0.0421 -0.3172 -0.4068
19438TIP3    H179729   3.732   0.358   0.204  0.5266  0.1517 -0.0510
19438TIP3    H279730   3.672   0.438   0.091 -0.3094 -1.0867 -0.5074
19439TIP3   OH279731   0.149   0.531  16.581 -0.0783 -0.4954 -0.2615
19439TIP3    H179732   0.204   0.594  16.534  0.5735 -1.1068 -0.3382
19439TIP3    H279733   0.065   0.576  16.593 -0.1080 -0.1619 -1.5924
19440TIP3   OH279734   2.465   4.722  15.206 -0.1643 -0.4146  0.0097
19440TIP3    H179735   2.513   4.641  15.218 -0.3378 -0.3325  1.4863
19440TIP3    H279736   2.532   4.788  15.191 -0.0813 -1.0161 -2.7800
19441TIP3   OH279737   4.517   3.224  11.387 -0.3949 -0.0965  0.2723
19441TIP3    H179738   4.448   3.269  11.436 -0.5868 -1.9583  1.8568
19441TIP3    H279739   4.470   3.160  11.334  0.0248 -0.4024  0.2704
19442TIP3   OH279740   3.505   2.716   5.687  0.0053 -0.1253 -0.8153
19442TIP3    H179741   3.534   2.807   5.694  0.3470 -0.0399 -2.7874
19442TIP3    H279742   3.439   2.706   5.756 -0.5818  1.8420 -1.0378
19443TIP3   OH279743   1.346   0.086   1.729  0.1538 -0.0030 -0.3109
19443TIP3    H179744   1.257   0.064   1.756 -0.6416  2.0573 -1.0997
19443TIP3    H279745   1.371   0.158   1.787  1.2167 -0.3616 -0.3009
19444TIP3   OH279746   0.109   0.019  13.165  0.1773  0.3352  0.0786
19444TIP3    H179747   0.125  -0.068  13.203 -2.0800  0.0399  0.4779
19444TIP3    H279748   0.033   0.007  13.108 -1.7244  2.4840  1.9780
19445TIP3   OH279749   3.436   0.655  14.197  0.7067 -0.8557 -0.2216
19445TIP3    H179750   3.390   0.685  14.119  0.3629  0.3801  0.4334
19445TIP3    H279751   3.399   0.706  14.269  1.9311 -1.0157  0.5625
19446TIP3   OH279752   1.252   4.508   3.580  0.1479 -0.2972  0.1172
19446TIP3    H179753   1.282   4.505   3.489  0.7875  1.3704  0.2327
19446TIP3    H279754   1.201   4.589   3.585 -0.1567 -0.5453  1.1600
19447TIP3   OH279755   5.078   1.099   0.531  0.4363 -0.5194 -0.2362
19447TIP3    H179756   5.104   1.086   0.623  0.7629 -2.4879 -0.5693
19447TIP3    H279757   4.992   1.140   0.537 -0.0746 -1.6879  0.9930
19448TIP3   OH279758   2.344   1.342  15.772  0.3876  0.0705  0.0991
19448TIP3    H179759   2.439   1.332  15.781  0.2626  0.6295  2.7588
19448TIP3    H279760   2.322   1.292  15.693  2.7315 -0.9771  0.0299
19449TIP3   OH279761   1.911   2.075  17.158 -0.3407  0.3548  0.4291
19449TIP3    H179762   2.005   2.068  17.143  0.3617  2.0850  3.2219
19449TIP3    H279763   1.871   2.043  17.077  2.6176 -0.2686 -0.9168
19450TIP3   OH279764   0.511   5.444  14.414  0.7147 -0.5950  0.7741
19450TIP3    H179765   0.480   5.519  14.363  0.4624 -0.8499  0.5448
19450TIP3    H279766   0.480   5.368  14.364  2.7568 -0.8893 -0.1433
19451TIP3   OH279767   4.496   4.355  14.306 -0.1192  0.2020 -0.1111
19451TIP3    H179768   4.591   4.357  14.299 -0.0813  0.7737  0.5184
19451TIP3    H279769   4.476   4.407  14.384 -0.9428  0.0558 -0.2152
19452TIP3   OH279770   5.377   6.298  12.718  0.5220 -0.0895 -0.6739
19452TIP3    H179771   5.365   6.261  12.631  0.3284 -0.8331 -0.3466
19452TIP3    H279772   5.314   6.250  12.773  0.5502  0.4583 -0.1556
19453TIP3   OH279773   2.698   4.451   3.867 -0.7747 -0.7081 -0.2726
19453TIP3    H179774   2.659   4.412   3.944  1.9462 -0.1186  1.5581
19453TIP3    H279775   2.733   4.535   3.897  2.4230 -1.4579 -1.3882
19454TIP3   OH279776   3.226   1.726   3.712 -0.4658 -0.1885 -0.6542
19454TIP3    H179777   3.283   1.788   3.758 -1.4356 -0.4347  0.9288
19454TIP3    H279778   3.242   1.642   3.755 -1.4302 -0.4166 -0.7275
19455TIP3   OH279779   2.255   6.122   5.045  0.1640 -0.0622 -0.6814
19455TIP3    H179780   2.292   6.136   4.958 -0.3458 -0.0204 -0.8941
19455TIP3    H279781   2.224   6.208   5.072  0.3719 -0.0641 -0.4297
19456TIP3   OH279782   0.723   3.525  17.233  0.3794  0.4352 -0.8649
19456TIP3    H179783   0.670   3.477  17.296  2.6930 -1.5099 -0.2471
19456TIP3    H279784   0.801   3.550  17.281  0.9122  1.5492 -2.2183
19457TIP3   OH279785   3.213   5.330  10.347 -0.0910 -0.6011  0.3500
19457TIP3    H179786   3.253   5.259  10.397 -2.8038 -2.6448 -0.1269
19457TIP3    H279787   3.211   5.298  10.257 -1.6830 -0.1333  0.1811
19458TIP3   OH279788   0.251   2.604   3.893  0.2432  0.1805  0.3855
19458TIP3    H179789   0.171   2.639   3.931  1.1101  0.6976  1.8408
19458TIP3    H279790   0.234   2.510   3.882 -1.0005  0.5038 -0.5818
19459TIP3   OH279791   2.822   5.154  10.717 -0.5450 -0.2512 -0.3519
19459TIP3    H179792   2.867   5.181  10.637  2.1783 -0.1156  1.0964
19459TIP3    H279793   2.818   5.059  10.711  0.1887 -0.2858 -0.4226
19460TIP3   OH279794   0.703   1.398   3.364  0.2560  0.0595 -0.6679
19460TIP3    H179795   0.680   1.308   3.388 -0.4342  0.4224  0.0679
19460TIP3    H279796   0.773   1.422   3.425  1.2790 -0.3645 -1.6300
19461TIP3   OH279797   2.575   4.635   0.123  0.3198 -0.2176  0.1968
19461TIP3    H179798   2.593   4.713   0.071  2.5361 -0.3875  0.5990
19461TIP3    H279799   2.524   4.578   0.066 -0.7407  1.2215 -0.3377
19462TIP3   OH279800   1.166   0.157  12.227 -0.0576 -0.2764  0.4218
19462TIP3    H179801   1.100   0.099  12.266 -1.9490  2.2141  1.1341
19462TIP3    H279802   1.214   0.192  12.302  0.7401 -0.4952  0.0249
19463TIP3   OH279803   4.515   4.592  14.573 -0.3540  0.1585 -0.3888
19463TIP3    H179804   4.456   4.658  14.535 -1.4555 -1.9643 -2.6718
19463TIP3    H279805   4.460   4.514  14.580  1.6559 -1.3275 -0.6079
19464TIP3   OH279806   2.772   4.461  14.638  0.4158 -0.9338  0.5711
19464TIP3    H179807   2.713   4.535  14.655 -0.8960 -1.8423  0.0926
19464TIP3    H279808   2.785   4.461  14.543 -1.9559 -3.0000  0.1537
19465TIP3   OH279809   1.353   6.306  15.170  0.4377 -0.4938 -0.2434
19465TIP3    H179810   1.295   6.373  15.134  0.8711 -0.6568 -1.2771
19465TIP3    H279811   1.309   6.223  15.153  1.0518 -0.6364 -1.2459
19466TIP3   OH279812   0.842   3.259   0.532  0.1365 -0.9722  0.1998
19466TIP3    H179813   0.812   3.199   0.601  0.0568 -0.6699  0.4318
19466TIP3    H279814   0.763   3.277   0.481 -0.2393  0.2865  1.1596
19467TIP3   OH279815   0.207   1.832  16.251 -0.0318  0.5683 -0.1324
19467TIP3    H179816   0.188   1.772  16.178  0.9963  0.3245 -0.2143
19467TIP3    H279817   0.154   1.910  16.232  0.1010  0.4459 -1.0687
19468TIP3   OH279818   0.085   5.862   4.345 -0.0337 -0.7019  0.3597
19468TIP3    H179819   0.167   5.912   4.341 -0.1288 -0.6168 -1.3775
19468TIP3    H279820   0.039   5.885   4.264 -1.8915 -0.5920  1.3800
19469TIP3   OH279821   1.685   3.273  11.700  0.0903 -0.4575 -0.3612
19469TIP3    H179822   1.636   3.210  11.648 -0.7058 -0.1167 -0.0320
19469TIP3    H279823   1.627   3.349  11.708  1.3390  0.6514 -1.4175
19470TIP3   OH279824   3.324   1.208   1.626  0.4800  0.4255  0.1548
19470TIP3    H179825   3.298   1.297   1.650  0.3482  0.1806  0.9352
19470TIP3    H279826   3.311   1.204   1.531  0.2015  1.1397  0.1578
19471TIP3   OH279827   5.803   4.968   1.297 -0.0494 -0.0014 -0.1866
19471TIP3    H179828   5.741   4.951   1.368 -1.5231  0.4916 -1.2933
19471TIP3    H279829   5.863   5.034   1.332 -0.7300  0.2047  0.6248
19472TIP3   OH279830   5.766   1.819  15.302  1.0477 -0.4559 -0.3622
19472TIP3    H179831   5.746   1.910  15.281 -0.6434 -0.7390 -0.0968
19472TIP3    H279832   5.819   1.789  15.228  2.8283  1.0970  0.2065
19473TIP3   OH279833   2.720   1.214  17.010  0.3016 -0.1684  0.1832
19473TIP3    H179834   2.766   1.132  17.028  0.1747 -0.0489  1.1051
19473TIP3    H279835   2.638   1.207  17.058 -0.0808  0.1626 -0.4001
19474TIP3   OH279836   2.927   6.367  11.955  0.7390  0.3098  0.0033
19474TIP3    H179837   3.011   6.354  11.912  1.0700 -1.0200  0.9789
19474TIP3    H279838   2.870   6.299  11.918  0.4069  0.5283  0.1069
19475TIP3   OH279839   3.196   2.752   5.717  0.3371 -0.5029  0.1828
19475TIP3    H179840   3.214   2.846   5.712  0.0248 -0.5125 -1.8676
19475TIP3    H279841   3.206   2.731   5.810 -0.1557  1.6630  0.7877
19476TIP3   OH279842   2.749   3.703   6.133 -0.2033 -0.4575 -0.2952
19476TIP3    H179843   2.820   3.754   6.093 -2.2173  1.7748 -1.3036
19476TIP3    H279844   2.729   3.749   6.214 -2.4276  0.8763 -1.4897
19477TIP3   OH279845   0.448   0.861  14.185  0.6305 -0.1881 -0.6333
19477TIP3    H179846   0.484   0.800  14.250  0.2917 -1.0868 -1.2572
19477TIP3    H279847   0.503   0.848  14.107  1.5441  1.4658 -0.3043
19478TIP3   OH279848   4.476   3.054  15.878  0.1725 -0.1507 -0.1286
19478TIP3    H179849   4.425   3.017  15.806 -0.2826 -0.4743  0.3538
19478TIP3    H279850   4.473   3.149  15.862 -0.0688 -0.2081 -0.4394
19479TIP3   OH279851   0.701   2.812  16.999 -0.0695  0.2037 -0.2946
19479TIP3    H179852   0.796   2.823  16.990 -0.2477  2.1121 -0.2879
19479TIP3    H279853   0.690   2.777  17.088  0.6442 -0.4367 -0.4462
19480TIP3   OH279854   3.873   4.093  16.547 -0.0959 -0.1093  0.3247
19480TIP3    H179855   3.793   4.145  16.538  0.1322  0.2283  0.1952
19480TIP3    H279856   3.912   4.123  16.629  0.6431  0.7969 -0.3261
19481TIP3   OH279857   6.303   1.498   0.532 -0.3745 -0.1197 -0.0339
19481TIP3    H179858   6.364   1.517   0.461 -0.6276  0.2738 -0.1495
19481TIP3    H279859   6.326   1.409   0.561  0.4816  0.1507  0.1560
19482TIP3   OH279860   5.868   4.467   1.737 -0.0730  0.1402  0.1054
19482TIP3    H179861   5.962   4.485   1.744  0.0920 -0.8017  0.3793
19482TIP3    H279862   5.833   4.542   1.689  0.9254  0.1800 -0.5830
19483TIP3   OH279863   1.647   3.870  13.282 -0.5655  0.7848  0.1945
19483TIP3    H179864   1.668   3.925  13.206  3.3732 -1.0614 -0.3034
19483TIP3    H279865   1.572   3.817  13.253 -0.4174  1.5195 -1.6750
19484TIP3   OH279866   3.600   5.000  16.599  0.6140 -0.2400  0.1056
19484TIP3    H179867   3.626   5.080  16.643  2.2477 -0.7155  0.0803
19484TIP3    H279868   3.641   4.930  16.650  0.5323 -0.9405 -0.7624
19485TIP3   OH279869   5.815   6.258   6.133  0.8004  0.1609 -0.4920
19485TIP3    H179870   5.905   6.285   6.116  0.5797  0.1215 -1.7578
19485TIP3    H279871   5.814   6.240   6.228  1.3373  3.0602  0.1621
19486TIP3   OH279872   4.217   4.183  16.272 -0.2718  0.0214 -0.0041
19486TIP3    H179873   4.129   4.211  16.294  0.1771 -0.0242  2.0180
19486TIP3    H279874   4.242   4.123  16.343  1.3217 -0.0970 -0.6217
19487TIP3   OH279875   5.718   1.583  16.701  0.1060  0.2321  0.2934
19487TIP3    H179876   5.701   1.654  16.763  0.1712  0.6702 -0.1868
19487TIP3    H279877   5.692   1.618  16.616 -0.4513 -0.5399  0.1348
19488TIP3   OH279878   0.291   0.067   0.433  0.3922 -0.4269  0.1826
19488TIP3    H179879   0.252   0.059   0.520 -0.0433 -0.6290 -0.0295
19488TIP3    H279880   0.363   0.128   0.445 -1.3868  1.8109  0.1444
19489TIP3   OH279881   4.051   3.973  13.268 -0.2092 -0.2394 -0.4447
19489TIP3    H179882   4.121   3.929  13.316 -0.2325  0.5166  0.3147
19489TIP3    H279883   3.995   3.902  13.236  1.6763 -0.9628 -2.3651
19490TIP3   OH279884   5.540   0.174  17.253 -0.2522  0.1117 -0.2793
19490TIP3    H179885   5.504   0.259  17.277 -1.9461 -0.8094  0.6293
19490TIP3    H279886   5.624   0.170  17.298 -0.7502  0.7903  0.7396
19491TIP3   OH279887   1.715   4.245   3.719  0.7970 -0.3017  0.1031
19491TIP3    H179888   1.674   4.326   3.748  1.9606  0.5216 -0.4395
19491TIP3    H279889   1.806   4.252   3.747  1.0560 -1.1618 -0.4523
19492TIP3   OH279890   3.236   0.700   0.688  0.4132  0.3465 -0.0184
19492TIP3    H179891   3.193   0.660   0.764 -1.7368  0.6749 -0.9877
19492TIP3    H279892   3.209   0.792   0.691 -1.2194 -0.0084 -2.1272
19493TIP3   OH279893   3.222   6.156   2.778  0.2347  0.9577 -0.0384
19493TIP3    H179894   3.153   6.097   2.809  1.3147 -0.4028 -0.0940
19493TIP3    H279895   3.190   6.188   2.694 -0.2189  0.1314 -0.1985
19494TIP3   OH279896   3.240   3.432   1.671  0.4875 -0.6753  0.4952
19494TIP3    H179897   3.308   3.494   1.645  0.7608 -0.9884  0.4465
19494TIP3    H279898   3.166   3.486   1.697  0.6550 -0.3351  0.2678
19495TIP3   OH279899   4.235   1.820   2.888  0.7323 -0.1544 -0.5996
19495TIP3    H179900   4.216   1.901   2.842  2.0741  1.1766  1.0656
19495TIP3    H279901   4.197   1.832   2.975  1.1913 -1.1981 -0.2383
19496TIP3   OH279902   0.575   3.023  15.091  0.1146  0.9098  0.8816
19496TIP3    H179903   0.563   3.104  15.041  1.3429  0.8375  0.4398
19496TIP3    H279904   0.642   2.974  15.043 -2.0018 -1.3444 -0.0289
19497TIP3   OH279905   5.152   6.630   5.157  0.9377 -0.0888 -0.1021
19497TIP3    H179906   5.199   6.596   5.081  1.1520 -3.1654  1.2764
19497TIP3    H279907   5.060   6.612   5.138  1.0208 -1.1676  0.4859
19498TIP3   OH279908   6.294   5.092   0.519  0.1050  0.5788 -0.1371
19498TIP3    H179909   6.216   5.136   0.485 -0.0843  0.0832 -0.3427
19498TIP3    H279910   6.322   5.148   0.592 -0.1682  1.0098 -0.3577
19499TIP3   OH279911   0.410   6.160   6.395  0.2679 -0.5338  0.9789
19499TIP3    H179912   0.404   6.091   6.329 -0.6611 -0.2241  0.7294
19499TIP3    H279913   0.462   6.121   6.465  1.7582 -0.6663 -0.1700
19500TIP3   OH279914   1.218   6.043  14.813 -0.0329 -0.6765  0.5581
19500TIP3    H179915   1.252   5.957  14.834  0.5722 -1.1973 -2.1847
19500TIP3    H279916   1.216   6.090  14.897  2.2154 -2.4302  1.6768
19501TIP3   OH279917   6.195   1.960   5.499 -0.0435  0.1467 -0.0895
19501TIP3    H179918   6.229   1.979   5.586  1.0768 -0.9444 -0.2698
19501TIP3    H279919   6.116   1.909   5.514 -1.2762  2.0468  0.3128
19502TIP3   OH279920   3.698   0.390  14.416 -0.2048 -0.1914  0.3489
19502TIP3    H179921   3.640   0.436  14.477 -1.3404 -1.2557  0.1324
19502TIP3    H279922   3.747   0.329  14.472 -2.4182 -2.3544  0.1360
19503TIP3   OH279923   4.411   3.099  17.034  0.3326 -0.5339 -0.0687
19503TIP3    H179924   4.355   3.171  17.064  1.6187  1.3000 -1.7585
19503TIP3    H279925   4.448   3.062  17.114 -1.6296 -0.4410  0.9433
19504TIP3   OH279926   6.581   4.881   0.135  0.0299  0.2056 -0.6162
19504TIP3    H179927   6.581   4.928   0.218  1.7808 -0.7280 -0.0319
19504TIP3    H279928   6.603   4.948   0.070  2.0881  0.3490  0.1556
19505TIP3   OH279929   0.546   1.730  12.402  0.0676 -0.5755 -0.0920
19505TIP3    H179930   0.456   1.747  12.430 -0.5167 -1.9835 -0.9527
19505TIP3    H279931   0.546   1.637  12.378  1.5490 -0.4048 -0.8807
19506TIP3   OH279932   5.566   0.371   0.739  0.1474 -0.1618 -0.5535
19506TIP3    H179933   5.527   0.340   0.657  0.1759 -1.6999 -0.0131
19506TIP3    H279934   5.625   0.441   0.712 -1.5399  0.9172 -1.5905
19507TIP3   OH279935   2.783   1.870  14.624  0.3096  0.2949 -0.3966
19507TIP3    H179936   2.817   1.857  14.535  3.2047 -0.3889  0.7014
19507TIP3    H279937   2.848   1.925  14.666  0.1443 -1.1449  1.9117
19508TIP3   OH279938   6.139   6.743   0.328 -0.2208 -0.4444 -0.5371
19508TIP3    H179939   6.113   6.690   0.252 -0.6869  0.9888 -1.4148
19508TIP3    H279940   6.080   6.818   0.326  0.6975  0.3287  0.4286
19509TIP3   OH279941   0.534   4.813  14.038  0.0834 -0.6158  0.5044
19509TIP3    H179942   0.610   4.813  14.096  0.6075 -2.6414 -0.0784
19509TIP3    H279943   0.557   4.873  13.967  0.4800 -0.0474  1.1019
19510TIP3   OH279944   0.556   2.449  10.986  0.3522  0.4889  0.3177
19510TIP3    H179945   0.553   2.356  10.964 -0.7958  0.7587 -0.8369
19510TIP3    H279946   0.469   2.468  11.022  0.4198  1.2010  0.1203
19511TIP3   OH279947   5.333   2.973  15.792  0.5609 -0.2554 -0.4107
19511TIP3    H179948   5.251   2.979  15.743  0.9598  0.9102 -1.0014
19511TIP3    H279949   5.320   3.029  15.868  0.7889 -0.0625 -0.5085
19512TIP3   OH279950   0.150   0.047  12.766 -0.1606  0.6296  0.0390
19512TIP3    H179951   0.107   0.073  12.685 -0.1645  0.3164 -0.0590
19512TIP3    H279952   0.159  -0.048  12.760 -2.2939  0.2806  1.4173
19513TIP3   OH279953   2.715   1.087  12.105  0.2641  0.3069 -0.2962
19513TIP3    H179954   2.635   1.071  12.154  0.2518  1.5057  0.1125
19513TIP3    H279955   2.720   1.182  12.097  2.0357  0.3148  0.3606
19514TIP3   OH279956   3.936   5.191   4.541 -0.4970 -0.0848  0.9989
19514TIP3    H179957   3.916   5.273   4.496 -2.0028 -0.9002  0.1008
19514TIP3    H279958   3.932   5.212   4.634  0.3731  1.1179  0.7790
19515TIP3   OH279959   6.649   0.775   4.191  0.1152  0.5637 -0.6651
19515TIP3    H179960   6.707   0.752   4.263  1.7988  1.4598 -1.6763
19515TIP3    H279961   6.615   0.691   4.159  1.5489 -0.0571 -0.6093
19516TIP3   OH279962   5.616   1.416   5.615  0.0054  0.3267  0.2110
19516TIP3    H179963   5.531   1.378   5.639 -0.3032  0.7853 -0.1495
19516TIP3    H279964   5.679   1.369   5.670 -0.5108  0.1868  0.6919
19517TIP3   OH279965   1.761   1.003   6.405 -0.7973  0.0840 -0.1757
19517TIP3    H179966   1.835   0.943   6.398 -0.0236  0.7899  1.3692
19517TIP3    H279967   1.684   0.947   6.405 -0.1688 -0.7965 -0.2584
19518TIP3   OH279968   6.000   6.316   1.401  0.4182  0.5688 -0.4341
19518TIP3    H179969   5.953   6.357   1.328  1.0475  1.7175 -0.2274
19518TIP3    H279970   5.986   6.376   1.474  0.5317 -0.1183  0.1565
19519TIP3   OH279971   6.373   1.724   5.506  0.3719 -0.3271  0.5493
19519TIP3    H179972   6.314   1.788   5.467  0.0330 -0.6687  0.4915
19519TIP3    H279973   6.459   1.745   5.469  0.3855  0.4978  1.0293
19520TIP3   OH279974   3.545   5.465  15.135  0.0386  0.5864  0.2820
19520TIP3    H179975   3.540   5.507  15.221  0.7363 -2.1419  1.7743
19520TIP3    H279976   3.626   5.413  15.138  0.4453  0.9025 -2.3023
19521TIP3   OH279977   2.850   4.223   5.145  0.1608  0.2935  0.6604
19521TIP3    H179978   2.785   4.284   5.181 -0.5300 -0.3481  0.5324
19521TIP3    H279979   2.890   4.183   5.222  0.0640  0.3398  0.7360
19522TIP3   OH279980   0.055   0.897   2.996 -0.1692 -0.0044  0.0543
19522TIP3    H179981   0.018   0.899   3.084  0.4390 -3.3719  0.5195
19522TIP3    H279982  -0.017   0.866   2.941  0.4486 -1.4727  0.0447
19523TIP3   OH279983   1.279   1.857   3.686  0.3701  0.0845  0.0923
19523TIP3    H179984   1.308   1.841   3.775  2.5919  0.4739 -0.4982
19523TIP3    H279985   1.240   1.945   3.688 -0.1374 -0.1594  0.7973
19524TIP3   OH279986   3.251   3.438   5.392 -0.7455  0.3183 -0.3541
19524TIP3    H179987   3.216   3.377   5.457 -1.6371 -0.1211 -1.2339
19524TIP3    H279988   3.327   3.392   5.355  0.5111  1.0477  1.1580
19525TIP3   OH279989   3.248   3.151   2.349  0.3079  0.4914 -0.3773
19525TIP3    H179990   3.320   3.111   2.397  0.3392  2.2282  1.0962
19525TIP3    H279991   3.187   3.079   2.333  1.1468 -0.4831  0.6887
19526TIP3   OH279992   0.801   3.386  12.256 -0.8261  0.1904  0.5353
19526TIP3    H179993   0.892   3.411  12.245 -1.0633  0.6609 -0.5064
19526TIP3    H279994   0.754   3.438  12.191 -2.1173  1.4242  2.3659
19527TIP3   OH279995   3.006   0.914   3.022  0.1501 -0.3685 -0.4628
19527TIP3    H179996   2.936   0.856   2.991 -0.0905 -0.8072  0.8417
19527TIP3    H279997   3.009   0.985   2.958 -0.8495 -0.8372 -1.0476
19528TIP3   OH279998   5.823   3.816   0.733  0.0830  0.5478  0.4475
19528TIP3    H179999   5.888   3.786   0.797  0.3335  0.3368  0.0979
19528TIP3    H280000   5.854   3.903   0.708 -0.3191  0.8649  1.0187
19529TIP3   OH280001   2.716   5.358   5.389 -0.3256  0.3534 -0.0943
19529TIP3    H180002   2.637   5.406   5.415 -1.3216 -1.2174 -0.0499
19529TIP3    H280003   2.767   5.350   5.469 -1.3729 -0.8211  0.4870
19530TIP3   OH280004   2.148   0.255  12.559 -0.1102  0.5487 -0.7319
19530TIP3    H180005   2.122   0.165  12.538 -2.0324  0.5358  1.3980
19530TIP3    H280006   2.237   0.246  12.594 -0.5377 -0.6424  0.1128
19531TIP3   OH280007   6.308   6.103   0.191  0.2282 -0.0803  0.0703
19531TIP3    H180008   6.214   6.101   0.173  0.7958 -2.1268 -3.6088
19531TIP3    H280009   6.342   6.174   0.138  0.8256  0.8462  1.6084
19532TIP3   OH280010   5.355   2.894   2.367  0.1187  0.2613 -0.6540
19532TIP3    H180011   5.381   2.830   2.300 -0.4162 -0.4824 -0.1686
19532TIP3    H280012   5.264   2.914   2.346 -1.1811 -2.4479  1.6631
19533TIP3   OH280013   6.125   3.227   5.913  0.4786  0.3349 -1.1860
19533TIP3    H180014   6.046   3.175   5.897 -0.9735  2.1246 -0.2689
19533TIP3    H280015   6.167   3.183   5.987 -1.5654  1.2468  0.6329
19534TIP3   OH280016   0.314   2.243  13.852  0.2228 -0.0014 -0.2091
19534TIP3    H180017   0.221   2.261  13.868  0.7615  0.5615  2.8788
19534TIP3    H280018   0.333   2.288  13.770 -2.3745 -0.8631 -1.4236
19535TIP3   OH280019   4.001   6.747  16.186  0.2545  0.0894  0.1525
19535TIP3    H180020   3.970   6.820  16.134 -1.4496 -0.3850  0.4183
19535TIP3    H280021   4.074   6.710  16.136 -1.1707 -0.2276 -1.8182
19536TIP3   OH280022   5.822   0.794  14.776 -0.0296  0.2143  0.1190
19536TIP3    H180023   5.792   0.755  14.859 -0.5305  0.7625  0.2066
19536TIP3    H280024   5.865   0.875  14.803  0.4570  0.0311 -0.1058
19537TIP3   OH280025   4.297   5.687   1.713 -0.2389  0.6498 -0.6333
19537TIP3    H180026   4.247   5.606   1.716 -0.0481  0.5480  1.0287
19537TIP3    H280027   4.367   5.674   1.778  0.7223  1.5559 -1.4491
19538TIP3   OH280028   3.424   5.065   2.695  0.4628 -0.1557 -0.0475
19538TIP3    H180029   3.514   5.098   2.693  0.4422 -0.0866  0.0954
19538TIP3    H280030   3.408   5.046   2.788  0.6943 -1.1800 -0.2075
19539TIP3   OH280031   1.496   2.901  13.635 -0.3306  0.6952  0.2834
19539TIP3    H180032   1.587   2.887  13.608 -0.0393 -2.7807  2.4378
19539TIP3    H280033   1.453   2.932  13.556  2.5532  1.8181 -1.0099
19540TIP3   OH280034   1.108   3.929   6.367 -0.3266  0.1741 -0.1312
19540TIP3    H180035   1.172   3.872   6.324 -0.4188 -0.3864  0.4474
19540TIP3    H280036   1.030   3.874   6.375 -0.1532  0.0924  1.1759
19541TIP3   OH280037   3.417   5.628  16.353 -0.5427 -0.0204 -0.7128
19541TIP3    H180038   3.427   5.717  16.317  0.0741  0.7310  1.2105
19541TIP3    H280039   3.324   5.622  16.373 -0.1852  1.2939  1.6968
19542TIP3   OH280040   0.229   5.566   4.826 -0.2774 -0.2533  0.0624
19542TIP3    H180041   0.170   5.583   4.899 -1.8534  0.0468 -1.2234
19542TIP3    H280042   0.205   5.631   4.760 -0.8703 -2.2128 -1.7983
19543TIP3   OH280043   1.311   4.400   0.377 -0.6248 -0.0851  0.1950
19543TIP3    H180044   1.287   4.412   0.469 -0.7156 -1.2672  0.3452
19543TIP3    H280045   1.365   4.476   0.355  0.6151 -0.5160  1.6426
19544TIP3   OH280046   2.136   0.022  12.252 -0.4136  0.1566 -0.6119
19544TIP3    H180047   2.083   0.038  12.330 -1.6530  1.3120 -1.6487
19544TIP3    H280048   2.073  -0.007  12.186  0.7665 -1.8288 -0.9215
19545TIP3   OH280049   4.489   4.273  11.426  0.1961  0.5320 -0.2695
19545TIP3    H180050   4.583   4.280  11.410  0.0229  2.2220 -0.8036
19545TIP3    H280051   4.478   4.192  11.475  2.0410  0.7677  0.6114
19546TIP3   OH280052   2.445   2.994  16.515  0.0037  0.0761 -0.3667
19546TIP3    H180053   2.454   3.069  16.574  1.3931 -0.4863  0.1887
19546TIP3    H280054   2.403   2.926  16.568 -0.8140  0.2885 -0.7257
19547TIP3   OH280055   1.623   4.133   3.476 -0.6828 -0.1067  0.8520
19547TIP3    H180056   1.710   4.105   3.449 -0.7758  1.9508 -2.0840
19547TIP3    H280057   1.633   4.160   3.567  1.2614 -1.6851  1.1640
19548TIP3   OH280058   1.367   2.021   3.027 -0.3405  0.0131  0.0861
19548TIP3    H180059   1.422   1.959   2.980  0.6097 -0.0195  1.2197
19548TIP3    H280060   1.297   1.967   3.064  1.2573 -0.6927  2.2832
19549TIP3   OH280061   0.937   1.860   1.024  0.3852  0.6507  0.0784
19549TIP3    H180062   0.844   1.845   1.008  0.1553  1.9198  0.1820
19549TIP3    H280063   0.940   1.928   1.091  1.3920  0.0007  0.7360
19550TIP3   OH280064   0.679   6.126  14.646 -0.2473  0.0545 -0.2249
19550TIP3    H180065   0.759   6.147  14.694 -0.9122 -0.1574  1.0366
19550TIP3    H280066   0.709   6.080  14.568  0.8306 -0.7224  0.6120
19551TIP3   OH280067   3.269   6.173   4.353 -0.2403 -0.2023  0.1654
19551TIP3    H180068   3.257   6.130   4.269  1.5920 -2.2279  0.8606
19551TIP3    H280069   3.196   6.143   4.406 -0.3811 -0.3873 -0.1330
19552TIP3   OH280070   5.014   2.169   4.370  0.2620 -0.4291 -0.2050
19552TIP3    H180071   4.988   2.089   4.324 -1.1761 -0.3586  0.4536
19552TIP3    H280072   4.948   2.180   4.439  1.5752  0.2273  1.0021
19553TIP3   OH280073   0.484   4.712   2.249  0.0678 -0.0196 -0.4689
19553TIP3    H180074   0.541   4.664   2.189 -2.4123 -1.1396 -2.0685
19553TIP3    H280075   0.503   4.804   2.233  1.0343 -0.3576 -1.3522
19554TIP3   OH280076   4.168   1.891  17.119  0.3621  0.7780 -0.4944
19554TIP3    H180077   4.073   1.887  17.117  0.3158  1.6298 -0.1283
19554TIP3    H280078   4.195   1.855  17.034 -0.2217 -0.8175 -0.0290
19555TIP3   OH280079   3.916   4.733   4.214  0.4404  0.1736  0.3951
19555TIP3    H180080   4.002   4.774   4.223  0.6765 -0.1585 -0.2578
19555TIP3    H280081   3.902   4.689   4.298 -0.0163  1.9212  1.2829
19556TIP3   OH280082   2.233   3.331   2.514  0.5722  0.1839 -0.0191
19556TIP3    H180083   2.257   3.243   2.543 -0.6235 -0.1572  0.0121
19556TIP3    H280084   2.292   3.389   2.562 -1.3492 -0.3364  3.3160
19557TIP3   OH280085   0.780   5.399  13.608  0.3451 -0.1893 -0.7765
19557TIP3    H180086   0.704   5.455  13.625  0.8308  0.4935 -0.8003
19557TIP3    H280087   0.758   5.316  13.649  0.1906  0.4475  0.4873
19558TIP3   OH280088   2.458   0.370  16.120 -0.3319 -0.2147  0.0627
19558TIP3    H180089   2.553   0.361  16.124 -0.4044 -1.7793 -0.7892
19558TIP3    H280090   2.425   0.310  16.188 -0.7214 -1.4023 -1.1211
19559TIP3   OH280091   0.924   2.951  17.188 -0.0277 -0.4040 -0.0518
19559TIP3    H180092   0.875   2.981  17.265  0.6254  0.3692  0.0751
19559TIP3    H280093   0.910   3.018  17.122 -0.8989 -1.2560 -0.7594
19560TIP3   OH280094   5.242   2.741  14.721  0.3057 -0.3110  0.5497
19560TIP3    H180095   5.332   2.737  14.688 -0.1419 -1.2159 -0.6653
19560TIP3    H280096   5.226   2.834  14.735  0.8939  0.0316 -0.8380
19561TIP3   OH280097   3.847   1.934   6.324 -0.0012 -0.1193 -0.0696
19561TIP3    H180098   3.813   1.886   6.248 -1.2144  2.3050 -1.2007
19561TIP3    H280099   3.779   1.925   6.390 -0.9296  1.1485 -0.8010
19562TIP3   OH280100   3.250   4.055  15.756 -0.4558  0.8192  0.2369
19562TIP3    H180101   3.221   4.096  15.674 -1.0058 -0.8877 -0.4672
19562TIP3    H280102   3.342   4.081  15.764 -1.0517  3.0505  0.4192
19563TIP3   OH280103   4.481   3.884  12.182  0.1268  0.4974 -0.7717
19563TIP3    H180104   4.492   3.858  12.091  2.2856  0.4198 -0.5433
19563TIP3    H280105   4.437   3.968  12.179 -2.4610 -0.7976 -1.7280
19564TIP3   OH280106   0.927   2.066   0.007  0.5621  0.8171  0.6511
19564TIP3    H180107   0.920   1.988   0.062 -3.2842  1.2800  1.1583
19564TIP3    H280108   0.959   2.134   0.066  2.8402 -0.0541  0.4949
19565TIP3   OH280109   3.478   2.168  12.288  0.3647  0.5500 -0.0041
19565TIP3    H180110   3.521   2.215  12.359 -0.9663  1.2527  0.3592
19565TIP3    H280111   3.398   2.132  12.326  1.0411 -1.5381 -0.4345
19566TIP3   OH280112   6.172   5.507   0.240  0.2395  0.0243 -0.0599
19566TIP3    H180113   6.247   5.536   0.188  0.6473 -2.1888 -0.8189
19566TIP3    H280114   6.095   5.531   0.188  0.4352  1.4342  0.2668
19567TIP3   OH280115   3.221   4.397  15.666 -0.0966 -0.0029 -0.1240
19567TIP3    H180116   3.223   4.345  15.747  0.4165 -2.0367 -1.3493
19567TIP3    H280117   3.168   4.344  15.606 -0.0940  1.2451 -1.2508
19568TIP3   OH280118   5.742   1.251   1.545  0.4087  0.0258  0.2950
19568TIP3    H180119   5.664   1.284   1.590  1.1655  0.3833  1.3789
19568TIP3    H280120   5.790   1.203   1.612  0.6616 -1.0167 -0.6060
19569TIP3   OH280121   0.704   5.071   0.425  0.0151  0.1289 -0.7397
19569TIP3    H180122   0.707   5.122   0.506  1.1385  1.0941 -1.3622
19569TIP3    H280123   0.614   5.037   0.421 -0.3092  0.7999  0.4503
19570TIP3   OH280124   5.201   0.106   1.799 -0.3328 -0.6568  0.3205
19570TIP3    H180125   5.170   0.063   1.878 -0.8019 -0.9959 -0.0466
19570TIP3    H280126   5.215   0.036   1.736  0.3840 -0.4247  0.2120
19571TIP3   OH280127   4.256   0.597   2.561  1.0062 -0.0367 -0.0877
19571TIP3    H180128   4.304   0.514   2.555  1.3263  0.2323 -1.7521
19571TIP3    H280129   4.198   0.596   2.485  1.3875  1.5007 -0.4287
19572TIP3   OH280130   6.559   4.290   0.004  0.8014  0.1967 -0.5914
19572TIP3    H180131   6.610   4.248  -0.066  1.2790 -2.1170  1.0459
19572TIP3    H280132   6.517   4.217   0.050 -0.8072  1.7776  0.5552
19573TIP3   OH280133   5.315   4.796  13.824  0.6860  0.8120 -0.2952
19573TIP3    H180134   5.277   4.845  13.896 -0.1706  0.9839 -0.8424
19573TIP3    H280135   5.275   4.709  13.831  1.5999  0.4289  0.2096
19574TIP3   OH280136   1.025   3.395  10.696  0.1317  0.1476  0.1880
19574TIP3    H180137   0.951   3.443  10.658  1.8409  3.7982  1.0160
19574TIP3    H280138   1.034   3.318  10.641 -2.5365  1.0045 -1.6588
19575TIP3   OH280139   1.328   2.731  14.815 -0.7828 -0.0116 -0.1323
19575TIP3    H180140   1.380   2.652  14.805  0.5709  0.9973 -1.4477
19575TIP3    H280141   1.271   2.733  14.738 -1.1015  0.0873  0.1029
19576TIP3   OH280142   4.553   4.811  12.130  0.3937 -0.1843  0.1260
19576TIP3    H180143   4.523   4.757  12.056  0.7317 -0.5754  0.2692
19576TIP3    H280144   4.504   4.893  12.122  1.8008  0.5493 -1.6541
19577TIP3   OH280145   4.198   2.068  15.054  0.3907 -0.2547  0.5116
19577TIP3    H180146   4.128   2.024  15.006  0.1854 -0.5236  1.0487
19577TIP3    H280147   4.278   2.029  15.021  0.3728  0.8293 -0.9133
19578TIP3   OH280148   0.562   1.483  12.827 -0.3077 -0.1130  0.1816
19578TIP3    H180149   0.623   1.524  12.889  1.6982  0.3520 -1.9530
19578TIP3    H280150   0.476   1.507  12.859  0.6967  1.6320  1.7794
19579TIP3   OH280151   0.123   5.334   4.171  0.3443 -0.9271  0.2104
19579TIP3    H180152   0.027   5.337   4.168  0.3947  1.1184 -1.2839
19579TIP3    H280153   0.147   5.260   4.116 -0.3606  0.0813 -1.5118
19580TIP3   OH280154   5.583   0.392   5.734  0.2220  0.5131 -0.5870
19580TIP3    H180155   5.678   0.392   5.748  0.5552 -0.6197 -2.4826
19580TIP3    H280156   5.567   0.470   5.680  0.4065 -0.3717 -1.9628
19581TIP3   OH280157   1.791   1.783  11.023 -0.4672  0.5126  0.0506
19581TIP3    H180158   1.863   1.840  10.996 -1.2545  1.4197 -0.1710
19581TIP3    H280159   1.827   1.694  11.015  0.8239  0.9716  0.5705
19582TIP3   OH280160   6.177   3.822  16.318 -0.6618 -0.1275 -0.0188
19582TIP3    H180161   6.173   3.877  16.397  0.3686  1.0023 -0.7232
19582TIP3    H280162   6.141   3.738  16.346 -1.3839  0.5967  1.3554
19583TIP3   OH280163   3.652   4.586   2.149  0.6209 -0.0064 -0.2369
19583TIP3    H180164   3.595   4.591   2.073 -0.8918  0.1805  0.8485
19583TIP3    H280165   3.678   4.676   2.166 -0.4172  0.1849  0.4289
19584TIP3   OH280166   5.246   6.564  12.071  0.2344 -0.4700  0.4186
19584TIP3    H180167   5.322   6.538  12.020 -0.5070 -1.0676 -0.4114
19584TIP3    H280168   5.271   6.648  12.109  1.1168 -0.4058 -0.2540
19585TIP3   OH280169   4.360   2.939  10.948  0.0399 -0.1448 -0.9028
19585TIP3    H180170   4.302   3.014  10.959 -0.5101 -0.6915  0.0070
19585TIP3    H280171   4.301   2.864  10.945  0.7135 -0.7502  0.4587
19586TIP3   OH280172   0.774   2.506   0.146  0.0258 -0.0594 -0.2398
19586TIP3    H180173   0.747   2.424   0.104 -0.4200  0.4147 -0.8939
19586TIP3    H280174   0.692   2.548   0.170  0.2488  0.3168 -0.1332
19587TIP3   OH280175   6.449   1.607   0.749 -0.5573  0.0227  0.2809
19587TIP3    H180176   6.364   1.564   0.756 -0.4953 -0.2318 -0.4149
19587TIP3    H280177   6.428   1.697   0.723 -0.6149 -0.0578  0.0444
19588TIP3   OH280178   1.686   2.062   0.363 -0.0437 -0.0944 -0.1719
19588TIP3    H180179   1.668   2.027   0.276 -0.1558  2.3685 -1.2146
19588TIP3    H280180   1.657   2.153   0.359 -0.4721 -0.0199  2.6050
19589TIP3   OH280181   0.331   1.389  16.980  0.2621 -0.3556 -0.0407
19589TIP3    H180182   0.297   1.300  16.986 -1.6247  0.3514  0.6047
19589TIP3    H280183   0.292   1.424  16.900 -0.3709  0.4131  0.5941
19590TIP3   OH280184   2.498   4.391   2.852  0.7548  0.1544 -0.0405
19590TIP3    H180185   2.465   4.411   2.765 -0.6007 -0.2028  0.3723
19590TIP3    H280186   2.533   4.302   2.846 -0.5660 -0.3985  0.0824
19591TIP3   OH280187   6.432   1.677  15.362  0.3342  0.1195  0.0601
19591TIP3    H180188   6.434   1.767  15.395 -3.4789 -0.0264  1.1233
19591TIP3    H280189   6.461   1.624  15.435 -2.9994  0.1957  1.6026
19592TIP3   OH280190   4.115   1.489   3.688  0.3834  0.0056  0.1206
19592TIP3    H180191   4.165   1.562   3.723  1.9476  0.1911 -2.2923
19592TIP3    H280192   4.069   1.525   3.612 -1.8267 -0.6769  1.0557
19593TIP3   OH280193   6.399   3.929  12.220  0.1557  0.8522  0.5910
19593TIP3    H180194   6.492   3.905  12.221  0.1716  0.5402  4.2375
19593TIP3    H280195   6.399   4.023  12.200  0.9539  0.3429 -2.2048
19594TIP3   OH280196   6.238   2.009   2.114  0.3113 -0.1186  0.2707
19594TIP3    H180197   6.254   1.970   2.200  0.2907 -0.9070 -0.0769
19594TIP3    H280198   6.246   1.936   2.053  0.3931  0.4489 -0.4075
19595TIP3   OH280199   6.430   2.312   3.310  0.0057 -0.5013 -0.2827
19595TIP3    H180200   6.503   2.258   3.339 -1.0696 -1.4411  0.8063
19595TIP3    H280201   6.388   2.341   3.392 -0.1364  1.0317 -0.8628
19596TIP3   OH280202   0.304   2.955  17.180 -0.0853 -0.1574 -0.2152
19596TIP3    H180203   0.390   2.977  17.145 -0.1214  0.6735  0.1874
19596TIP3    H280204   0.260   2.907  17.109  1.5455 -2.7643  0.3732
19597TIP3   OH280205   5.487   5.672  11.344  0.1779  0.0861 -0.6275
19597TIP3    H180206   5.508   5.728  11.270 -0.7386  0.0274 -0.9465
19597TIP3    H280207   5.480   5.732  11.418  0.7026  0.1919 -0.6593
19598TIP3   OH280208   1.309   2.309  14.711 -0.2192 -0.6810 -0.2072
19598TIP3    H180209   1.358   2.383  14.747 -0.4782 -0.7657  0.3337
19598TIP3    H280210   1.233   2.348  14.667  0.9328 -0.4624 -2.1030
19599TIP3   OH280211   0.012   4.266  16.007  0.5181  0.4140 -0.1803
19599TIP3    H180212   0.073   4.270  16.081 -0.7420 -0.3504  0.9447
19599TIP3    H280213   0.038   4.339  15.951  2.0608  0.4797  0.5771
19600TIP3   OH280214   0.000   3.683   5.657  0.2112 -0.1849  0.2040
19600TIP3    H180215   0.043   3.680   5.743  0.2173  2.5856  0.3762
19600TIP3    H280216   0.069   3.711   5.597 -0.4515  0.6531 -0.1862
19601TIP3   OH280217   3.948   2.910   1.837 -0.2778 -0.6698  0.4555
19601TIP3    H180218   4.018   2.915   1.772 -0.2606 -0.7365  0.4680
19601TIP3    H280219   3.995   2.904   1.921 -0.3048  0.4587  0.5616
19602TIP3   OH280220   5.335   6.668   4.136  0.1280 -0.2110  0.2916
19602TIP3    H180221   5.380   6.614   4.201 -2.5922 -1.3228  1.4061
19602TIP3    H280222   5.304   6.744   4.185  0.5701  0.4338 -0.4061
19603TIP3   OH280223   2.344   6.692  13.905  0.6104  0.3252 -0.4148
19603TIP3    H180224   2.317   6.759  13.841  1.9745  1.1506 -0.1536
19603TIP3    H280225   2.330   6.733  13.990 -1.3689 -0.8347 -0.1068
19604TIP3   OH280226   6.500   2.319  16.049  0.3816 -0.0041 -0.2337
19604TIP3    H180227   6.443   2.342  16.122  0.7813 -1.1484  0.4738
19604TIP3    H280228   6.516   2.402  16.004 -1.4606  0.4045 -0.1887
19605TIP3   OH280229   5.562   2.537   0.031  0.3599  0.2035  0.2072
19605TIP3    H180230   5.632   2.590  -0.005 -0.4586  0.5659 -0.8918
19605TIP3    H280231   5.522   2.494  -0.045 -0.6099  0.0044  0.8064
19606TIP3   OH280232   2.807   5.081  13.899 -0.2292 -0.4178 -0.7721
19606TIP3    H180233   2.824   5.137  13.824 -0.8232  1.1622  0.2316
19606TIP3    H280234   2.719   5.046  13.885 -1.4216  1.9155  0.3440
19607TIP3   OH280235   0.350   4.734   4.957  0.3576  0.2180  0.6070
19607TIP3    H180236   0.286   4.770   5.018  0.7400  1.8504  0.0783
19607TIP3    H280237   0.343   4.639   4.968 -2.2410  0.3355  0.4672
19608TIP3   OH280238   1.010   4.992  14.746  0.0752  0.5559 -0.2016
19608TIP3    H180239   0.990   5.084  14.733 -0.0916  0.7738  1.3994
19608TIP3    H280240   1.053   4.988  14.831  0.1756 -0.8235 -0.2908
19609TIP3   OH280241   1.451   5.368  11.392 -0.1712  0.2036 -1.0811
19609TIP3    H180242   1.357   5.376  11.408  0.1405  0.9564  0.5391
19609TIP3    H280243   1.465   5.275  11.377 -0.6169 -0.7227  3.0898
19610TIP3   OH280244   3.931   1.747  12.101 -0.4305 -0.1667 -0.0163
19610TIP3    H180245   3.893   1.802  12.033  2.2252 -0.6871 -2.0686
19610TIP3    H280246   3.965   1.671  12.055  0.1109 -1.3146  2.1365
19611TIP3   OH280247   4.952   6.256  16.909  0.4236 -0.0387 -0.1263
19611TIP3    H180248   5.040   6.224  16.890  0.4256  0.3043 -0.7480
19611TIP3    H280249   4.900   6.177  16.924  0.2983 -0.4120 -2.1889
19612TIP3   OH280250   3.811   4.202   1.322 -0.3123 -0.1634  0.1575
19612TIP3    H180251   3.822   4.277   1.380 -1.4280  1.1549 -1.2336
19612TIP3    H280252   3.899   4.178   1.296  0.1473 -0.2045  1.6353
19613TIP3   OH280253   2.009   5.879  16.042  0.5934  0.0876 -0.1880
19613TIP3    H180254   1.999   5.941  15.969  1.8408  0.3989 -0.1034
19613TIP3    H280255   1.922   5.875  16.081  0.5410  1.9697 -0.0433
19614TIP3   OH280256   2.868   3.002  14.225  0.2655  0.0251 -0.4460
19614TIP3    H180257   2.831   2.988  14.138  0.5274  0.7127 -0.6742
19614TIP3    H280258   2.912   3.087  14.219 -0.5916  0.5765  0.6508
19615TIP3   OH280259   6.528   0.643   5.951 -0.1403 -0.0250 -0.2870
19615TIP3    H180260   6.610   0.643   5.903  0.8269 -0.9430  1.2678
19615TIP3    H280261   6.516   0.552   5.979  0.6842  0.8092  3.2719
19616TIP3   OH280262   5.035   2.470   1.414  0.3217  0.1378  0.2936
19616TIP3    H180263   4.941   2.468   1.434 -0.0152 -2.3564 -1.1278
19616TIP3    H280264   5.074   2.407   1.475  0.5973 -1.0144 -1.0408
19617TIP3   OH280265   0.146   1.666  11.395 -0.2635  0.8282 -0.1055
19617TIP3    H180266   0.216   1.662  11.460  0.5339 -0.9344 -0.9897
19617TIP3    H280267   0.070   1.630  11.439  0.3581 -0.6708 -0.2068
19618TIP3   OH280268   0.497   3.976   5.645 -0.1714  0.2713  0.4358
19618TIP3    H180269   0.528   4.066   5.636  4.6700 -1.1438  0.3356
19618TIP3    H280270   0.477   3.949   5.555 -0.4248  0.8150  0.3199
19619TIP3   OH280271   3.397   4.423  10.866 -0.2978 -0.0699  0.2768
19619TIP3    H180272   3.355   4.342  10.895 -0.9783  0.6371  1.3399
19619TIP3    H280273   3.325   4.482  10.847  0.1566  1.0460  1.7861
19620TIP3   OH280274   5.912   3.600  12.080 -0.3890  0.1312  0.6432
19620TIP3    H180275   5.989   3.625  12.131 -0.7449  1.3700  0.6225
19620TIP3    H280276   5.846   3.578  12.145 -0.5349  0.7442  0.7132
19621TIP3   OH280277   6.325   4.533   3.100 -0.0324 -0.4303  0.1230
19621TIP3    H180278   6.369   4.448   3.097 -1.4670 -1.2368  0.8202
19621TIP3    H280279   6.270   4.534   3.022  0.7486  0.3228 -0.4361
19622TIP3   OH280280   5.894   1.306  16.559 -0.0863  0.4335 -0.0941
19622TIP3    H180281   5.817   1.295  16.614  1.0935  0.7198  1.6666
19622TIP3    H280282   5.887   1.395  16.525  0.8124  1.4859  2.2874
19623TIP3   OH280283   4.326   3.005  14.442 -0.1433  0.5776 -0.0830
19623TIP3    H180284   4.356   2.957  14.365 -0.2497 -1.1291  0.8825
19623TIP3    H280285   4.237   3.034  14.419 -1.4568 -2.6328  0.4398
19624TIP3   OH280286   0.588   1.771  15.860  0.1420  0.4764  0.6954
19624TIP3    H180287   0.669   1.776  15.912  1.4314 -0.4826 -1.1237
19624TIP3    H280288   0.574   1.860  15.829  2.1098  0.2065 -1.2150
19625TIP3   OH280289   5.670   3.547   5.760 -0.6584  0.3818 -0.2552
19625TIP3    H180290   5.592   3.510   5.800  0.1430 -1.0378  0.0679
19625TIP3    H280291   5.736   3.547   5.829 -0.2085  1.0454 -0.6651
19626TIP3   OH280292   3.040   6.355  15.792 -0.1211  0.1101 -0.0433
19626TIP3    H180293   3.058   6.384  15.882 -1.2969 -1.7379  0.8428
19626TIP3    H280294   2.948   6.377  15.777 -0.2918 -0.7494 -0.3113
19627TIP3   OH280295   2.400   4.713   2.934 -0.3205  0.3720  0.2308
19627TIP3    H180296   2.339   4.745   2.867  0.0721 -0.9882 -0.8259
19627TIP3    H280297   2.356   4.638   2.974  1.5547 -2.3524 -2.3720
19628TIP3   OH280298   5.429   5.263  11.936  0.4477  0.2030 -0.0191
19628TIP3    H180299   5.455   5.307  12.017 -1.7141  1.4495  0.0440
19628TIP3    H280300   5.334   5.255  11.942  0.3110 -0.2869 -2.1455
19629TIP3   OH280301   5.914   4.782   3.709  0.2068  0.0187  0.1594
19629TIP3    H180302   5.946   4.863   3.749 -0.8912 -0.2972  1.7766
19629TIP3    H280303   5.986   4.720   3.719  0.2153  0.1557  1.0543
19630TIP3   OH280304   0.649   5.079  14.823 -0.1593 -0.0648 -0.6871
19630TIP3    H180305   0.581   5.129  14.778 -2.5234 -2.4506 -0.0601
19630TIP3    H280306   0.700   5.144  14.871 -0.2070  2.1136 -3.3347
19631TIP3   OH280307   3.361   0.538   3.653 -0.3232 -0.4139  0.1340
19631TIP3    H180308   3.407   0.466   3.697 -1.0709 -0.4426  0.9006
19631TIP3    H280309   3.282   0.551   3.706 -0.6174  0.4021 -0.4940
19632TIP3   OH280310   5.650   3.081   2.096  1.0147 -0.4550  0.1811
19632TIP3    H180311   5.681   3.105   2.009  0.0879  0.4023  0.0724
19632TIP3    H280312   5.596   3.003   2.081 -1.0842  1.0268 -0.3968
19633TIP3   OH280313   6.449   6.084   2.022 -0.1480 -0.0260  0.2100
19633TIP3    H180314   6.367   6.036   2.029  0.4193 -1.1723 -0.6882
19633TIP3    H280315   6.454   6.111   1.930 -0.1273  1.1765  0.5461
19634TIP3   OH280316   3.259   2.345   3.782 -0.6475  0.2924 -0.2901
19634TIP3    H180317   3.215   2.272   3.738  0.2808 -0.7309  0.4410
19634TIP3    H280318   3.312   2.304   3.850 -2.5008  1.8127  2.2872
19635TIP3   OH280319   5.467   5.253  16.871  0.2906 -0.0275  0.5146
19635TIP3    H180320   5.372   5.260  16.880  0.0321  0.3516 -1.9098
19635TIP3    H280321   5.499   5.341  16.887  0.4539 -0.4694  2.9402
19636TIP3   OH280322   1.020   5.440   5.995  0.3139 -0.2685  0.0137
19636TIP3    H180323   0.927   5.425   6.012  0.2866 -0.8672 -0.6502
19636TIP3    H280324   1.029   5.535   5.993 -0.5820 -0.1988 -1.5232
19637TIP3   OH280325   0.667   2.216   1.490 -0.0906  0.2247  0.1160
19637TIP3    H180326   0.679   2.273   1.566 -0.1716 -0.9493  1.0391
19637TIP3    H280327   0.751   2.171   1.479  0.2352  1.0600 -1.0999
19638TIP3   OH280328   1.004   5.415   2.033  0.2160  0.2383 -0.5901
19638TIP3    H180329   0.931   5.465   2.067  0.7033  1.6031 -1.4844
19638TIP3    H280330   1.059   5.479   1.989  1.6504 -0.8465 -0.4572
19639TIP3   OH280331   0.884   4.357  17.165  0.2586  0.7191 -0.3010
19639TIP3    H180332   0.958   4.327  17.218 -0.9627 -2.0511  0.0292
19639TIP3    H280333   0.819   4.385  17.229 -0.6407 -1.2042 -0.2961
19640TIP3   OH280334   0.370   3.717   2.011  0.0541  0.1667  0.5220
19640TIP3    H180335   0.394   3.746   2.099 -0.0641  0.7955  0.3507
19640TIP3    H280336   0.340   3.627   2.023 -0.9125  0.5695  1.2936
19641TIP3   OH280337   3.748   1.374   4.040  0.2761  0.3196 -0.4595
19641TIP3    H180338   3.783   1.299   3.993  1.2035  1.5208 -1.7558
19641TIP3    H280339   3.662   1.346   4.070 -0.2773 -0.5744 -2.7088
19642TIP3   OH280340   1.134   0.229  15.097 -0.0611  0.3625  0.3056
19642TIP3    H180341   1.094   0.260  15.178  0.1218  0.7026  0.2701
19642TIP3    H280342   1.090   0.278  15.028 -2.4802 -2.1549 -0.1166
19643TIP3   OH280343   6.749   0.977  15.528  0.1179 -0.4355  0.1721
19643TIP3    H180344   6.671   1.032  15.536 -0.1236 -0.6601 -0.5938
19643TIP3    H280345   6.763   0.969  15.434  1.6067  0.3627  0.2879
19644TIP3   OH280346   6.702   6.412  10.970 -0.2057 -0.0722  0.3559
19644TIP3    H180347   6.729   6.496  11.005  0.5430 -0.0658 -0.2128
19644TIP3    H280348   6.607   6.419  10.962 -0.3926 -0.0059  2.1568
19645TIP3   OH280349   0.249   5.865  12.275  0.1069 -0.6236 -0.1847
19645TIP3    H180350   0.165   5.876  12.231 -0.0351 -1.0319 -0.0271
19645TIP3    H280351   0.279   5.954  12.294  0.2307 -0.4408 -1.2038
19646TIP3   OH280352   2.458   1.957   3.791  0.0641 -0.6497  0.8497
19646TIP3    H180353   2.392   1.893   3.761  0.2285 -0.8365  0.8843
19646TIP3    H280354   2.536   1.904   3.808  0.2867 -0.3992  0.6106
19647TIP3   OH280355   5.146   0.756   4.259 -0.0337 -0.1330  0.1510
19647TIP3    H180356   5.094   0.833   4.236  0.9032  0.0186 -1.5967
19647TIP3    H280357   5.123   0.738   4.350 -3.4461 -0.3494 -0.6241
19648TIP3   OH280358   5.691   0.633   0.677 -0.0998  0.6166  0.0108
19648TIP3    H180359   5.690   0.664   0.587  0.4440  0.2978 -0.1116
19648TIP3    H280360   5.784   0.633   0.701 -0.1346 -0.4164  0.1782
19649TIP3   OH280361   2.594   3.392  14.316  0.1383 -0.4223 -0.2513
19649TIP3    H180362   2.591   3.303  14.280  0.6484 -0.5038 -0.0995
19649TIP3    H280363   2.583   3.380  14.411 -1.9250 -0.1546 -0.4118
19650TIP3   OH280364   4.708   6.635   2.556 -0.5227 -0.1182 -0.2010
19650TIP3    H180365   4.757   6.575   2.500 -2.2961 -2.2885  0.4297
19650TIP3    H280366   4.700   6.589   2.639 -1.7300  1.0924  0.3965
19651TIP3   OH280367   5.713   1.615   4.076 -0.2427 -0.4890 -0.3366
19651TIP3    H180368   5.772   1.557   4.028 -1.8117 -0.7044 -2.1064
19651TIP3    H280369   5.746   1.703   4.060  0.7900 -0.7086  0.4479
19652TIP3   OH280370   4.738   4.987   1.952 -0.2116  0.3595  0.0373
19652TIP3    H180371   4.694   4.931   2.017 -1.5348  0.4097 -0.7779
19652TIP3    H280372   4.725   4.943   1.869  1.2104  0.4539 -0.2659
19653TIP3   OH280373   2.064   4.139  11.773  0.2420 -0.2409 -0.1697
19653TIP3    H180374   2.131   4.202  11.798  1.5675 -2.4920  2.3817
19653TIP3    H280375   1.982   4.178  11.803  1.1515 -0.1430  2.4267
19654TIP3   OH280376   5.592   3.232   4.044  0.5637  0.1304  0.3266
19654TIP3    H180377   5.629   3.314   4.012  1.8524 -0.5259  0.0852
19654TIP3    H280378   5.564   3.186   3.965 -0.2470  0.3622  0.4683
19655TIP3   OH280379   2.811   6.189  14.225 -0.6988  0.1109  0.2100
19655TIP3    H180380   2.852   6.274  14.242 -0.2578  0.2385 -1.3057
19655TIP3    H280381   2.885   6.128  14.217 -0.7786  0.1813 -1.6644
19656TIP3   OH280382   0.850   2.749   6.355  0.0731 -0.3220  0.1229
19656TIP3    H180383   0.773   2.694   6.374  0.4114 -0.3544  1.5549
19656TIP3    H280384   0.843   2.822   6.418  1.0750 -0.1936  0.1024
19657TIP3   OH280385   5.654   2.298   5.456  0.3948  1.0534 -0.0678
19657TIP3    H180386   5.626   2.385   5.428 -0.5896  1.2936  1.5529
19657TIP3    H280387   5.576   2.259   5.495  1.2325  0.0543  0.6583
19658TIP3   OH280388   2.916   6.318  14.908 -0.3444  0.5050 -0.1624
19658TIP3    H180389   2.929   6.385  14.841  2.2045 -0.3011 -0.5763
19658TIP3    H280390   2.893   6.239  14.859  0.8663  0.0721 -0.0474
19659TIP3   OH280391   1.176   0.951  12.529 -0.0031  0.2165  0.2897
19659TIP3    H180392   1.115   0.949  12.603  0.2129  0.2714  0.4710
19659TIP3    H280393   1.261   0.970  12.569  0.4192 -1.4321  0.2341
19660TIP3   OH280394   3.840   0.624   3.186 -0.5112 -0.3447 -0.4838
19660TIP3    H180395   3.763   0.661   3.143 -2.7856 -1.7570  2.0318
19660TIP3    H280396   3.893   0.588   3.115 -2.0848  0.8515 -2.3401
19661TIP3   OH280397   3.450   5.973  12.042 -0.0058 -0.2177 -0.2778
19661TIP3    H180398   3.473   5.899  12.099  0.0625  0.4079  0.5247
19661TIP3    H280399   3.382   6.020  12.091  1.2863  1.3258  0.1318
19662TIP3   OH280400   2.951   0.306  15.890  0.2500  0.0835 -0.3587
19662TIP3    H180401   2.971   0.378  15.951 -1.0330  0.8943 -0.8650
19662TIP3    H280402   3.000   0.231  15.925 -0.3678  0.5474  1.6161
19663TIP3   OH280403   1.366   4.723  13.735  0.5743 -0.2792 -0.4117
19663TIP3    H180404   1.416   4.642  13.745  0.5408 -0.4849 -1.7039
19663TIP3    H280405   1.425   4.782  13.689  0.7415  0.5897  0.8793
19664TIP3   OH280406   4.386   1.325  12.256  0.3084 -0.4050  0.7863
19664TIP3    H180407   4.351   1.377  12.184  0.1202 -2.3529 -0.5825
19664TIP3    H280408   4.396   1.388  12.328 -0.1988  1.4332 -0.6827
19665TIP3   OH280409   3.377   5.924   1.702 -0.7313  0.2673  0.0132
19665TIP3    H180410   3.328   5.848   1.734  0.1389 -0.9806 -1.5190
19665TIP3    H280411   3.469   5.898   1.707 -0.1812  2.2495  2.0071
19666TIP3   OH280412   0.421   3.493   2.541  0.8863 -0.1267  0.9357
19666TIP3    H180413   0.373   3.555   2.486  0.1194  0.3696  2.1291
19666TIP3    H280414   0.381   3.408   2.521 -0.3410  0.2428  1.7109
19667TIP3   OH280415   3.484   2.278  13.869 -0.0738 -0.0760  0.3283
19667TIP3    H180416   3.398   2.263  13.830  0.1458 -0.5789  0.0223
19667TIP3    H280417   3.541   2.213  13.827  0.5220  0.4640  0.2953
19668TIP3   OH280418   5.235   5.355  16.359  0.3615 -0.3147  0.7446
19668TIP3    H180419   5.255   5.425  16.296  3.0275 -0.7558  0.9789
19668TIP3    H280420   5.183   5.292  16.308 -1.5993  1.4862  0.3755
19669TIP3   OH280421   6.107   6.308  15.346  0.0653  0.2953 -0.0029
19669TIP3    H180422   6.060   6.249  15.287 -0.8553  1.2815 -0.2775
19669TIP3    H280423   6.199   6.285  15.333 -0.0787  0.6750 -2.0734
19670TIP3   OH280424   3.645   0.700   4.571  0.4222 -0.0859  0.4043
19670TIP3    H180425   3.666   0.636   4.503 -0.8349 -1.2323  1.0478
19670TIP3    H280426   3.550   0.698   4.578  0.2220  2.6885 -0.2911
19671TIP3   OH280427   2.067   6.578  12.655  0.0570  0.6182  0.2108
19671TIP3    H180428   2.133   6.580  12.586 -0.4095  0.0836 -0.2538
19671TIP3    H280429   2.112   6.616  12.731  0.7574  0.6714 -0.2156
19672TIP3   OH280430   1.239   2.152   4.541  0.2982  0.2296  0.3032
19672TIP3    H180431   1.176   2.081   4.546  2.1101 -1.7128 -2.0917
19672TIP3    H280432   1.235   2.182   4.450  2.4206  0.3799  0.2118
19673TIP3   OH280433   3.648   4.861   2.224  0.0593 -0.4051 -0.3626
19673TIP3    H180434   3.728   4.867   2.277 -1.3068  0.5499  1.6973
19673TIP3    H280435   3.622   4.951   2.209 -1.5385 -0.6983  0.4527
19674TIP3   OH280436   5.212   5.282  12.214  0.6405 -0.1945 -0.1152
19674TIP3    H180437   5.249   5.258  12.299  0.6652 -1.2868 -0.4239
19674TIP3    H280438   5.117   5.288  12.230  0.5154 -1.5384 -0.2494
19675TIP3   OH280439   6.329   5.071   5.106 -0.3299 -0.0568  0.7713
19675TIP3    H180440   6.397   5.014   5.142  1.2277  1.2448 -0.0517
19675TIP3    H280441   6.346   5.074   5.012 -0.7747  1.2475  0.7120
19676TIP3   OH280442   0.965   2.757  11.201  0.1636  0.1030  0.0914
19676TIP3    H180443   1.004   2.817  11.138 -1.8912 -1.0996 -2.5560
19676TIP3    H280444   0.875   2.788  11.212 -0.4389 -1.4800 -0.0479
19677TIP3   OH280445   1.065   3.252  14.395 -0.4046  0.4944  0.4530
19677TIP3    H180446   1.053   3.157  14.398 -0.0029  0.4676  2.2375
19677TIP3    H280447   1.070   3.272  14.302  0.2996 -1.3462  0.0418
19678TIP3   OH280448   1.144   2.704  11.621 -0.0959 -0.5155  0.0190
19678TIP3    H180449   1.106   2.617  11.635 -2.3307  0.4016  0.1930
19678TIP3    H280450   1.093   2.762  11.678  1.2854  0.9273 -0.1461
19679TIP3   OH280451   2.111   2.065  16.060  0.4783  0.1877  0.3680
19679TIP3    H180452   2.144   2.025  15.979  2.5905 -0.3917  1.4403
19679TIP3    H280453   2.016   2.069  16.048  0.6234 -0.9579 -1.6373
19680TIP3   OH280454   6.480   0.220   0.965  0.4326  0.0619 -0.6203
19680TIP3    H180455   6.554   0.279   0.952  0.2773  0.3099 -0.3950
19680TIP3    H280456   6.474   0.210   1.060 -0.5255  0.9561 -0.5664
19681TIP3   OH280457   2.104   1.823   2.629 -0.2410 -0.2004 -0.1528
19681TIP3    H180458   2.076   1.738   2.595  1.9163 -1.3196  0.6986
19681TIP3    H280459   2.133   1.871   2.551 -1.1765 -0.3228 -0.5979
19682TIP3   OH280460   1.680   1.483   0.394  0.0992  0.3406 -0.0233
19682TIP3    H180461   1.652   1.404   0.348  0.5872 -0.1556  0.4892
19682TIP3    H280462   1.601   1.518   0.434  0.1533 -0.9781  1.3251
19683TIP3   OH280463   4.121   5.522   2.892 -0.4628 -0.4603  0.3958
19683TIP3    H180464   4.074   5.470   2.958  0.6645 -1.8658  0.1432
19683TIP3    H280465   4.075   5.504   2.810 -2.3421  1.8807  0.8069
19684TIP3   OH280466   3.120   4.857   5.660  0.3527  0.2442  0.4007
19684TIP3    H180467   3.142   4.906   5.582  0.5627  1.3429  1.1267
19684TIP3    H280468   3.032   4.886   5.683  1.1897  1.7560  1.8984
19685TIP3   OH280469   6.580   6.667  14.631 -0.3429  0.5401 -0.4806
19685TIP3    H180470   6.557   6.584  14.589  0.1655  0.5741 -0.8335
19685TIP3    H280471   6.675   6.673  14.622  0.2012 -0.7228  3.0511
19686TIP3   OH280472   2.119   1.945  12.381 -0.3746 -0.0824  0.1503
19686TIP3    H180473   2.056   1.899  12.326 -0.4742  1.6394 -1.2716
19686TIP3    H280474   2.203   1.902  12.363 -0.3848  0.5217 -1.4943
19687TIP3   OH280475   2.692   3.192   0.763  0.2575 -0.2836 -0.1316
19687TIP3    H180476   2.722   3.232   0.681 -1.4628 -3.5927 -2.5980
19687TIP3    H280477   2.622   3.249   0.793  0.3244  0.5538 -1.4658
19688TIP3   OH280478   5.591   2.554   5.361  0.3064 -0.8005  0.1796
19688TIP3    H180479   5.667   2.608   5.383 -0.7884 -0.0888  2.4122
19688TIP3    H280480   5.539   2.609   5.302  0.5528 -0.5235  0.2158
19689TIP3   OH280481   2.167   3.680  16.098  0.3172 -0.0464 -0.7356
19689TIP3    H180482   2.141   3.772  16.091 -1.7636 -0.3248  1.9536
19689TIP3    H280483   2.086   3.631  16.087  1.4487 -1.6680 -2.5365
19690TIP3   OH280484   4.327   1.509  15.153  0.6952 -0.4267  0.4246
19690TIP3    H180485   4.420   1.486  15.153  0.2559 -2.3370  1.0904
19690TIP3    H280486   4.295   1.485  15.239 -0.4909 -0.0025  0.1343
19691TIP3   OH280487   4.098   6.439  14.012 -0.2500  0.2137  0.0826
19691TIP3    H180488   4.131   6.490  14.086 -0.0357  1.5859 -0.9161
19691TIP3    H280489   4.170   6.381  13.988  0.6507  1.5703 -0.6331
19692TIP3   OH280490   5.282   6.608   2.041  0.1731  0.7818  0.2287
19692TIP3    H180491   5.197   6.614   1.998 -0.5431  0.0253  1.4719
19692TIP3    H280492   5.296   6.515   2.056  0.1847  1.0105  1.9341
19693TIP3   OH280493   4.887   3.496  12.126 -0.3960  0.5508  0.3183
19693TIP3    H180494   4.929   3.415  12.155 -0.4255  0.5279  0.2970
19693TIP3    H280495   4.940   3.526  12.052 -0.5158  0.4338  0.1850
19694TIP3   OH280496   0.602   2.092   3.942  0.2214 -0.6592 -0.7300
19694TIP3    H180497   0.616   2.121   4.032  1.6311 -2.4052 -0.3170
19694TIP3    H280498   0.537   2.152   3.907  1.8943  2.0463  0.4572
19695TIP3   OH280499   0.818   0.695   0.117  0.4350  1.0073 -0.0525
19695TIP3    H180500   0.733   0.658   0.142  1.2167  0.8055  2.6770
19695TIP3    H280501   0.827   0.675   0.024 -1.4890 -1.0022  0.1113
19696TIP3   OH280502   3.918   5.364   5.448 -0.2854  0.5473  0.2011
19696TIP3    H180503   3.965   5.287   5.481 -2.2942 -1.2460 -0.8462
19696TIP3    H280504   3.975   5.397   5.378 -0.0217 -0.9358 -0.3413
19697TIP3   OH280505   1.011   6.377   2.769  0.1312  0.1556 -0.1582
19697TIP3    H180506   1.039   6.295   2.809 -3.0955 -0.2841  1.5532
19697TIP3    H280507   1.079   6.440   2.792  0.2514 -0.9484  3.0248
19698TIP3   OH280508   5.302   0.927   1.461 -0.0046  0.8263 -0.0367
19698TIP3    H180509   5.298   0.926   1.556 -0.0254  0.6723 -0.0378
19698TIP3    H280510   5.376   0.870   1.439  0.5883  1.6164 -0.0880
19699TIP3   OH280511   4.878   0.942  11.622  0.6434 -0.2545  0.1317
19699TIP3    H180512   4.794   0.911  11.587 -0.1153  2.4817 -0.7371
19699TIP3    H280513   4.891   1.027  11.580  3.4850 -0.2258  0.8895
19700TIP3   OH280514   1.155   4.397  11.392  0.3825 -0.6620  0.0421
19700TIP3    H180515   1.244   4.364  11.407  0.1190 -0.7769  1.4813
19700TIP3    H280516   1.115   4.398  11.479 -1.1059 -0.8308 -0.6157
19701TIP3   OH280517   2.406   5.251   5.268  0.4923 -0.7380 -0.0201
19701TIP3    H180518   2.337   5.197   5.306 -0.3076 -2.1059 -3.1486
19701TIP3    H280519   2.484   5.194   5.268  0.7301 -0.4225  0.3107
19702TIP3   OH280520   2.149   3.088  14.121  0.1668 -0.4878 -0.1245
19702TIP3    H180521   2.204   3.165  14.108 -0.0310 -0.0704  1.3867
19702TIP3    H280522   2.066   3.109  14.077 -0.8432  1.2933  2.3924
19703TIP3   OH280523   0.521   3.656  13.094  0.3537 -0.2892  0.3702
19703TIP3    H180524   0.564   3.718  13.036 -1.4800  2.4833  1.7638
19703TIP3    H280525   0.455   3.613  13.039  1.9894 -1.5224 -0.7348
19704TIP3   OH280526   4.031   2.531   0.904 -0.1203  0.1567  0.5716
19704TIP3    H180527   4.109   2.516   0.851 -0.1448 -3.2173  1.2684
19704TIP3    H280528   4.065   2.547   0.992 -0.2081 -0.2658  0.6801
19705TIP3   OH280529   1.581   5.563  16.360  0.5364  0.1397 -0.1712
19705TIP3    H180530   1.656   5.608  16.400 -0.3343  1.7230 -0.2491
19705TIP3    H280531   1.538   5.519  16.433  1.4522 -0.6717 -0.1038
19706TIP3   OH280532   1.241   3.313  11.552 -0.0291  0.0043  0.3454
19706TIP3    H180533   1.205   3.297  11.465  0.1938 -0.7550  0.3821
19706TIP3    H280534   1.189   3.258  11.610  0.4606 -0.2446  0.5534
19707TIP3   OH280535   2.787   3.439  13.428 -0.5787 -0.0284 -0.4962
19707TIP3    H180536   2.880   3.449  13.451  0.0577 -3.0386 -1.3649
19707TIP3    H280537   2.765   3.351  13.456 -2.7667  0.0650 -1.7339
19708TIP3   OH280538   1.075   3.830   5.258 -0.2875  0.3129  0.3248
19708TIP3    H180539   1.135   3.783   5.315 -1.0681  0.2001  1.0673
19708TIP3    H280540   1.013   3.764   5.228  0.2956  0.3016 -0.9300
19709TIP3   OH280541   4.824   4.465  15.578  0.3425 -0.1600  0.3803
19709TIP3    H180542   4.768   4.541  15.560 -1.1622 -1.2462  0.3227
19709TIP3    H280543   4.834   4.464  15.673 -0.2126 -0.3006  0.4342
19710TIP3   OH280544   0.369   2.799   4.780  0.3126  0.1462  0.3736
19710TIP3    H180545   0.360   2.869   4.845 -0.6451  0.5235 -0.1404
19710TIP3    H280546   0.280   2.787   4.746  0.7626 -0.1855 -0.7190
19711TIP3   OH280547   5.181   4.404  13.253 -0.1251 -0.4324 -0.1857
19711TIP3    H180548   5.202   4.407  13.346 -0.1475  2.2247 -0.1975
19711TIP3    H280549   5.092   4.441  13.247  0.1953  0.2085 -1.3164
19712TIP3   OH280550   4.961   2.616   1.711  0.4517  0.1658 -0.0466
19712TIP3    H180551   4.882   2.623   1.658  0.1804 -1.0251  0.1734
19712TIP3    H280552   4.981   2.523   1.712  2.2702  0.5013 -0.6786
19713TIP3   OH280553   2.695   0.251  11.859 -0.1494 -0.0932 -0.2893
19713TIP3    H180554   2.658   0.195  11.792  1.9405 -1.2338 -0.5671
19713TIP3    H280555   2.697   0.196  11.938 -1.8873  0.9861  0.5679
19714TIP3   OH280556   1.443   3.454   1.965 -0.4438  0.5721 -0.1589
19714TIP3    H180557   1.519   3.398   1.984 -1.1257 -0.3009  0.0208
19714TIP3    H280558   1.481   3.530   1.921  0.7191  0.8244  1.1787
19715TIP3   OH280559   4.346   4.435   5.932  0.4863  0.6779 -0.7349
19715TIP3    H180560   4.326   4.343   5.949  1.0386  0.7655  0.5594
19715TIP3    H280561   4.271   4.483   5.969  0.3309  0.7598 -1.1544
19716TIP3   OH280562   6.333   5.536   3.029 -0.1962  0.5002  0.1772
19716TIP3    H180563   6.424   5.507   3.034 -0.1748  0.6601  0.8378
19716TIP3    H280564   6.314   5.542   2.936  0.8647  1.7301  0.0181
19717TIP3   OH280565   4.261   0.016  14.345 -0.0373  0.0927  0.2688
19717TIP3    H180566   4.328  -0.014  14.407  0.5017  0.3568 -0.1795
19717TIP3    H280567   4.279   0.109  14.334 -1.3975  0.4915  1.2761
19718TIP3   OH280568   0.068   5.329   3.358 -0.2748 -0.0456 -0.1235
19718TIP3    H180569   0.105   5.241   3.357  0.3187  0.1891 -1.3401
19718TIP3    H280570   0.133   5.383   3.403  0.5642  0.2257 -1.6033
19719TIP3   OH280571   3.059   6.092  13.660 -0.8532  0.1836 -0.3918
19719TIP3    H180572   3.077   6.181  13.628 -0.9995  0.5137  0.4140
19719TIP3    H280573   3.132   6.073  13.720  0.0154 -0.8585 -1.7167
19720TIP3   OH280574   1.264   0.240  13.572  0.1738 -0.0263 -0.1317
19720TIP3    H180575   1.349   0.235  13.616  0.3303 -0.6027 -0.4868
19720TIP3    H280576   1.244   0.150  13.548  0.3878  0.3232 -1.7900
19721TIP3   OH280577   2.647   5.126   5.267 -0.1165 -0.0473 -0.3854
19721TIP3    H180578   2.729   5.082   5.242 -1.0721 -1.9574 -0.3259
19721TIP3    H280579   2.674   5.215   5.287  1.8344 -0.3986 -1.1422
19722TIP3   OH280580   0.823   0.714   6.262  0.1184 -0.4919  0.0524
19722TIP3    H180581   0.882   0.651   6.303 -0.4434  0.5940  2.7041
19722TIP3    H280582   0.871   0.796   6.262 -0.3466 -0.2111 -0.4276
19723TIP3   OH280583   5.211   4.148  13.133 -0.2466  0.1843 -0.6746
19723TIP3    H180584   5.151   4.140  13.058  0.6934 -0.5197 -1.3710
19723TIP3    H280585   5.173   4.218  13.186 -1.4790  0.0122 -1.2944
19724TIP3   OH280586   3.712   5.707  16.228  0.3404  0.3324 -0.4964
19724TIP3    H180587   3.661   5.720  16.148 -0.0078  1.2467 -0.1385
19724TIP3    H280588   3.668   5.635  16.273 -0.4527  0.8948 -0.3514
19725TIP3   OH280589   3.241   4.490  13.781 -0.6348 -0.2064 -0.8700
19725TIP3    H180590   3.306   4.432  13.821 -0.3936  1.1288  0.7653
19725TIP3    H280591   3.288   4.571  13.765 -2.0225  1.0594  1.0539
19726TIP3   OH280592   5.648   1.559   5.379 -0.2522 -0.3369 -0.1501
19726TIP3    H180593   5.639   1.529   5.470 -1.0591 -0.7340 -0.3490
19726TIP3    H280594   5.743   1.558   5.363 -0.1830 -2.0647  0.1148
19727TIP3   OH280595   4.227   5.897   3.784 -0.3013 -0.4710  0.1600
19727TIP3    H180596   4.260   5.835   3.719  0.6979  1.1934 -1.0180
19727TIP3    H280597   4.156   5.943   3.739 -2.3966 -2.0272  1.6917
19728TIP3   OH280598   0.296   2.618  14.222  0.0885  0.4104  0.2725
19728TIP3    H180599   0.367   2.576  14.173 -1.8289 -0.2265 -2.0887
19728TIP3    H280600   0.342   2.675  14.285  2.6830 -0.8344 -0.3345
19729TIP3   OH280601   0.934   2.639  13.398  0.7699  0.2903 -0.1610
19729TIP3    H180602   0.913   2.645  13.491 -0.3095  0.6048 -0.4058
19729TIP3    H280603   0.850   2.620  13.356  1.1655  0.5844 -1.1141
19730TIP3   OH280604   5.400   4.683   1.952  0.2114  0.0735 -0.8463
19730TIP3    H180605   5.494   4.703   1.952 -0.0125  1.5153  1.5109
19730TIP3    H280606   5.380   4.666   1.860  2.8178 -0.5753 -1.3963
19731TIP3   OH280607   3.822   5.457   1.988 -0.2019 -0.1315 -0.2042
19731TIP3    H180608   3.909   5.420   1.975  1.3582  2.3871  2.1546
19731TIP3    H280609   3.766   5.381   2.005  1.2678 -1.8723 -2.6099
19732TIP3   OH280610   3.455   3.941  12.146 -0.3838  0.6281  0.1242
19732TIP3    H180611   3.414   3.955  12.060  0.5609  1.2086 -0.2396
19732TIP3    H280612   3.548   3.930  12.127 -0.3306 -0.5021  0.9670
19733TIP3   OH280613   5.444   0.740  12.025  0.4773 -0.2639 -1.0734
19733TIP3    H180614   5.411   0.650  12.023 -1.3679  0.2549  1.1558
19733TIP3    H280615   5.371   0.792  11.992 -0.1302  0.7209  1.6345
19734TIP3   OH280616   1.685   3.854  15.350  0.7430 -0.8487  0.1944
19734TIP3    H180617   1.773   3.854  15.386  1.3930  0.8056 -1.2763
19734TIP3    H280618   1.663   3.946  15.337 -0.8672 -1.2503 -0.2611
19735TIP3   OH280619   3.047   2.270   0.846  0.2745 -0.0281 -0.8035
19735TIP3    H180620   3.131   2.264   0.891  0.3989 -2.1948 -1.2145
19735TIP3    H280621   3.067   2.317   0.764  0.9089  0.1484 -0.5515
19736TIP3   OH280622   3.956   4.794  11.118  0.1825 -0.1856 -0.0997
19736TIP3    H180623   3.878   4.848  11.112  0.1716 -0.1991 -0.0811
19736TIP3    H280624   3.968   4.760  11.029  1.5460  1.7113 -0.6976
19737TIP3   OH280625   3.202   3.637   2.622  0.0574  0.0752 -1.0740
19737TIP3    H180626   3.207   3.542   2.606  0.7599 -0.0630 -0.1633
19737TIP3    H280627   3.291   3.669   2.607  0.0810  0.3946 -0.3293
19738TIP3   OH280628   6.730   2.015  14.568 -0.4530  0.2044 -0.7278
19738TIP3    H180629   6.726   2.109  14.588 -2.1309  0.2292 -1.0540
19738TIP3    H280630   6.662   1.976  14.624  1.6605 -1.1702  1.0407
19739TIP3   OH280631   3.223   0.235   1.579  0.3210  0.2725  0.4885
19739TIP3    H180632   3.297   0.283   1.617  0.0571  0.0175  1.3533
19739TIP3    H280633   3.262   0.157   1.540  0.9036  1.7001 -1.9496
19740TIP3   OH280634   0.500   1.153   2.492  0.3848 -0.0742  0.2775
19740TIP3    H180635   0.548   1.139   2.410  2.2705  0.9846  1.1289
19740TIP3    H280636   0.564   1.134   2.561 -1.1900 -1.0769  1.5336
19741TIP3   OH280637   2.802   2.942  13.968 -0.0427  0.1680 -0.2507
19741TIP3    H180638   2.756   2.878  13.914 -0.0435  0.2400 -0.3361
19741TIP3    H280639   2.803   3.022  13.915  0.4731  0.0730 -0.3899
19742TIP3   OH280640   2.504   2.993  11.881 -0.1848  0.1937  0.6014
19742TIP3    H180641   2.450   2.936  11.827  0.2495 -1.2832  1.6420
19742TIP3    H280642   2.459   2.994  11.966  1.8880 -1.9537  1.8269
19743TIP3   OH280643   0.938   4.393   6.537  0.0459 -0.0652 -0.0299
19743TIP3    H180644   1.015   4.338   6.520  0.4992  1.2816 -2.8377
19743TIP3    H280645   0.863   4.338   6.514  0.3996 -0.1545 -1.0205
19744TIP3   OH280646   1.342   6.562   0.874  0.3501  0.4824  0.0455
19744TIP3    H180647   1.267   6.613   0.843 -1.8951 -2.3742  0.3382
19744TIP3    H280648   1.384   6.530   0.794 -0.0025  0.4303 -0.1210
19745TIP3   OH280649   6.063   0.922   2.903  0.2415  0.0226 -0.3780
19745TIP3    H180650   6.052   0.852   2.967  0.0112 -0.5488 -1.0301
19745TIP3    H280651   6.094   0.878   2.824  1.1986  0.8025 -0.4605
19746TIP3   OH280652   5.822   4.390   2.001  0.7280 -0.2138  0.4827
19746TIP3    H180653   5.853   4.415   1.914  1.4766 -0.4206  0.6827
19746TIP3    H280654   5.804   4.296   1.994 -1.5886  0.2182 -0.1253
19747TIP3   OH280655   3.773   1.474   3.483 -0.3933 -0.2815 -0.6678
19747TIP3    H180656   3.853   1.525   3.472 -0.7801  0.3327 -0.7084
19747TIP3    H280657   3.787   1.424   3.564 -1.4660  2.7632  1.5850
19748TIP3   OH280658   1.236   4.218   3.540  0.6008  1.1175  0.2543
19748TIP3    H180659   1.301   4.230   3.609 -1.3524  0.1573  2.4188
19748TIP3    H280660   1.185   4.299   3.540 -1.6630 -0.1580  2.6252
19749TIP3   OH280661   2.709   6.731   5.876  0.0760 -0.2168 -0.6393
19749TIP3    H180662   2.735   6.735   5.968 -0.1976 -2.1867 -0.4440
19749TIP3    H280663   2.785   6.767   5.828  1.3637 -1.6813  0.2010
19750TIP3   OH280664   5.590   2.250  14.428 -0.7974  0.4799 -0.2151
19750TIP3    H180665   5.587   2.338  14.464 -0.4800  0.6399 -0.5723
19750TIP3    H280666   5.518   2.204  14.470 -0.4573  0.6690  0.5979
19751TIP3   OH280667   1.783   1.055   4.033  0.2402  0.2843 -0.6386
19751TIP3    H180668   1.715   1.109   4.072  0.1915 -0.3739  0.2044
19751TIP3    H280669   1.794   0.981   4.093  1.7430  0.4097 -0.6997
19752TIP3   OH280670   4.094   3.680  11.052 -0.1684  0.3723 -0.5859
19752TIP3    H180671   4.092   3.642  10.964  0.2943 -0.4329 -0.2603
19752TIP3    H280672   4.024   3.635  11.098  2.1564 -2.2947  0.6465
19753TIP3   OH280673   4.961   0.549  12.826  0.4524  0.0706  0.0993
19753TIP3    H180674   4.904   0.481  12.862  0.9701 -0.2306  0.3492
19753TIP3    H280675   5.005   0.507  12.752  0.1971  0.3668 -0.2247
19754TIP3   OH280676   0.179   1.149  15.020 -0.3726 -0.0876 -0.2109
19754TIP3    H180677   0.246   1.189  14.964 -0.3245  1.7839  1.0762
19754TIP3    H280678   0.228   1.106  15.090 -0.4704 -1.3920 -0.9099
19755TIP3   OH280679   4.654   4.503   5.555 -0.1342 -0.0245  0.1144
19755TIP3    H180680   4.731   4.553   5.582  0.9721 -1.1667 -0.8544
19755TIP3    H280681   4.687   4.437   5.495 -2.0842  0.4975 -1.6493
19756TIP3   OH280682   2.126   4.459  17.036  0.3815 -0.0746 -0.0071
19756TIP3    H180683   2.116   4.431  16.945  0.3130  0.7610 -0.2695
19756TIP3    H280684   2.185   4.535  17.031  1.0267 -0.5123  0.7306
19757TIP3   OH280685   2.819   0.480   2.959  0.0156  0.2642  0.2908
19757TIP3    H180686   2.727   0.470   2.937  0.6102 -1.5359 -1.8577
19757TIP3    H280687   2.851   0.390   2.970  1.5291  0.8428  0.9448
19758TIP3   OH280688   2.379   3.170   2.248  0.1166 -0.4304  0.4268
19758TIP3    H180689   2.356   3.078   2.261  0.0143 -1.0293 -3.0295
19758TIP3    H280690   2.465   3.179   2.288 -0.4766 -1.6296  2.0602
19759TIP3   OH280691   1.062   5.934  12.165 -0.1370 -0.3132  0.0914
19759TIP3    H180692   1.000   5.978  12.223 -0.3609  0.7801 -0.9327
19759TIP3    H280693   1.138   5.993  12.162  0.0850 -0.6118 -0.3191
19760TIP3   OH280694   2.039   5.349  12.940  0.3404  0.2286  0.5779
19760TIP3    H180695   2.120   5.336  12.891  1.3486 -0.5481  2.3620
19760TIP3    H280696   1.980   5.392  12.878  1.1209 -1.7504 -1.6887
19761TIP3   OH280697   3.424   2.167   0.603  0.2760  0.0812 -0.1297
19761TIP3    H180698   3.515   2.169   0.576  0.8715  1.1994  1.7332
19761TIP3    H280699   3.418   2.233   0.673 -2.1218  0.5788 -0.6917
19762TIP3   OH280700   1.294   1.127  16.808 -0.5823  0.4710 -0.1817
19762TIP3    H180701   1.388   1.140  16.807 -0.3850 -0.4485  1.8613
19762TIP3    H280702   1.282   1.032  16.811 -1.5962  0.5548 -0.8324
19763TIP3   OH280703   1.781   3.126  16.994  0.1312  0.7118 -0.2272
19763TIP3    H180704   1.808   3.182  17.066  1.3864  1.5063 -1.2630
19763TIP3    H280705   1.758   3.043  17.035  1.4410  0.9416  1.0317
19764TIP3   OH280706   3.925   4.008  16.038  0.0291  0.8691  0.0363
19764TIP3    H180707   3.868   3.952  15.986  0.8507 -0.4284  0.4601
19764TIP3    H280708   3.967   4.066  15.974 -3.1875  3.3328 -0.1003
19765TIP3   OH280709   5.816   4.819  14.305 -0.3274  0.3200  0.0374
19765TIP3    H180710   5.763   4.740  14.298  1.5060 -0.8226 -1.8192
19765TIP3    H280711   5.756   4.890  14.281 -1.2167 -0.8472 -1.3350
19766TIP3   OH280712   0.654   1.728  16.468 -0.2256  0.1527 -0.2116
19766TIP3    H180713   0.720   1.697  16.530 -0.1910  0.6370  0.0045
19766TIP3    H280714   0.573   1.687  16.497 -0.5615  1.6977  1.2472
19767TIP3   OH280715   4.081   5.597  17.029 -0.1758 -0.1769 -0.1093
19767TIP3    H180716   4.116   5.509  17.013  0.5269  0.2582 -1.0490
19767TIP3    H280717   3.998   5.581  17.074  0.2706 -1.2942  0.3639
19768TIP3   OH280718   5.119   1.985   0.309  0.5167 -0.6111 -0.0814
19768TIP3    H180719   5.037   2.015   0.349  0.0525 -0.4086 -1.1325
19768TIP3    H280720   5.183   1.988   0.380  0.2785  1.9471  0.1163
19769TIP3   OH280721   1.865   1.127   2.434  0.2996 -0.1107  0.5226
19769TIP3    H180722   1.841   1.219   2.429  0.7549  0.0109  0.5166
19769TIP3    H280723   1.955   1.127   2.467  1.1950 -0.4357 -1.7241
19770TIP3   OH280724   3.595   0.217   1.959 -0.1479  0.8917  0.4207
19770TIP3    H180725   3.531   0.157   1.920 -2.2083  3.0633  0.2135
19770TIP3    H280726   3.578   0.211   2.053 -0.3812  1.1880  0.3965
19771TIP3   OH280727   4.932   0.807   4.745 -0.0631  0.2858 -0.0340
19771TIP3    H180728   4.869   0.764   4.803  0.5678 -1.0666 -0.3252
19771TIP3    H280729   4.937   0.897   4.779 -2.0921  0.4293  0.0127
19772TIP3   OH280730   4.714   0.801  15.343 -0.6210  0.0776 -0.3104
19772TIP3    H180731   4.662   0.785  15.264 -2.0184  3.7445 -0.3255
19772TIP3    H280732   4.658   0.771  15.414 -0.3968 -0.9654 -0.5529
19773TIP3   OH280733   6.557   2.223   1.591  0.2100  0.0552 -0.3311
19773TIP3    H180734   6.568   2.154   1.656 -0.5623  0.2727  0.0366
19773TIP3    H280735   6.624   2.288   1.612  0.1863 -0.0405  0.0312
19774TIP3   OH280736   2.768   3.127  15.982 -0.5833 -0.0613  0.6012
19774TIP3    H180737   2.784   3.127  15.888  0.3048  0.3811  0.7411
19774TIP3    H280738   2.673   3.124  15.991 -0.9694  4.0498 -0.3966
19775TIP3   OH280739   4.666   4.441   4.931 -0.6816 -0.2528 -0.2326
19775TIP3    H180740   4.694   4.467   4.843 -2.7943  0.8332 -0.6369
19775TIP3    H280741   4.571   4.447   4.929 -0.8481 -1.3728  1.7970
19776TIP3   OH280742   2.903   6.331   3.262 -0.0814  0.5058  0.3811
19776TIP3    H180743   2.960   6.370   3.196  1.7375 -0.2458  1.4243
19776TIP3    H280744   2.904   6.238   3.242 -0.5083  0.4234  0.7394
19777TIP3   OH280745   3.914   3.832   1.663 -0.1169 -0.0756  0.7721
19777TIP3    H180746   3.888   3.923   1.647  1.2698  0.3255  0.7287
19777TIP3    H280747   3.956   3.834   1.748  0.7133 -0.5019  0.3817
19778TIP3   OH280748   6.746   2.775   3.291  0.3649 -0.6616 -0.0844
19778TIP3    H180749   6.708   2.728   3.217  1.7116 -0.7274 -0.7776
19778TIP3    H280750   6.672   2.820   3.332 -0.5106 -1.1332 -1.0895
19779TIP3   OH280751   6.496   5.724  13.625 -0.2727  0.4100  0.0572
19779TIP3    H180752   6.441   5.761  13.695 -0.9261  0.6787 -0.5851
19779TIP3    H280753   6.580   5.767  13.637 -0.2185  0.0689  0.9975
19780TIP3   OH280754   3.052   0.121   3.178  0.3002 -0.2990 -0.3061
19780TIP3    H180755   2.993   0.046   3.192 -1.2884  1.1829  1.3614
19780TIP3    H280756   2.998   0.198   3.193  2.7508  1.1700  1.9627
19781TIP3   OH280757   2.874   2.653   2.239 -0.3636 -0.2626  0.5087
19781TIP3    H180758   2.868   2.748   2.235  1.3042 -0.1356  0.0643
19781TIP3    H280759   2.896   2.634   2.330 -1.2080 -0.2837  0.7196
19782TIP3   OH280760   0.587   4.187  12.343  0.1638 -0.2887 -0.0261
19782TIP3    H180761   0.516   4.123  12.345  0.7669 -1.2236 -3.1501
19782TIP3    H280762   0.667   4.134  12.346  0.6927  0.4613 -0.6312
19783TIP3   OH280763   1.632   3.864  16.535  0.3646  0.4265 -0.4430
19783TIP3    H180764   1.551   3.914  16.529 -1.9140 -2.6909  1.0656
19783TIP3    H280765   1.608   3.777  16.501  3.0852 -0.6234  0.0884
19784TIP3   OH280766   5.883   2.654  11.389  0.1344  0.2949 -0.7392
19784TIP3    H180767   5.948   2.658  11.460  0.0035 -1.4947 -0.4650
19784TIP3    H280768   5.910   2.721  11.327  0.3878  1.7497  0.8929
19785TIP3   OH280769   0.532   2.906   4.018 -0.1649  0.3103 -0.3927
19785TIP3    H180770   0.500   2.952   3.941  1.1949 -0.5655 -1.5166
19785TIP3    H280771   0.560   2.821   3.986  1.2723  0.2558  0.8880
19786TIP3   OH280772   3.251   2.730  12.290 -0.1702 -0.6380 -0.1344
19786TIP3    H180773   3.279   2.821  12.281 -1.2819 -0.2656  0.0643
19786TIP3    H280774   3.240   2.699  12.200  1.9238 -1.1552 -0.2674
19787TIP3   OH280775   1.015   3.114   3.858  0.5938 -0.2335  0.2832
19787TIP3    H180776   0.974   3.060   3.926  1.5898 -0.8304  0.4360
19787TIP3    H280777   0.990   3.071   3.776 -0.6023  0.4822  0.2580
19788TIP3   OH280778   1.672   6.387  16.493  0.2979  0.0909 -0.4013
19788TIP3    H180779   1.705   6.298  16.506  0.2999  0.0393 -0.7671
19788TIP3    H280780   1.634   6.410  16.578 -0.1598 -0.4535 -0.4476
19789TIP3   OH280781   3.932   5.102   5.296 -0.5411 -0.0597 -0.3588
19789TIP3    H180782   4.020   5.114   5.261 -0.4122  0.6176  0.1696
19789TIP3    H280783   3.945   5.079   5.388 -0.8075 -3.5798 -1.0470
19790TIP3   OH280784   5.515   1.628   2.277  1.0463  0.2040 -0.7690
19790TIP3    H180785   5.447   1.687   2.245  0.6568 -0.6838 -1.6113
19790TIP3    H280786   5.468   1.564   2.331  1.2780 -0.1309 -0.9613
19791TIP3   OH280787   1.181   2.105   3.731  0.2354 -0.6493 -0.5097
19791TIP3    H180788   1.113   2.148   3.679  1.3573 -1.0215 -2.3755
19791TIP3    H280789   1.255   2.166   3.730  0.4909 -0.9346  0.1397
19792TIP3   OH280790   5.196   0.525   5.784 -0.1240  0.2541 -0.1843
19792TIP3    H180791   5.221   0.432   5.790  2.1666  0.8829  1.8515
19792TIP3    H280792   5.172   0.549   5.874  0.2951  1.8645 -0.4811
19793TIP3   OH280793   6.748   5.919  14.202  0.1820  0.2829 -0.0037
19793TIP3    H180794   6.716   5.947  14.117  2.1912  0.9808 -0.5796
19793TIP3    H280795   6.770   6.000  14.247  0.5533 -0.1523  0.6110
19794TIP3   OH280796   6.440   4.039   0.863  0.4289 -0.8256  0.0292
19794TIP3    H180797   6.523   4.085   0.851  0.3422 -0.5348  0.5521
19794TIP3    H280798   6.432   4.027   0.957 -0.2387 -0.6516 -0.0043
19795TIP3   OH280799   4.681   5.866   0.157  0.9092  0.0645  0.1282
19795TIP3    H180800   4.745   5.937   0.160 -0.0842  0.9784  1.5774
19795TIP3    H280801   4.656   5.853   0.249 -2.2053  0.9701 -0.4692
19796TIP3   OH280802   0.581   4.173  13.514 -0.3205  0.2609 -0.4634
19796TIP3    H180803   0.647   4.200  13.577 -1.4052 -0.3667  1.0321
19796TIP3    H280804   0.625   4.107  13.460  0.7304  1.0339 -0.5684
19797TIP3   OH280805   6.625   2.449  14.022  0.0834 -0.1127  0.5885
19797TIP3    H180806   6.597   2.404  14.101  0.1400 -1.0186  0.1039
19797TIP3    H280807   6.693   2.393  13.984  0.0881  0.3274 -0.0808
19798TIP3   OH280808   0.187   2.765   1.457  0.2342  0.0868 -0.0700
19798TIP3    H180809   0.239   2.714   1.519 -0.6707 -1.1938 -0.3232
19798TIP3    H280810   0.174   2.706   1.382 -1.5307  0.3619 -0.0261
19799TIP3   OH280811   0.769   2.760  10.701  0.4240 -0.0455 -0.4759
19799TIP3    H180812   0.844   2.815  10.678  0.2674  0.1651 -0.4916
19799TIP3    H280813   0.782   2.739  10.793 -0.0388  0.8629 -0.1933
19800TIP3   OH280814   4.826   5.836   3.259  0.2794  0.0186 -0.6641
19800TIP3    H180815   4.826   5.896   3.184  1.9126  1.3036  0.2853
19800TIP3    H280816   4.750   5.862   3.311  1.8182  2.4877  0.5525
19801TIP3   OH280817   3.165   1.023   5.144  0.4381 -0.3035 -0.2237
19801TIP3    H180818   3.128   1.024   5.055  0.3572  2.0154 -0.2147
19801TIP3    H280819   3.143   0.936   5.178  0.8231 -1.4127 -2.5993
19802TIP3   OH280820   5.809   2.328   2.297 -0.4543  0.0729 -0.0288
19802TIP3    H180821   5.869   2.253   2.297 -1.1104 -0.4657 -0.5975
19802TIP3    H280822   5.722   2.289   2.306 -1.0365  0.5427 -2.9190
19803TIP3   OH280823   3.536   5.512  16.598 -0.0921 -0.1367  0.0190
19803TIP3    H180824   3.551   5.570  16.523 -0.1278  0.0174  0.1302
19803TIP3    H280825   3.537   5.424  16.561 -0.2110 -0.0549 -0.1796
19804TIP3   OH280826   4.558   1.325   0.923 -0.0060 -0.5924  0.1791
19804TIP3    H180827   4.522   1.236   0.930 -0.7985 -0.3160 -0.2532
19804TIP3    H280828   4.482   1.382   0.936  0.2986  0.0087 -0.6681
19805TIP3   OH280829   4.788   0.500  14.471  0.3661  0.1786 -0.0084
19805TIP3    H180830   4.860   0.437  14.468  0.7506  0.6060 -2.6832
19805TIP3    H280831   4.722   0.463  14.413 -0.5168  0.9934  0.4509
19806TIP3   OH280832   4.582   3.174  14.557 -0.2619  0.1446  0.4318
19806TIP3    H180833   4.510   3.111  14.553 -0.0347 -0.0663 -2.7999
19806TIP3    H280834   4.539   3.259  14.569 -1.0384 -0.0639 -0.6641
19807TIP3   OH280835   2.014   3.532   5.069 -0.3519  0.3168 -0.5436
19807TIP3    H180836   2.054   3.483   4.996 -1.0058  0.6807 -1.1500
19807TIP3    H280837   2.063   3.614   5.072  1.2387 -0.6251  0.9422
19808TIP3   OH280838   4.185   5.934   1.715 -0.3451 -0.1875 -0.4826
19808TIP3    H180839   4.233   5.851   1.719  0.4121  0.1822 -1.4985
19808TIP3    H280840   4.221   5.986   1.787 -0.5461 -0.5877 -0.0873
19809TIP3   OH280841   2.268   4.167   5.978 -0.3379 -0.1433 -0.0653
19809TIP3    H180842   2.202   4.136   5.915  1.2483  0.5583 -2.1681
19809TIP3    H280843   2.320   4.089   5.998  0.0441 -0.0842 -0.7877
19810TIP3   OH280844   3.642   2.020   2.782 -0.2847 -0.1885  0.0883
19810TIP3    H180845   3.733   1.999   2.803 -0.2375  1.3285  1.6482
19810TIP3    H280846   3.645   2.111   2.752 -1.2130 -0.3561 -0.5788
19811TIP3   OH280847   2.767   0.208   3.842 -0.0617 -0.4084  0.2045
19811TIP3    H180848   2.672   0.200   3.833  0.0759 -0.8647 -1.0374
19811TIP3    H280849   2.802   0.149   3.776  1.0936  0.2568  0.1995
19812TIP3   OH280850   5.349   5.202  12.451  0.4351 -0.3253  0.3390
19812TIP3    H180851   5.290   5.238  12.517  0.2493  1.2540 -0.6367
19812TIP3    H280852   5.403   5.276  12.424  0.9671 -1.0958 -0.8013
19813TIP3   OH280853   3.889   5.290  13.557 -0.3600 -0.0324 -0.8106
19813TIP3    H180854   3.859   5.205  13.523 -1.9504 -0.1126  0.6615
19813TIP3    H280855   3.926   5.269  13.643 -2.3027  0.8983  0.3354
19814TIP3   OH280856   6.292   2.534  12.732 -0.1077 -0.0183 -0.2471
19814TIP3    H180857   6.226   2.504  12.669 -0.7195  0.5949  0.0852
19814TIP3    H280858   6.241   2.557  12.811  0.4204  1.0257 -0.1855
19815TIP3   OH280859   3.375   3.666   2.121  0.4026 -0.7270 -0.2643
19815TIP3    H180860   3.387   3.745   2.068  0.5755 -0.1255  0.6258
19815TIP3    H280861   3.280   3.653   2.123  0.2317  0.3885  0.8237
19816TIP3   OH280862   1.303   5.686   2.446  0.3323  0.2340 -0.4727
19816TIP3    H180863   1.314   5.682   2.541  0.4632  2.4253 -0.3537
19816TIP3    H280864   1.307   5.595   2.418  1.0557 -0.4063  1.5393
19817TIP3   OH280865   4.480   1.148   4.381 -0.1798 -0.6300  0.5738
19817TIP3    H180866   4.517   1.235   4.395  0.2909 -0.7762  0.2838
19817TIP3    H280867   4.386   1.159   4.391 -0.0936 -0.1517  0.8532
19818TIP3   OH280868   4.152   1.749  15.119 -0.1575 -0.3470 -0.1982
19818TIP3    H180869   4.195   1.674  15.161  0.1353  0.3283  0.7679
19818TIP3    H280870   4.218   1.784  15.059 -0.1727 -0.6542 -0.3957
19819TIP3   OH280871   0.459   5.864  10.737 -0.1172 -0.6693  0.3946
19819TIP3    H180872   0.424   5.776  10.720  1.5831 -1.5266  1.0968
19819TIP3    H280873   0.410   5.894  10.813 -0.8023 -0.9506  0.0754
19820TIP3   OH280874   3.479   5.861  16.193 -0.8550  0.0473  0.2092
19820TIP3    H180875   3.511   5.923  16.259 -3.3264  1.0540  0.5464
19820TIP3    H280876   3.532   5.881  16.116  0.9522 -0.0208  1.3570
19821TIP3   OH280877   3.301   5.915  11.781 -0.1910 -0.0781  0.3425
19821TIP3    H180878   3.217   5.928  11.825 -0.5349  1.6719 -0.7261
19821TIP3    H280879   3.289   5.955  11.694  2.2307  1.7440  0.7519
19822TIP3   OH280880   0.340   5.456  11.515 -0.6998  0.1168 -0.8188
19822TIP3    H180881   0.421   5.506  11.523 -0.0554 -0.9411 -0.5187
19822TIP3    H280882   0.288   5.482  11.591 -0.3214  0.2247 -0.5959
19823TIP3   OH280883   3.607   1.570  16.889 -0.3084 -0.1283 -0.2529
19823TIP3    H180884   3.668   1.628  16.844 -1.7495  2.1662  0.5797
19823TIP3    H280885   3.608   1.599  16.980  0.0731 -2.4946  0.5645
19824TIP3   OH280886   6.760   5.093   0.020 -0.3576 -0.1037 -0.1729
19824TIP3    H180887   6.686   5.109  -0.038  0.7404  2.5738 -0.9738
19824TIP3    H280888   6.798   5.011  -0.012 -1.6637 -0.3646 -1.1382
19825TIP3   OH280889   3.344   1.681  14.559 -0.1651 -0.1714  0.7189
19825TIP3    H180890   3.365   1.596  14.521 -0.5908  0.9094 -2.1906
19825TIP3    H280891   3.260   1.667  14.604  0.8568 -1.7354  2.2730
19826TIP3   OH280892   2.771   4.025   6.113  0.0536 -0.0901 -0.3999
19826TIP3    H180893   2.759   4.055   6.022  1.1518  0.0484 -0.5120
19826TIP3    H280894   2.699   3.964   6.128 -0.3682  0.1909 -1.2395
19827TIP3   OH280895   1.488   0.990   1.326 -0.1065  0.2548 -0.2403
19827TIP3    H180896   1.548   0.918   1.311 -0.0277 -0.1009  1.5293
19827TIP3    H280897   1.439   0.964   1.404 -2.0610  0.8546 -1.2021
19828TIP3   OH280898   4.201   4.692  14.418  0.0990 -0.2768 -0.3216
19828TIP3    H180899   4.154   4.738  14.488 -0.5529 -0.6183 -0.5290
19828TIP3    H280900   4.169   4.602  14.422  0.9005 -0.5692 -0.3334
19829TIP3   OH280901   1.071   1.558  15.182  0.1572 -0.0879  0.3526
19829TIP3    H180902   1.019   1.503  15.240  2.2917  0.4663  3.0100
19829TIP3    H280903   1.066   1.646  15.221  3.5680 -0.1576  1.2892
19830TIP3   OH280904   3.671   5.914  16.433 -0.1993 -0.3253  0.6064
19830TIP3    H180905   3.636   5.855  16.499  0.2051 -2.2561 -0.8220
19830TIP3    H280906   3.670   6.001  16.474 -1.0966 -1.2667  2.6579
19831TIP3   OH280907   4.650   1.194  12.119  0.1281 -0.8101  0.2216
19831TIP3    H180908   4.694   1.206  12.203 -0.7741 -2.6742  1.0091
19831TIP3    H280909   4.571   1.248  12.126 -0.3882 -1.6230  0.9604
19832TIP3   OH280910   3.784   3.891   5.811 -0.0226  0.2205 -0.0631
19832TIP3    H180911   3.837   3.819   5.845  3.6499  3.1792  1.1038
19832TIP3    H280912   3.728   3.917   5.884  1.1263  0.6880  0.6624
19833TIP3   OH280913   3.170   3.124  13.851 -0.4345 -0.2255  0.5313
19833TIP3    H180914   3.104   3.190  13.870  0.2696  1.1180 -1.3421
19833TIP3    H280915   3.226   3.165  13.784  0.0215 -2.7175 -0.7342
19834TIP3   OH280916   6.740   4.499  15.235  0.1302 -0.3985 -0.3976
19834TIP3    H180917   6.658   4.536  15.266  0.0810 -0.8986  0.1103
19834TIP3    H280918   6.723   4.405  15.230  0.3103 -0.3819 -1.4502
19835TIP3   OH280919   4.745   0.310   3.867 -0.0398 -0.1566 -0.3894
19835TIP3    H180920   4.833   0.311   3.831  0.4577 -0.4812  0.7492
19835TIP3    H280921   4.729   0.400   3.894 -0.2254 -0.0111 -0.9879
19836TIP3   OH280922   6.224   3.790   4.339 -0.6226  0.1523  0.2715
19836TIP3    H180923   6.198   3.699   4.330  2.8796 -1.1847  2.0880
19836TIP3    H280924   6.207   3.812   4.431  1.4525  0.1865  0.7105
19837TIP3   OH280925   3.210   5.533   0.923 -0.3961  0.1722 -0.6813
19837TIP3    H180926   3.166   5.452   0.897 -3.5016  2.1262 -2.1188
19837TIP3    H280927   3.197   5.592   0.849  1.5677  2.1005  0.3906
19838TIP3   OH280928   6.688   3.515   0.892 -0.4438 -0.1263  0.3787
19838TIP3    H180929   6.749   3.443   0.876 -0.2939 -0.0051  0.4108
19838TIP3    H280930   6.742   3.586   0.926 -0.4279  0.3603 -0.6205
19839TIP3   OH280931   4.273   3.856   4.589  0.9570  0.1878  0.1822
19839TIP3    H180932   4.297   3.776   4.541 -1.5381  0.2149 -1.2907
19839TIP3    H280933   4.296   3.837   4.679  1.7254 -1.6535 -0.3501
19840TIP3   OH280934   5.474   3.127  11.260 -0.0042  0.1834  0.2427
19840TIP3    H180935   5.411   3.056  11.242 -0.7836  0.8622  0.2490
19840TIP3    H280936   5.442   3.167  11.341  1.8130 -0.9798  1.6271
19841TIP3   OH280937   2.057   5.388   0.340  0.1717 -0.0302  0.0203
19841TIP3    H180938   2.053   5.359   0.249  1.3757  0.3550 -0.1728
19841TIP3    H280939   2.131   5.449   0.343  1.3685 -1.4554  1.6290
19842TIP3   OH280940   5.390   5.739   2.244 -0.0557 -0.1128  0.3049
19842TIP3    H180941   5.379   5.788   2.325  0.1297  1.5454 -0.6279
19842TIP3    H280942   5.304   5.702   2.225 -0.3176  0.2646  0.7631
19843TIP3   OH280943   1.806   5.174  11.452 -0.3843  0.4215 -0.0013
19843TIP3    H180944   1.877   5.237  11.459  2.6626 -2.8553  2.3431
19843TIP3    H280945   1.761   5.179  11.536 -2.1061  1.4405 -0.9299
19844TIP3   OH280946   6.114   2.593   1.839 -0.2310 -0.2161  0.0650
19844TIP3    H180947   6.095   2.673   1.889 -1.2194  0.6785 -1.6709
19844TIP3    H280948   6.029   2.551   1.827 -0.2568  0.3166 -2.0035
19845TIP3   OH280949   1.056   6.127  13.472 -0.3476  0.3600 -0.2239
19845TIP3    H180950   1.039   6.113  13.566  2.6974  0.7114  0.4947
19845TIP3    H280951   1.102   6.047  13.445  0.8723  1.2236 -0.7826
19846TIP3   OH280952   0.285   6.580  14.474  0.1745  0.6240  0.8241
19846TIP3    H180953   0.344   6.634  14.422 -1.5968 -0.9071 -3.2450
19846TIP3    H280954   0.305   6.490  14.447 -2.8218 -0.0495  0.4502
19847TIP3   OH280955   2.002   6.123   3.534  0.1867 -0.1260  0.4690
19847TIP3    H180956   1.955   6.061   3.590 -1.0613  0.8123  0.5026
19847TIP3    H280957   1.935   6.184   3.503  1.3480  1.1998  0.4205
19848TIP3   OH280958   4.276   0.512  14.481 -0.1480 -0.4484  0.1751
19848TIP3    H180959   4.250   0.594  14.440 -1.0956 -1.6551 -1.8216
19848TIP3    H280960   4.236   0.444  14.426  0.3553 -2.2464  1.9089
19849TIP3   OH280961   2.994   0.253  17.138  0.1617 -0.6077 -0.4167
19849TIP3    H180962   3.028   0.227  17.224 -0.3351 -0.1355 -0.0734
19849TIP3    H280963   2.973   0.346  17.147 -0.8759 -0.8011 -0.7333
19850TIP3   OH280964   0.627   2.270   1.215  0.3700 -0.0310  0.0869
19850TIP3    H180965   0.659   2.273   1.306  1.0491 -0.2469 -0.1405
19850TIP3    H280966   0.640   2.180   1.188 -1.3583 -0.3807  0.2916
19851TIP3   OH280967   5.852   2.198   5.046  0.8978 -0.9139  0.3583
19851TIP3    H180968   5.864   2.233   5.134 -2.6733 -1.0699  1.0737
19851TIP3    H280969   5.820   2.109   5.061 -1.1235 -0.4696 -0.9712
19852TIP3   OH280970   1.303   0.372  12.948  0.4075 -0.1620 -0.1909
19852TIP3    H180971   1.394   0.385  12.975  1.0560 -2.3801 -1.0940
19852TIP3    H280972   1.308   0.357  12.853 -1.0621  0.8748 -0.4722
19853TIP3   OH280973   3.917   5.185   5.951 -0.4456 -0.4126  0.7739
19853TIP3    H180974   3.854   5.200   6.022 -1.9262  0.5671 -0.6525
19853TIP3    H280975   3.913   5.265   5.898  0.2169 -1.2927 -0.6786
19854TIP3   OH280976   2.265   6.625   1.591  0.5194  0.1299 -0.3548
19854TIP3    H180977   2.173   6.606   1.611  1.1356 -0.0158  2.9378
19854TIP3    H280978   2.267   6.719   1.572 -0.1752  0.4187  0.8973
19855TIP3   OH280979   6.139   5.322  13.745 -0.4929 -0.6365  0.1540
19855TIP3    H180980   6.118   5.239  13.789 -1.4338 -1.3982 -1.6057
19855TIP3    H280981   6.106   5.310  13.656  0.7940  1.0533 -0.5973
19856TIP3   OH280982   2.481   4.300   0.522 -0.4556  0.1364 -0.7983
19856TIP3    H180983   2.536   4.373   0.492  0.3565 -0.1599 -0.0760
19856TIP3    H280984   2.439   4.267   0.443 -1.2576  1.7114 -1.0875
19857TIP3   OH280985   5.874   4.976   6.124 -0.4405 -0.1729  0.4708
19857TIP3    H180986   5.913   4.995   6.039 -1.2670  1.2727  0.3690
19857TIP3    H280987   5.898   4.885   6.143 -0.0110 -0.4229 -1.1690
19858TIP3   OH280988   5.527   3.172  15.204 -0.3443 -0.1324 -0.2219
19858TIP3    H180989   5.493   3.083  15.216  1.6351 -1.0469 -1.0174
19858TIP3    H280990   5.478   3.206  15.129 -0.1129 -1.1149 -0.8423
19859TIP3   OH280991   3.283   0.730   2.222 -0.0709  0.2417 -0.0226
19859TIP3    H180992   3.268   0.664   2.290  1.4008 -1.6590 -1.4140
19859TIP3    H280993   3.336   0.797   2.264  2.3271 -1.7639  0.3625
19860TIP3   OH280994   3.043   5.425  11.600  0.1233  0.4974  0.4945
19860TIP3    H180995   3.014   5.400  11.513  0.6557 -0.1318  0.4939
19860TIP3    H280996   3.136   5.403  11.602  0.3224  1.3276  0.9237
19861TIP3   OH280997   0.739   5.483   6.005  0.2606 -0.4091 -0.1885
19861TIP3    H180998   0.691   5.549   6.054  0.3769  0.0767 -0.7235
19861TIP3    H280999   0.671   5.423   5.973 -0.0154  0.3094 -0.9937
19862TIP3   OH281000   4.985   2.320   2.061  0.0105  0.4007 -0.3674
19862TIP3    H181001   5.073   2.286   2.049  0.7848  1.9443  0.6252
19862TIP3    H281002   4.997   2.410   2.094 -1.9185  1.0077 -1.1370
19863TIP3   OH281003   0.558   1.600  13.299 -0.4159  0.0477 -0.2046
19863TIP3    H181004   0.552   1.691  13.330 -0.6115 -0.0074 -0.0818
19863TIP3    H281005   0.621   1.604  13.227 -0.5365  0.3056 -0.2981
19864TIP3   OH281006   1.897   1.125  14.893 -0.5692  0.2059  0.4220
19864TIP3    H181007   1.920   1.062  14.962 -0.0383 -0.8563 -0.6725
19864TIP3    H281008   1.896   1.072  14.813  0.9565  1.7877 -0.7079
19865TIP3   OH281009   5.637   6.305  13.687  0.3882 -0.2004 -0.3941
19865TIP3    H181010   5.684   6.263  13.759 -0.4928  0.6388  0.7180
19865TIP3    H281011   5.581   6.236  13.651 -0.5295 -0.1973  0.9530
19866TIP3   OH281012   1.606   6.393   2.893  0.5873 -0.0583  0.0910
19866TIP3    H181013   1.521   6.403   2.849 -0.5690  0.0605  2.2488
19866TIP3    H281014   1.635   6.305   2.868  0.0297  0.0279 -0.9472
19867TIP3   OH281015   0.630   5.867  14.046  0.1319 -0.2520  0.0946
19867TIP3    H181016   0.705   5.897  14.097 -0.7585  0.8775  0.7905
19867TIP3    H281017   0.595   5.946  14.005 -1.2240 -0.5953  0.5328
19868TIP3   OH281018   4.729   6.575   0.386 -0.1332 -0.4167 -0.1558
19868TIP3    H181019   4.786   6.511   0.427  2.3960  2.1488  0.6408
19868TIP3    H281020   4.707   6.638   0.455 -2.4698 -0.2843 -0.8990
19869TIP3   OH281021   4.306   5.803  11.666 -0.2303  0.3414 -0.8412
19869TIP3    H181022   4.340   5.729  11.617 -0.0129  0.4796 -0.8988
19869TIP3    H281023   4.230   5.832  11.616 -1.5004 -1.0560  0.1958
19870TIP3   OH281024   0.382   6.767   4.296  0.1447 -0.4622 -0.5200
19870TIP3    H181025   0.379   6.673   4.313  2.4672 -0.4968  0.0318
19870TIP3    H281026   0.428   6.803   4.371  0.7256  0.9049 -1.5040
19871TIP3   OH281027   4.680   6.089   5.732 -0.1302  0.2356  0.1206
19871TIP3    H181028   4.700   6.127   5.817  1.0331 -0.4072  0.1521
19871TIP3    H281029   4.633   6.008   5.751 -1.1879  0.8235  0.0933
19872TIP3   OH281030   3.022   3.178  16.063 -0.0401 -0.3675  0.0532
19872TIP3    H181031   2.937   3.172  16.018  0.1217 -1.7317 -0.0985
19872TIP3    H281032   3.010   3.128  16.144  0.8870 -1.3241 -0.3928
19873TIP3   OH281033   5.020   6.369  15.790  0.3490  0.3289 -0.0066
19873TIP3    H181034   5.022   6.384  15.695 -0.2872  1.0997  0.0931
19873TIP3    H281035   5.073   6.290  15.802  1.2008  0.7308 -0.9052
19874TIP3   OH281036   1.593   0.532  13.558 -0.2222  0.0259 -0.2828
19874TIP3    H181037   1.622   0.497  13.474 -0.0872  1.0823 -0.6937
19874TIP3    H281038   1.528   0.599  13.535 -1.2594 -0.6615  0.5207
19875TIP3   OH281039   5.387   6.474   1.353  0.7903 -0.2083  0.4501
19875TIP3    H181040   5.416   6.397   1.402  0.8869  0.9176  2.2766
19875TIP3    H281041   5.293   6.462   1.341  0.8508 -0.7239  0.4885
19876TIP3   OH281042   3.490   3.444   4.930 -0.2124  0.2138 -0.5653
19876TIP3    H181043   3.568   3.388   4.925 -0.3109  0.0753 -0.5414
19876TIP3    H281044   3.417   3.386   4.911 -0.4470  0.0158  0.8623
19877TIP3   OH281045   3.310   6.174   1.552  0.1321  0.2466 -0.5256
19877TIP3    H181046   3.221   6.171   1.518  0.5201  0.8943 -1.6552
19877TIP3    H281047   3.311   6.107   1.621 -1.1768  0.1326 -0.5850
19878TIP3   OH281048   2.687   2.303   1.939  0.2386  0.3850  0.2751
19878TIP3    H181049   2.755   2.240   1.914  0.0526  0.3500 -0.1519
19878TIP3    H281050   2.722   2.346   2.017  0.0300 -0.7640  1.0182
19879TIP3   OH281051   6.321   3.789  16.089 -0.7962 -0.0447  0.2674
19879TIP3    H181052   6.234   3.786  16.129 -1.3987 -2.5475 -0.9990
19879TIP3    H281053   6.370   3.719  16.134  0.7981  1.6639  1.3304
19880TIP3   OH281054   4.959   0.089   4.409  0.7309 -0.2798  0.1583
19880TIP3    H181055   5.012   0.156   4.451  0.6071  2.3654 -3.4837
19880TIP3    H281056   4.868   0.112   4.432  0.5843  1.8145 -2.1589
19881TIP3   OH281057   4.836   5.347  11.349  0.4964  0.6164 -0.8963
19881TIP3    H181058   4.895   5.284  11.391 -2.8449 -1.9716  0.3966
19881TIP3    H281059   4.756   5.297  11.333 -2.2529  4.3979 -0.2920
19882TIP3   OH281060   0.008   3.753   1.072 -0.4959 -0.3889  0.1438
19882TIP3    H181061   0.019   3.826   1.133 -1.1855  0.5829 -0.8670
19882TIP3    H281062   0.017   3.792   0.985 -1.5648 -1.3803 -0.4432
19883TIP3   OH281063   0.852   3.200   1.410 -0.0852  0.0376  0.1719
19883TIP3    H181064   0.947   3.192   1.415  0.5419  2.0063 -4.2517
19883TIP3    H281065   0.822   3.111   1.393  1.2436 -0.2548 -0.7612
19884TIP3   OH281066   5.798   3.223  17.239  0.3735  0.7096 -0.0617
19884TIP3    H181067   5.703   3.231  17.224  0.2255  1.2464  1.0897
19884TIP3    H281068   5.828   3.314  17.247  1.3829  0.6786 -2.5401
19885TIP3   OH281069   5.325   1.562   0.202 -0.1942 -0.0081  0.1168
19885TIP3    H181070   5.245   1.552   0.254 -1.5175 -1.7552 -2.0551
19885TIP3    H281071   5.310   1.640   0.149  0.0412  0.3331  0.5579
19886TIP3   OH281072   6.628   1.851   0.515  0.8936  0.1278 -0.0722
19886TIP3    H181073   6.539   1.881   0.532  1.2692  1.2964 -0.1159
19886TIP3    H281074   6.651   1.800   0.592  0.4230  0.3571  0.2252
19887TIP3   OH281075   5.355   1.692   3.922  0.1052 -0.4433 -0.0050
19887TIP3    H181076   5.362   1.697   4.017  1.9182  0.4846 -0.1546
19887TIP3    H281077   5.389   1.776   3.890 -1.0484 -0.4783 -1.4692
19888TIP3   OH281078   3.063   3.639  12.937 -0.0627  0.0735  0.1607
19888TIP3    H181079   2.983   3.624  12.988  0.3661  3.2060  2.0097
19888TIP3    H281080   3.133   3.604  12.992  0.1072  0.1579 -0.0031
19889TIP3   OH281081   6.362   5.083  13.873 -0.0360  0.0017  0.3419
19889TIP3    H181082   6.402   5.001  13.902 -2.2111 -0.5990  1.8406
19889TIP3    H281083   6.424   5.118  13.809  1.9079 -1.8003  1.1275
19890TIP3   OH281084   5.396   4.161  12.652  0.3637  0.8117 -0.0143
19890TIP3    H181085   5.300   4.162  12.657  0.4102  1.3805  1.2518
19890TIP3    H281086   5.417   4.078  12.610 -0.7367  1.7155 -2.5805
19891TIP3   OH281087   0.348   1.183  14.006 -0.1943  0.1316 -0.1972
19891TIP3    H181088   0.336   1.092  13.980 -1.5898  0.4656 -0.8197
19891TIP3    H281089   0.358   1.231  13.923 -1.7089  0.8221 -0.0131
19892TIP3   OH281090   5.018   5.655   5.544  0.0077  0.1465 -0.1105
19892TIP3    H181091   4.969   5.721   5.592 -0.7635  0.8445 -1.7758
19892TIP3    H281092   5.101   5.699   5.521 -0.2328  0.3277 -0.6520
19893TIP3   OH281093   5.580   1.805  13.125 -0.0020  0.6791  0.0592
19893TIP3    H181094   5.525   1.806  13.047 -2.0937  1.3129  1.4523
19893TIP3    H281095   5.518   1.810  13.198  1.8577 -0.0036  1.7797
19894TIP3   OH281096   1.591   3.825   4.171  0.4347 -0.1642  0.3310
19894TIP3    H181097   1.622   3.805   4.259  0.6663  1.0724  0.5527
19894TIP3    H281098   1.511   3.877   4.184 -0.0305 -0.7317 -0.2002
19895TIP3   OH281099   2.337   6.389   3.138 -1.2146  0.1944  0.5486
19895TIP3    H181100   2.327   6.456   3.071  0.3827 -0.3706 -0.3027
19895TIP3    H281101   2.289   6.313   3.104 -1.4701  0.3049  0.6560
19896TIP3   OH281102   4.279   3.814   5.144  0.2645 -1.1475  0.1056
19896TIP3    H181103   4.229   3.732   5.153  0.7199 -1.4258  0.1582
19896TIP3    H281104   4.277   3.852   5.231 -0.9934 -0.4668 -0.1859
19897TIP3   OH281105   0.604   6.015  15.018 -0.0724 -0.2457 -0.0869
19897TIP3    H181106   0.567   5.929  15.039  1.2842 -1.0320 -0.8211
19897TIP3    H281107   0.639   6.047  15.102 -1.0621 -0.1422  0.3035
19898TIP3   OH281108   4.569   4.427   3.450  0.2380 -0.3636 -0.5296
19898TIP3    H181109   4.608   4.362   3.508 -0.8308  1.9170  3.0895
19898TIP3    H281110   4.643   4.478   3.417  0.8064 -0.8576 -0.0381
19899TIP3   OH281111   5.430   4.160   3.007  0.0371 -0.3217 -0.4819
19899TIP3    H181112   5.431   4.065   3.005 -1.0152 -0.3371 -0.7803
19899TIP3    H281113   5.354   4.185   2.953 -0.0453  0.6554  0.0597
19900TIP3   OH281114   5.970   6.423   2.743 -0.2932  0.2297  0.2791
19900TIP3    H181115   5.925   6.408   2.826 -0.7451  2.0115  0.3952
19900TIP3    H281116   6.061   6.401   2.761 -0.4302  0.3404  1.1776
19901TIP3   OH281117   5.790   6.480  10.929  0.2586 -0.0689  0.0401
19901TIP3    H181118   5.862   6.494  10.990 -1.6739  2.6043  1.9297
19901TIP3    H281119   5.773   6.567  10.892 -1.4732 -0.7816 -0.9335
19902TIP3   OH281120   4.129   2.981  14.702 -0.3937  0.0422  0.0398
19902TIP3    H181121   4.116   2.983  14.607  0.0107  0.1672 -0.0132
19902TIP3    H281122   4.090   3.063  14.733 -1.8047 -0.6423  0.1493
19903TIP3   OH281123   3.609   1.812  12.483 -0.0263 -0.0449  0.4989
19903TIP3    H181124   3.674   1.859  12.535 -0.3538  1.3539 -0.2942
19903TIP3    H281125   3.525   1.843  12.517 -0.2558 -0.5493  0.3915
19904TIP3   OH281126   1.425   3.023  17.181  0.2121  0.2227 -0.0233
19904TIP3    H181127   1.448   3.115  17.187 -1.3242  0.7592 -1.6364
19904TIP3    H281128   1.336   3.022  17.145  0.2482 -1.8838 -0.2062
19905TIP3   OH281129   0.122   5.063   5.609 -0.6127  0.1640 -0.1273
19905TIP3    H181130   0.127   5.062   5.705 -2.4384  0.2077  0.0111
19905TIP3    H281131   0.211   5.043   5.580 -0.1055 -0.2487  1.5828
19906TIP3   OH281132   6.480   4.390  14.294 -0.9457  0.5349  0.3093
19906TIP3    H181133   6.417   4.456  14.323 -0.1615  1.0051  1.0093
19906TIP3    H281134   6.516   4.354  14.376 -0.7144 -0.1185 -0.0708
19907TIP3   OH281135   1.952   1.418   6.496 -0.5805  0.1256  0.8599
19907TIP3    H181136   2.001   1.493   6.528  1.1735 -0.6711  0.2084
19907TIP3    H281137   1.980   1.345   6.551 -2.7870  0.0207  1.9514
19908TIP3   OH281138   1.383   3.503   1.077 -0.4135  0.0365  0.0441
19908TIP3    H181139   1.345   3.552   1.151 -1.9981  0.2124 -0.8417
19908TIP3    H281140   1.394   3.414   1.110 -1.2486  0.0807  0.4628
19909TIP3   OH281141   0.253   4.046   3.606 -0.0857  0.1178 -0.1391
19909TIP3    H181142   0.286   4.097   3.679  0.0865 -1.3846  0.8823
19909TIP3    H281143   0.214   3.968   3.646 -2.0693  0.3317 -1.5042
19910TIP3   OH281144   5.356   6.544  13.674 -0.1695  0.1803 -0.0099
19910TIP3    H181145   5.362   6.478  13.743  0.2507  0.1731 -0.0498
19910TIP3    H281146   5.392   6.501  13.597  2.3712  1.1825  0.4963
19911TIP3   OH281147   3.171   2.377  17.210  0.6671  0.2072 -0.4326
19911TIP3    H181148   3.243   2.392  17.271  0.4699 -0.1438 -0.1136
19911TIP3    H281149   3.211   2.387  17.124  0.8575  1.1366 -0.2511
19912TIP3   OH281150   2.761   4.963   6.475  1.1523 -0.1719  0.4907
19912TIP3    H181151   2.726   4.878   6.448  1.9147 -0.2248 -0.3721
19912TIP3    H281152   2.790   4.949   6.565 -0.3984 -0.3031  1.0148
19913TIP3   OH281153   4.567   5.196   3.416  0.0479  0.3725  0.4357
19913TIP3    H181154   4.641   5.254   3.433 -0.1543 -0.1109  3.4137
19913TIP3    H281155   4.606   5.112   3.394  0.3628  0.6551 -0.0972
19914TIP3   OH281156   3.449   6.262   2.867 -0.0700 -0.3771  0.2832
19914TIP3    H181157   3.361   6.243   2.835 -0.3047  0.7533  0.2113
19914TIP3    H281158   3.459   6.206   2.944 -0.7240 -0.7614  0.0970
19915TIP3   OH281159   0.997   4.749   0.660 -0.1965  0.3642  0.1570
19915TIP3    H181160   0.971   4.829   0.616 -1.5071 -0.3192 -0.3627
19915TIP3    H281161   1.078   4.722   0.616  0.6051  1.7042  0.7606
19916TIP3   OH281162   2.617   1.749   4.231  0.2360 -0.0494 -0.1361
19916TIP3    H181163   2.535   1.744   4.182 -0.1021 -0.4932  0.4578
19916TIP3    H281164   2.672   1.809   4.180 -0.2081 -0.2681 -0.8935
19917TIP3   OH281165   3.032   0.658  14.856 -0.4209 -0.2528 -0.3261
19917TIP3    H181166   3.050   0.603  14.780  0.1009  0.6736 -0.9064
19917TIP3    H281167   3.086   0.622  14.926 -0.7800 -1.0184 -0.4394
19918TIP3   OH281168   3.650   1.328  15.132  0.2814 -0.4227 -0.6170
19918TIP3    H181169   3.651   1.379  15.051  1.5867 -0.8811 -0.9129
19918TIP3    H281170   3.587   1.257  15.114 -1.6659  1.0906 -0.1404
19919TIP3   OH281171   3.535   0.456  13.079  0.0447  0.7356 -0.0299
19919TIP3    H181172   3.541   0.361  13.077  0.9253  0.7816 -1.2557
19919TIP3    H281173   3.624   0.486  13.059 -0.5015  1.7926 -1.0039
19920TIP3   OH281174   4.336   3.661   0.367  0.3083 -0.8124  0.5926
19920TIP3    H181175   4.268   3.716   0.329 -1.6634 -3.1694  0.4767
19920TIP3    H281176   4.412   3.675   0.310  0.0412  1.9644  0.7818
19921TIP3   OH281177   1.276   2.343   2.269 -0.2154  0.5907  0.0449
19921TIP3    H181178   1.243   2.379   2.352  1.1214  0.6822  0.5692
19921TIP3    H281179   1.299   2.252   2.290  0.6615  0.7793 -0.0590
19922TIP3   OH281180   4.366   5.051   2.813  0.0885 -0.9309  0.1867
19922TIP3    H181181   4.408   5.108   2.748 -0.1334 -0.6923  0.2485
19922TIP3    H281182   4.438   5.002   2.852  0.5157  0.5853  1.3893
19923TIP3   OH281183   6.762   5.281  15.431 -0.0796 -0.2533 -0.3597
19923TIP3    H181184   6.712   5.362  15.423  1.1707  0.4736 -1.1176
19923TIP3    H281185   6.743   5.233  15.350  0.6995  0.1813 -0.8083
19924TIP3   OH281186   3.418   4.284  13.866  0.0455 -0.0155  0.5510
19924TIP3    H181187   3.375   4.235  13.936 -1.3329  0.7093  0.2460
19924TIP3    H281188   3.413   4.227  13.789 -1.3876  0.4870  0.2435
19925TIP3   OH281189   0.985   0.887   0.148 -0.3344  0.7129 -0.2235
19925TIP3    H181190   0.945   0.948   0.211 -0.5735 -1.2298  1.6446
19925TIP3    H281191   0.917   0.822   0.132  0.1618  0.4988 -1.5797
19926TIP3   OH281192   2.450   1.764  11.738 -0.2810 -0.0346 -0.0517
19926TIP3    H181193   2.444   1.773  11.833  1.5308 -1.4207  0.2405
19926TIP3    H281194   2.372   1.714  11.714 -0.0120 -0.9624  0.9280
19927TIP3   OH281195   2.874   4.890   1.853  0.0724 -0.2033 -0.2308
19927TIP3    H181196   2.916   4.922   1.773 -0.0240 -1.7424 -0.9372
19927TIP3    H281197   2.820   4.963   1.883  1.1113  0.8519 -0.8297
19928TIP3   OH281198   3.482   3.928   6.527  0.1649  0.3826  0.2645
19928TIP3    H181199   3.461   4.008   6.478 -0.6950 -0.1978 -0.3495
19928TIP3    H281200   3.416   3.865   6.498  2.5908 -1.5081 -1.5556
19929TIP3   OH281201   3.015   0.587  13.530  0.5168 -0.3475  0.1785
19929TIP3    H181202   2.994   0.674  13.564 -1.2909 -0.5088 -0.4094
19929TIP3    H281203   3.084   0.555  13.587  1.5803  1.6492  0.1159
19930TIP3   OH281204   4.048   0.994  16.076  0.0557  0.0105  0.2026
19930TIP3    H181205   4.070   1.043  16.155  1.6772 -0.7895  0.2859
19930TIP3    H281206   4.127   0.997  16.022 -1.4750  1.7529 -2.0946
19931TIP3   OH281207   2.360   5.602  13.012  0.5756 -0.1611  0.8462
19931TIP3    H181208   2.387   5.526  13.063  1.9324 -0.4183 -0.1776
19931TIP3    H281209   2.396   5.586  12.925 -3.1037 -0.5607 -0.7588
19932TIP3   OH281210   3.434   2.971  14.814  0.2456 -0.2376  0.2635
19932TIP3    H181211   3.473   2.890  14.780  0.0470 -0.6318  0.9575
19932TIP3    H281212   3.350   2.977  14.769  0.0474 -0.6783  0.5630
19933TIP3   OH281213   4.354   0.431   1.497 -0.2922 -0.0510 -0.0278
19933TIP3    H181214   4.375   0.454   1.406 -0.1086  0.1534  0.0639
19933TIP3    H281215   4.418   0.364   1.519 -0.3206 -0.0825 -0.0420
19934TIP3   OH281216   3.717   0.940   6.374 -0.1277 -0.0275  0.0476
19934TIP3    H181217   3.733   0.951   6.467 -0.4162 -0.6184  0.1688
19934TIP3    H281218   3.792   0.981   6.331 -0.2137  0.6547  0.5237
19935TIP3   OH281219   1.327   1.365  11.693 -0.2837 -0.0350  0.2450
19935TIP3    H181220   1.383   1.437  11.720 -1.2026  0.6783  0.3102
19935TIP3    H281221   1.387   1.292  11.676  0.7644  1.0885 -0.9979
19936TIP3   OH281222   5.250   3.205  16.325  0.1442  0.1837  0.0588
19936TIP3    H181223   5.242   3.119  16.364 -1.7810  0.6113  0.6929
19936TIP3    H281224   5.275   3.263  16.397  0.2030  0.3634 -0.1044
19937TIP3   OH281225   2.877   6.737  14.984 -0.1047  0.0379  0.1837
19937TIP3    H181226   2.815   6.754  14.913  0.9998 -0.9583 -1.0856
19937TIP3    H281227   2.947   6.800  14.970  0.9381 -1.2400 -0.7149
19938TIP3   OH281228   3.122   4.266   0.960 -0.4843  0.2195 -0.0085
19938TIP3    H181229   3.189   4.199   0.965  1.3470  2.0068  0.9360
19938TIP3    H281230   3.108   4.294   1.051 -1.1455  1.1395 -0.3699
19939TIP3   OH281231   6.460   3.565   2.734  0.2341 -0.5394  0.5400
19939TIP3    H181232   6.477   3.638   2.675 -2.1600 -0.5261 -0.2685
19939TIP3    H281233   6.544   3.547   2.776  1.1192  2.0256  0.0481
19940TIP3   OH281234   6.398   6.226  16.054 -0.0637  0.1205  0.0053
19940TIP3    H181235   6.326   6.187  16.003  0.4625 -0.7668 -0.0859
19940TIP3    H281236   6.355   6.289  16.111 -0.8565 -0.0165 -0.4172
19941TIP3   OH281237   4.400   4.127  13.437 -0.7588  0.3470 -0.3468
19941TIP3    H181238   4.351   4.124  13.356 -0.9572 -0.9753 -0.2024
19941TIP3    H281239   4.390   4.039  13.475  0.6237  0.4407  0.3224
19942TIP3   OH281240   0.197   4.572  11.582 -0.4514  0.7800 -0.0453
19942TIP3    H181241   0.221   4.605  11.495  3.3804 -0.8084  0.2431
19942TIP3    H281242   0.143   4.495  11.564  0.0959  0.6100 -1.0383
19943TIP3   OH281243   0.559   2.271   2.206  0.0558 -0.1992 -0.2468
19943TIP3    H181244   0.484   2.330   2.202 -0.0061 -0.2276  0.4325
19943TIP3    H281245   0.529   2.191   2.163 -1.1051 -1.0524  1.9988
19944TIP3   OH281246   4.128   6.492   0.737  0.1098 -0.2984  0.0520
19944TIP3    H181247   4.138   6.505   0.832 -1.1802 -2.6673  0.5929
19944TIP3    H281248   4.095   6.402   0.729 -0.0080 -0.0782 -2.6555
19945TIP3   OH281249   2.336   5.252   4.796  0.3865  0.1474  0.2726
19945TIP3    H181250   2.345   5.343   4.768  0.4532 -0.2773 -1.1587
19945TIP3    H281251   2.308   5.258   4.888  0.3462  1.5977  0.1946
19946TIP3   OH281252   4.475   6.643   4.038  0.1529 -0.3922 -0.0753
19946TIP3    H181253   4.503   6.561   4.078  0.3423  0.2647  1.1857
19946TIP3    H281254   4.542   6.707   4.065 -0.7576  0.4846  0.1669
19947TIP3   OH281255   0.017   0.921  14.980 -0.0464  0.0161 -0.0547
19947TIP3    H181256   0.087   0.856  14.974 -0.3033 -0.2909  0.2275
19947TIP3    H281257   0.063   1.006  14.978  0.1781 -0.1227 -2.0720
19948TIP3   OH281258   0.003   5.322  16.941  0.7043 -0.4975  0.5358
19948TIP3    H181259  -0.089   5.305  16.961 -0.1141  1.7577 -0.9300
19948TIP3    H281260   0.039   5.360  17.021  0.0407 -0.3407  0.7670
19949TIP3   OH281261   3.425   1.184   4.778 -0.0624  0.2607  0.3192
19949TIP3    H181262   3.371   1.168   4.700  0.6788  0.9382 -0.3441
19949TIP3    H281263   3.415   1.277   4.796  2.1922  0.8000 -0.8514
19950TIP3   OH281264   0.571   3.879  16.202 -0.7210  0.3463  0.6105
19950TIP3    H181265   0.582   3.796  16.248  0.8009  0.3054  0.2299
19950TIP3    H281266   0.574   3.856  16.109  2.5394  1.0209  0.4152
19951TIP3   OH281267   3.957   4.551   2.105  0.1282 -0.5723 -0.2239
19951TIP3    H181268   3.880   4.602   2.084  0.4221 -0.5111 -1.2247
19951TIP3    H281269   4.006   4.604   2.168  0.7332  0.6962 -1.6969
19952TIP3   OH281270   5.754   3.512   3.118  0.0913  0.2739 -0.2520
19952TIP3    H181271   5.717   3.587   3.072  1.6118  1.3077  0.1104
19952TIP3    H281272   5.745   3.439   3.057 -0.1287  1.0847 -1.2085
19953LIG     O181273   5.173   5.024  16.682 -0.2821 -0.1631 -0.1400
19953LIG     O281274   5.088   4.932  16.917 -0.2821 -0.4830 -0.1732
19953LIG     O381275   5.072   5.294  16.765  0.5346  0.3466 -0.3805
19953LIG     O481276   5.282   4.925  17.053  0.5123 -0.3580 -0.5827
19953LIG     O581277   5.243   5.235  17.049 -0.3858 -0.1669  0.0926
19953LIG     O681278   4.971   5.177  17.214 -0.2816  0.4277 -0.0696
19953LIG     O781279   5.031   4.928  17.338  0.5046 -0.5281 -0.4879
19953LIG     O881280   5.237   4.641  17.092  0.0571  0.5380 -0.0258
19953LIG     O981281   5.036   4.691  17.173 -0.5152 -0.0617  0.2811
19953LIG      N81282   4.915   4.771  16.347  0.1058  0.4657  0.9186
19953LIG     C181283   5.061   4.866  16.564  0.9161  0.3681  0.0338
19953LIG     C281284   4.982   4.740  16.580 -0.3706  0.6092  0.6903
19953LIG     C381285   5.167   4.886  16.674 -0.3094 -0.3136 -0.5129
19953LIG     C481286   4.859   4.758  16.483 -0.2556  0.0741 -0.1428
19953LIG     C581287   5.106   4.894  16.426 -0.5695 -0.1587  0.5180
19953LIG     C681288   4.972   4.985  16.585  0.4457 -0.5671 -0.7242
19953LIG     C781289   4.764   4.877  16.523  0.1183 -0.4096  0.7618
19953LIG     C881290   4.995   4.893  16.323 -0.4187 -0.1544 -0.3412
19953LIG     C981291   5.133   4.839  16.818  0.0317  0.5768  0.3321
19953LIG    C1081292   4.836   5.001  16.584  0.1882  0.2124  0.2529
19953LIG    C1181293   4.935   4.715  16.718  0.3272  0.4203  0.2160
19953LIG    C1281294   5.055   5.078  16.657  0.6645 -0.4306  0.1168
19953LIG    C1381295   5.004   4.764  16.825  0.1969  0.0395  0.0065
19953LIG    C1481296   4.963   4.648  16.279 -0.5342  0.2553  0.0249
19953LIG    C1581297   4.775   5.117  16.630  0.5301 -0.3053 -0.2040
19953LIG    C1681298   4.996   5.193  16.703 -0.9793 -0.5140  0.0914
19953LIG    C1781299   4.859   5.220  16.683  0.9320 -0.5558  0.5656
19953LIG    C1881300   5.198   5.009  16.969  0.3187  0.0991 -0.1531
19953LIG    C1981301   5.141   5.134  17.040  0.5693 -0.1442  0.7619
19953LIG    C2081302   5.095   5.102  17.183 -0.7868  0.4920 -1.1000
19953LIG    C2181303   5.079   4.952  17.208  0.3636 -0.0604  0.8569
19953LIG    C2281304   5.205   4.874  17.171 -0.2888 -0.5371 -0.8827
19953LIG    C2381305   5.146   4.734  17.148  0.2053 -0.2818  0.5267
19953LIG     H181306   5.039   4.653  16.543 -0.5990  1.8706 -3.0349
19953LIG     H281307   5.267   4.849  16.643  0.8120  0.9848  1.3521
19953LIG     H381308   4.794   4.669  16.496 -2.8525  1.9936  1.1700
19953LIG     H481309   5.185   4.822  16.395  1.7818  2.6595 -0.4801
19953LIG     H581310   5.140   4.999  16.419  0.6927 -0.6398 -1.7342
19953LIG     H681311   4.696   4.840  16.602 -1.3887 -0.3381 -0.4385
19953LIG     H781312   4.706   4.917  16.437 -1.7132 -3.0222  0.6362
19953LIG     H881313   4.929   4.982  16.333 -1.0215 -0.4395 -1.5826
19953LIG     H981314   5.046   4.902  16.225 -1.4901 -0.9774 -0.9985
19953LIG    H1081315   5.213   4.779  16.867 -0.1515  0.6044  0.6648
19953LIG    H1181316   4.831   4.682  16.731  0.0826  0.2570 -1.8848
19953LIG    H1281317   4.983   4.719  16.923  0.1671 -1.6255 -0.7252
19953LIG    H1381318   5.045   4.661  16.204 -0.4931 -0.1236  0.0035
19953LIG    H1481319   4.886   4.603  16.212  1.0429 -0.0182 -1.6969
19953LIG    H1581320   4.984   4.565  16.348  3.0583  0.1461 -0.9975
19953LIG    H1681321   4.668   5.131  16.623  0.7332  1.6254  0.0826
19953LIG    H1781322   4.827   5.316  16.719  1.8332  0.2366 -0.6594
19953LIG    H1881323   5.262   5.051  16.889  3.8862 -2.8751  0.8549
19953LIG    H1981324   5.059   5.186  16.986  0.3527 -0.2013  1.0297
19953LIG    H2081325   5.171   5.130  17.259 -2.5446  0.0668  0.9380
19953LIG    H2181326   5.012   5.368  16.779  1.7061  1.0334  1.3260
19953LIG    H2281327   4.992   4.923  17.145  1.4446 -0.4356 -0.5077
19953LIG    H2381328   5.265   4.867  17.264 -1.0837 -0.3442 -0.3423
19953LIG    H2481329   5.205   5.316  17.014  1.1804  0.0370 -1.2590
19953LIG    H2581330   5.002   5.268  17.217  0.1499  0.3465 -1.3388
19953LIG    H2681331   4.968   4.995  17.368  0.3493 -1.0994  0.4972
19953LIG    H2781332   5.198   4.557  17.068 -1.1933  0.7311  1.1760
   6.78667   6.78667  17.26253
